Title
81338
    1CHL1    C3    1   2.613   1.293  10.417  0.4698 -1.2944  0.6243
    1CHL1    H3    2   2.703   1.325  10.360  0.9446 -2.5159  0.6469
    1CHL1    O3    3   2.628   1.338  10.547 -1.1552 -0.1179 -0.2314
    1CHL1   H3'    4   2.547   1.321  10.595  0.0384 -0.1398  1.8917
    1CHL1    C4    5   2.487   1.357  10.343 -0.6318  0.1188 -0.1497
    1CHL1   H4A    6   2.385   1.328  10.377 -0.3490 -0.7108 -0.0056
    1CHL1   H4B    7   2.503   1.464  10.367  1.7253 -0.1339 -0.3689
    1CHL1    C5    8   2.494   1.319  10.193 -0.0718  0.3223 -0.6486
    1CHL1    C6    9   2.500   1.419  10.105  0.3464  0.1783 -0.0623
    1CHL1    H6   10   2.483   1.523  10.137 -1.9693 -0.6877  1.8207
    1CHL1    C7   11   2.524   1.395   9.961 -0.1894  0.0629 -0.3035
    1CHL1   H7A   12   2.469   1.465   9.895  0.8818  0.9587 -0.2761
    1CHL1   H7B   13   2.634   1.402   9.948 -0.2089 -1.5785 -1.7522
    1CHL1    C8   14   2.493   1.248   9.913 -0.5094 -0.2098 -0.7100
    1CHL1    H8   15   2.386   1.220   9.918 -0.1405 -1.3902  1.9603
    1CHL1   C14   16   2.544   1.237   9.773 -0.0842  0.1212  0.2995
    1CHL1   H14   17   2.653   1.258   9.782  0.2026 -0.1170 -1.9446
    1CHL1   C15   18   2.499   1.332   9.664 -0.3171  0.5771 -0.3899
    1CHL1  H15A   19   2.388   1.334   9.674 -0.2462 -1.7184  1.6513
    1CHL1  H15B   20   2.544   1.433   9.668  0.2764  0.3533 -1.1669
    1CHL1   C16   21   2.546   1.258   9.535 -0.1334  0.1913  0.2153
    1CHL1  H16A   22   2.471   1.267   9.453 -2.2289 -3.0335  1.5974
    1CHL1  H16B   23   2.644   1.303   9.506  0.4654 -1.9612 -1.4075
    1CHL1   C17   24   2.570   1.102   9.567 -0.2998  0.1789  0.2491
    1CHL1   H17   25   2.680   1.085   9.572 -0.3269 -1.1890 -2.4152
    1CHL1   C13   26   2.520   1.087   9.721 -0.8094 -0.1027  0.2657
    1CHL1   C18   27   2.363   1.042   9.713  0.1688 -0.3767 -0.2420
    1CHL1  H18A   28   2.313   1.050   9.812  0.5982 -0.8247  0.0132
    1CHL1  H18B   29   2.301   1.114   9.655  0.4557 -0.6154 -0.8462
    1CHL1  H18C   30   2.350   0.942   9.667 -3.3125  0.4622 -1.3956
    1CHL1   C12   31   2.604   0.990   9.814 -0.5785  0.2312 -0.2787
    1CHL1  H12A   32   2.579   0.885   9.788  0.0218  0.0147  0.0171
    1CHL1  H12B   33   2.711   1.006   9.788 -0.8377  1.6754 -0.5326
    1CHL1   C11   34   2.570   1.005   9.961  0.6585 -0.0985  0.1300
    1CHL1  H11A   35   2.467   0.965   9.961  0.3663  0.6413  0.1859
    1CHL1  H11B   36   2.641   0.940  10.016 -0.1056 -2.1123 -1.1659
    1CHL1    C9   37   2.566   1.155  10.011 -1.4405  0.1046  0.4202
    1CHL1    H9   38   2.672   1.187  10.016 -1.3510 -0.1148 -0.0709
    1CHL1   C10   39   2.510   1.170  10.165 -0.8956  0.1685 -0.4845
    1CHL1   C19   40   2.365   1.102  10.181 -0.5251 -0.0346  0.1429
    1CHL1  H19A   41   2.324   1.103  10.284  0.2277 -1.2360  0.4793
    1CHL1  H19B   42   2.308   1.153  10.099  2.7772  0.5030 -1.9961
    1CHL1  H19C   43   2.380   0.996  10.149  0.3100  0.3217 -0.6848
    1CHL1    C1   44   2.621   1.107  10.253 -0.9083  0.5647  0.1744
    1CHL1   H1A   45   2.618   0.996  10.260  0.2353  0.5049 -0.1123
    1CHL1   H1B   46   2.723   1.136  10.221 -2.3906  1.9402 -3.8411
    1CHL1    C2   47   2.601   1.142  10.408 -0.3647  0.1457 -0.2388
    1CHL1   H2A   48   2.678   1.100  10.475  0.1003  0.6186 -0.4701
    1CHL1   H2B   49   2.502   1.110  10.448  0.9333 -1.9558  1.5422
    1CHL1   C20   50   2.517   1.009   9.463  0.5477  0.3450  0.0248
    1CHL1   H20   51   2.408   0.998   9.479  0.8351 -1.8876  0.8954
    1CHL1   C21   52   2.562   0.864   9.498  0.5742  0.4036  0.1093
    1CHL1  H21A   53   2.670   0.849   9.478  0.2504 -1.3165 -0.5266
    1CHL1  H21B   54   2.512   0.802   9.421 -1.4992  0.5835  1.2253
    1CHL1  H21C   55   2.526   0.822   9.595 -2.3355 -1.7741 -1.7536
    1CHL1   C22   56   2.569   1.041   9.324 -0.3721  0.1152  0.3856
    1CHL1  H22A   57   2.548   1.146   9.295  0.3954  0.2787  0.3787
    1CHL1  H22B   58   2.680   1.042   9.332 -0.3953  0.0856  0.7318
    1CHL1   C23   59   2.516   0.960   9.211 -0.3105 -0.2946  0.5940
    1CHL1  H23A   60   2.531   0.850   9.215  1.0770 -0.2297 -1.2010
    1CHL1  H23B   61   2.409   0.987   9.205 -0.3098 -0.5351 -1.2165
    1CHL1   C24   62   2.588   1.010   9.085  0.0250  0.6657  0.0257
    1CHL1  H24A   63   2.586   1.121   9.085 -0.2867  0.6622  0.5788
    1CHL1  H24B   64   2.695   0.983   9.098 -0.3957 -1.1734  0.0133
    1CHL1   C25   65   2.549   0.958   8.946  0.0334  0.3062  0.0737
    1CHL1   H25   66   2.438   0.962   8.941  0.0732  0.9109 -0.4120
    1CHL1   C26   67   2.593   1.050   8.835 -0.5503  0.1241  0.8958
    1CHL1  H26A   68   2.703   1.052   8.821 -0.4787 -1.4614  1.0407
    1CHL1  H26B   69   2.558   0.999   8.743  1.4522 -1.9152  1.1712
    1CHL1  H26C   70   2.551   1.153   8.840  0.3242  0.5287  0.1114
    1CHL1   C27   71   2.580   0.807   8.909 -0.6676  0.4509 -0.1547
    1CHL1  H27A   72   2.512   0.755   8.980 -0.2870 -0.0931 -0.1872
    1CHL1  H27B   73   2.552   0.764   8.811 -1.1746 -1.4956  0.7937
    1CHL1  H27C   74   2.686   0.781   8.930 -1.0812 -0.1341  1.4363
    2CHL1    C3   75   4.951   4.355   9.942 -0.4058  0.1399 -0.6825
    2CHL1    H3   76   4.966   4.452   9.890  0.4691  0.9013  0.9181
    2CHL1    O3   77   4.949   4.380  10.085 -0.5988 -0.1594  0.6505
    2CHL1   H3'   78   4.995   4.311  10.134  1.1324 -0.0012 -0.6529
    2CHL1    C4   79   4.817   4.290   9.907 -0.1952  0.3469  0.3392
    2CHL1   H4A   80   4.791   4.201   9.968 -1.4711  1.2262  1.1210
    2CHL1   H4B   81   4.741   4.370   9.921 -1.8849 -0.8698 -1.4671
    2CHL1    C5   82   4.828   4.247   9.761  0.4178  0.4018  0.1741
    2CHL1    C6   83   4.738   4.300   9.676 -0.5376  1.2585  0.1870
    2CHL1    H6   84   4.660   4.369   9.712 -2.0104 -0.5046  0.5241
    2CHL1    C7   85   4.736   4.267   9.527 -0.1501 -0.1893  0.2211
    2CHL1   H7A   86   4.635   4.230   9.497 -0.2708  0.5193 -0.2748
    2CHL1   H7B   87   4.766   4.350   9.458  1.7627 -1.5817 -0.7034
    2CHL1    C8   88   4.828   4.149   9.485  0.1493  0.1127 -0.8478
    2CHL1    H8   89   4.764   4.061   9.510  0.2529  0.3409  0.2305
    2CHL1   C14   90   4.852   4.146   9.334  0.0515  0.9221  0.7315
    2CHL1   H14   91   4.916   4.234   9.311 -0.7565  1.5985  1.0140
    2CHL1   C15   92   4.728   4.151   9.239 -0.2619  0.2065 -0.3926
    2CHL1  H15A   93   4.646   4.084   9.273  0.1954  0.6561  1.7195
    2CHL1  H15B   94   4.688   4.255   9.247  0.5999  0.5776 -0.8739
    2CHL1   C16   95   4.788   4.092   9.108  0.3566 -0.5535 -0.1696
    2CHL1  H16A   96   4.742   3.995   9.079  0.4240 -0.5986 -0.1245
    2CHL1  H16B   97   4.769   4.174   9.036  1.5296 -0.1195  0.0030
    2CHL1   C17   98   4.940   4.060   9.134 -0.4602 -0.7203 -0.5446
    2CHL1   H17   99   4.992   4.154   9.108  0.0110 -1.0812 -0.9451
    2CHL1   C13  100   4.938   4.032   9.284 -0.1059 -0.1896 -0.2928
    2CHL1   C18  101   4.869   3.901   9.322  0.8586 -0.3584  0.5147
    2CHL1  H18A  102   4.775   3.898   9.264  0.4629  1.4191  0.9935
    2CHL1  H18B  103   4.931   3.813   9.295  0.5972 -1.6550  3.7505
    2CHL1  H18C  104   4.842   3.896   9.430 -3.1855 -1.6720 -0.3855
    2CHL1   C12  105   5.078   4.043   9.355  0.0517  0.1799 -0.0979
    2CHL1  H12A  106   5.131   3.947   9.339 -0.8200 -0.5940  1.4780
    2CHL1  H12B  107   5.136   4.128   9.314  0.3231 -0.8080 -1.8444
    2CHL1   C11  108   5.064   4.041   9.506  0.2611  0.0617  0.4949
    2CHL1  H11A  109   5.030   3.940   9.539 -0.6528  0.1565 -0.1081
    2CHL1  H11B  110   5.157   4.069   9.560 -1.9544  0.9957  4.2138
    2CHL1    C9  111   4.958   4.146   9.564 -0.1141  0.2513 -0.0281
    2CHL1    H9  112   5.006   4.241   9.532  1.3260 -0.3670  0.2211
    2CHL1   C10  113   4.944   4.152   9.721 -0.2187  0.4468 -0.5271
    2CHL1   C19  114   4.907   4.008   9.774  0.1358  0.5515  0.2887
    2CHL1  H19A  115   4.830   3.962   9.708  1.7324 -0.7304 -0.7435
    2CHL1  H19B  116   4.992   3.939   9.790 -0.4930 -1.3961 -3.5881
    2CHL1  H19C  117   4.853   4.017   9.871 -0.7093 -0.4835 -0.0638
    2CHL1    C1  118   5.074   4.210   9.776 -0.3574 -0.3355 -0.0096
    2CHL1   H1A  119   5.153   4.134   9.764  0.7664  0.6870  0.6880
    2CHL1   H1B  120   5.098   4.299   9.713 -0.6078  0.6959  1.2932
    2CHL1    C2  121   5.072   4.266   9.924 -0.5809  0.4982  0.3823
    2CHL1   H2A  122   5.155   4.336   9.947  1.5725 -0.9331 -2.5340
    2CHL1   H2B  123   5.071   4.184   9.999  1.1982 -1.5937 -1.7297
    2CHL1   C20  124   5.007   3.956   9.035  0.5067 -0.0262  0.2782
    2CHL1   H20  125   4.968   3.859   9.071 -1.2914  1.5860  3.0987
    2CHL1   C21  126   5.162   3.975   9.043  0.4760  0.0017 -0.0500
    2CHL1  H21A  127   5.196   3.966   9.149 -1.3396  0.2055  0.5763
    2CHL1  H21B  128   5.193   4.071   8.998 -0.8988 -0.1830 -1.4505
    2CHL1  H21C  129   5.218   3.902   8.981  0.0741 -0.6346  0.3273
    2CHL1   C22  130   4.964   3.984   8.883  0.3739  0.5399 -0.2494
    2CHL1  H22A  131   4.854   3.977   8.874  0.3485  0.3039  0.2221
    2CHL1  H22B  132   4.987   4.089   8.855  1.3241  0.3541 -0.2148
    2CHL1   C23  133   5.039   3.904   8.780  0.5425  0.0209 -1.1767
    2CHL1  H23A  134   5.142   3.943   8.771  1.3558 -1.8491 -0.3227
    2CHL1  H23B  135   5.050   3.799   8.815  3.2261 -0.0478 -2.0168
    2CHL1   C24  136   4.975   3.904   8.642  0.1395  0.0393 -0.0227
    2CHL1  H24A  137   4.879   3.849   8.643 -0.3750  0.8887 -0.6712
    2CHL1  H24B  138   4.959   4.013   8.622 -1.1207 -0.2376 -0.6273
    2CHL1   C25  139   5.068   3.844   8.530  0.4931 -0.5064  0.0858
    2CHL1   H25  140   5.015   3.839   8.432 -1.4905 -1.2435  1.1437
    2CHL1   C26  141   5.190   3.922   8.491 -0.3547 -0.3508 -0.2162
    2CHL1  H26A  142   5.262   3.923   8.575  0.1732 -0.6319 -0.6611
    2CHL1  H26B  143   5.239   3.874   8.404 -1.7295 -2.9831  0.3343
    2CHL1  H26C  144   5.171   4.028   8.463  0.0371 -0.3925 -0.6470
    2CHL1   C27  145   5.105   3.700   8.561  0.6390  0.2134  0.5673
    2CHL1  H27A  146   5.177   3.696   8.645  0.6990  0.9118  0.5522
    2CHL1  H27B  147   5.007   3.654   8.588  0.3668  0.3035 -0.2312
    2CHL1  H27C  148   5.149   3.652   8.471 -3.5677  0.2889 -1.7940
    3CHL1    C3  149   5.781   5.174  10.346 -0.6892 -0.0172 -0.1324
    3CHL1    H3  150   5.711   5.235  10.285 -0.5333 -2.2587 -2.7561
    3CHL1    O3  151   5.777   5.217  10.482  0.1548  0.1639  0.7455
    3CHL1   H3'  152   5.859   5.173  10.508  1.2754  1.1349 -0.9676
    3CHL1    C4  153   5.766   5.023  10.332 -0.5300  0.1230 -0.3791
    3CHL1   H4A  154   5.849   4.967  10.382  0.8564  2.9025  0.6766
    3CHL1   H4B  155   5.669   5.005  10.383  1.2102 -1.4244  2.6577
    3CHL1    C5  156   5.757   4.973  10.193 -0.6271 -0.1062  0.6422
    3CHL1    C6  157   5.655   4.909  10.143  0.9073 -0.2706  0.2022
    3CHL1    H6  158   5.570   4.886  10.209  1.0894 -0.1778  0.4699
    3CHL1    C7  159   5.649   4.846  10.011  0.2076  0.7257  0.0231
    3CHL1   H7A  160   5.606   4.743  10.012  0.1336  0.6921  2.8692
    3CHL1   H7B  161   5.571   4.904   9.957 -0.9603 -0.2356  0.6100
    3CHL1    C8  162   5.777   4.861   9.930  0.7859  1.1935 -0.1453
    3CHL1    H8  163   5.851   4.780   9.946 -0.6292 -0.1075 -0.0248
    3CHL1   C14  164   5.742   4.854   9.778 -0.2437  0.2547  0.1348
    3CHL1   H14  165   5.679   4.943   9.757  0.1424  0.1156 -1.7813
    3CHL1   C15  166   5.658   4.743   9.722  0.0833 -0.1779  0.0800
    3CHL1  H15A  167   5.695   4.651   9.773  1.1328  1.2635  2.0561
    3CHL1  H15B  168   5.558   4.771   9.760  0.4417  1.4939 -0.1640
    3CHL1   C16  169   5.684   4.748   9.564  0.0181  0.2257 -1.0375
    3CHL1  H16A  170   5.710   4.645   9.532  0.4324 -0.3230  0.9350
    3CHL1  H16B  171   5.587   4.793   9.532  0.6357  3.2477  0.8864
    3CHL1   C17  172   5.795   4.853   9.549 -0.2723  0.4342 -0.0513
    3CHL1   H17  173   5.752   4.954   9.532 -0.7489  0.7073  2.3814
    3CHL1   C13  174   5.866   4.869   9.685 -0.1477  1.5365 -0.2177
    3CHL1   C18  175   5.960   4.742   9.707  0.0867  0.4055 -0.0105
    3CHL1  H18A  176   6.052   4.776   9.655 -0.8595  1.3074 -1.1691
    3CHL1  H18B  177   5.987   4.727   9.814 -3.4586  0.9057  1.0966
    3CHL1  H18C  178   5.918   4.649   9.663 -0.1585  1.5941 -2.4873
    3CHL1   C12  179   5.930   4.997   9.714 -0.3584  0.1445 -0.3831
    3CHL1  H12A  180   6.024   5.013   9.656  0.3397  1.0250  0.9550
    3CHL1  H12B  181   5.861   5.077   9.682 -2.3660 -0.9890  0.9548
    3CHL1   C11  182   5.972   5.007   9.856 -0.5597  0.2493  0.1775
    3CHL1  H11A  183   6.063   4.949   9.883  0.3248  2.3911  2.1934
    3CHL1  H11B  184   6.002   5.114   9.865 -0.0599  0.0509  0.9796
    3CHL1    C9  185   5.851   4.990   9.955 -0.4982  0.4512  0.1129
    3CHL1    H9  186   5.786   5.072   9.919  0.2272  1.7248  1.5684
    3CHL1   C10  187   5.882   5.012  10.106 -0.1516 -0.1333  0.3685
    3CHL1   C19  188   6.005   4.922  10.153 -0.0996  0.3092  0.3853
    3CHL1  H19A  189   5.996   4.812  10.142 -1.5243  0.4234  0.1874
    3CHL1  H19B  190   6.088   4.951  10.085 -0.0471  0.6142  0.5743
    3CHL1  H19C  191   6.036   4.940  10.258  0.7575 -0.6828  0.3136
    3CHL1    C1  192   5.909   5.161  10.121  0.0778  0.5167 -0.3284
    3CHL1   H1A  193   6.006   5.187  10.073  1.6811 -3.1816  0.5554
    3CHL1   H1B  194   5.830   5.224  10.074  1.6906  2.1159 -0.9951
    3CHL1    C2  195   5.917   5.208  10.269 -0.5784 -0.4101  0.5047
    3CHL1   H2A  196   5.924   5.319  10.266  2.5611 -0.4685 -3.8224
    3CHL1   H2B  197   6.003   5.153  10.314 -1.8719 -2.3593  0.6903
    3CHL1   C20  198   5.885   4.816   9.420  0.3555 -0.1073 -0.1293
    3CHL1   H20  199   5.921   4.713   9.443 -1.7216 -1.4569 -2.3756
    3CHL1   C21  200   6.008   4.904   9.412  0.3466 -0.0876  0.5988
    3CHL1  H21A  201   6.066   4.902   9.506 -1.3607  2.0324  1.8066
    3CHL1  H21B  202   5.982   5.011   9.401  0.1639 -0.0349  1.4436
    3CHL1  H21C  203   6.075   4.885   9.326  0.3290  2.2855  0.0032
    3CHL1   C22  204   5.803   4.824   9.283 -0.5487 -0.6560  0.3994
    3CHL1  H22A  205   5.730   4.741   9.293 -1.8799  0.0231 -2.6325
    3CHL1  H22B  206   5.745   4.918   9.278 -0.7588 -0.8418 -2.6434
    3CHL1   C23  207   5.884   4.812   9.152 -0.1672  0.4850 -0.4778
    3CHL1  H23A  208   5.947   4.903   9.144  1.2296 -0.5095 -1.1714
    3CHL1  H23B  209   5.955   4.727   9.156 -0.1745  0.4820 -0.4070
    3CHL1   C24  210   5.789   4.794   9.029 -0.2323  0.2879  0.3979
    3CHL1  H24A  211   5.714   4.713   9.044  0.7043 -0.5424  0.6653
    3CHL1  H24B  212   5.727   4.883   9.002  0.6142  0.0125 -2.8451
    3CHL1   C25  213   5.870   4.744   8.908  0.4902 -0.3834  0.1170
    3CHL1   H25  214   5.947   4.818   8.877  0.1238 -0.3167 -0.6666
    3CHL1   C26  215   5.925   4.603   8.912 -0.1054  0.5632  0.0012
    3CHL1  H26A  216   5.974   4.590   8.813 -1.2694  0.0634 -0.5227
    3CHL1  H26B  217   6.012   4.599   8.982  0.5732  4.9495 -0.3166
    3CHL1  H26C  218   5.855   4.519   8.933 -0.7241  0.4239 -2.3805
    3CHL1   C27  219   5.773   4.743   8.790  0.1818 -0.5988  0.1453
    3CHL1  H27A  220   5.701   4.661   8.812 -0.1635 -0.6666 -1.1058
    3CHL1  H27B  221   5.713   4.836   8.778 -1.4312 -1.2485  2.4761
    3CHL1  H27C  222   5.827   4.737   8.693 -0.8878  0.2979 -0.5466
    4CHL1    C3  223   4.651   1.319  10.400  0.1273 -0.0546  0.8105
    4CHL1    H3  224   4.553   1.371  10.399 -0.1880 -0.6316 -0.5265
    4CHL1    O3  225   4.663   1.241  10.515  0.1869  0.3673  0.4294
    4CHL1   H3'  226   4.748   1.197  10.504 -0.0640  0.1785 -0.8757
    4CHL1    C4  227   4.673   1.230  10.274 -0.6245 -0.0558 -0.2077
    4CHL1   H4A  228   4.762   1.163  10.267  0.3297  0.9584  1.3279
    4CHL1   H4B  229   4.594   1.152  10.271  0.6553 -1.3895 -0.3233
    4CHL1    C5  230   4.673   1.305  10.150 -0.9314  0.4948 -0.0488
    4CHL1    C6  231   4.579   1.281  10.056  0.1637 -0.3986  0.3176
    4CHL1    H6  232   4.507   1.201  10.076  0.7998 -0.3696  3.1714
    4CHL1    C7  233   4.564   1.366   9.933 -0.2311  0.5167 -0.1044
    4CHL1   H7A  234   4.525   1.301   9.851  1.5231 -0.7496 -0.0068
    4CHL1   H7B  235   4.480   1.433   9.959  0.7792  1.1713  1.6504
    4CHL1    C8  236   4.689   1.450   9.901 -0.6098 -0.0030 -0.8059
    4CHL1    H8  237   4.764   1.380   9.858 -1.4006 -0.6661 -1.1451
    4CHL1   C14  238   4.657   1.548   9.792 -0.3419 -0.5063  0.2869
    4CHL1   H14  239   4.580   1.620   9.827  0.8281  1.3610 -0.8347
    4CHL1   C15  240   4.588   1.486   9.667 -0.2218 -0.4875 -0.0625
    4CHL1  H15A  241   4.620   1.380   9.652 -2.3514 -1.2015  0.0237
    4CHL1  H15B  242   4.479   1.471   9.682 -0.2822 -3.1691 -2.2875
    4CHL1   C16  243   4.629   1.587   9.561  0.6463 -0.4422 -0.0129
    4CHL1  H16A  244   4.681   1.537   9.477 -1.2589 -0.5609 -1.1798
    4CHL1  H16B  245   4.542   1.631   9.508  2.3915  0.2153 -2.4689
    4CHL1   C17  246   4.707   1.696   9.625 -0.1005 -0.1160  0.3256
    4CHL1   H17  247   4.626   1.761   9.667  0.8788  1.2088  0.2444
    4CHL1   C13  248   4.780   1.632   9.751  0.3593  0.6119  0.6586
    4CHL1   C18  249   4.901   1.551   9.691  0.8638 -0.1593 -0.2787
    4CHL1  H18A  250   4.986   1.612   9.655  1.8027 -1.1098  0.2643
    4CHL1  H18B  251   4.946   1.493   9.775  0.7947  3.2829  2.3888
    4CHL1  H18C  252   4.863   1.475   9.620  0.2817 -0.5417  0.4142
    4CHL1   C12  253   4.810   1.723   9.872  0.2319 -0.5476 -0.6240
    4CHL1  H12A  254   4.900   1.783   9.849 -0.9725  1.3222 -0.7370
    4CHL1  H12B  255   4.725   1.793   9.889  0.1944 -0.4322 -1.2830
    4CHL1   C11  256   4.839   1.637   9.993  0.2299 -0.2136  0.5728
    4CHL1  H11A  257   4.938   1.592   9.971  1.2088  2.1033 -0.0476
    4CHL1  H11B  258   4.853   1.699  10.083  0.2729  0.2555  0.2451
    4CHL1    C9  259   4.734   1.525  10.025 -0.2182 -0.5343 -0.0685
    4CHL1    H9  260   4.652   1.589  10.064  0.5480 -0.3031  1.2064
    4CHL1   C10  261   4.766   1.431  10.137 -0.1382  0.5962 -0.1977
    4CHL1   C19  262   4.905   1.374  10.121  0.5557  0.0571  0.8414
    4CHL1  H19A  263   4.980   1.455  10.137 -0.4637  1.3281 -0.5759
    4CHL1  H19B  264   4.919   1.294  10.197 -2.4385  1.4393  3.0243
    4CHL1  H19C  265   4.932   1.331  10.022 -3.0630  0.9196 -0.6683
    4CHL1    C1  266   4.753   1.514  10.272 -0.1255  0.4579  0.3659
    4CHL1   H1A  267   4.852   1.563  10.281  2.0293 -3.5604  0.6187
    4CHL1   H1B  268   4.663   1.579  10.263 -0.5656 -0.3690 -1.5766
    4CHL1    C2  269   4.750   1.430  10.406  0.3049  0.0855  0.0690
    4CHL1   H2A  270   4.743   1.501  10.492 -0.1713  0.3847 -0.2135
    4CHL1   H2B  271   4.848   1.379  10.419  1.2714  1.8308 -0.1224
    4CHL1   C20  272   4.778   1.780   9.517 -0.5445  0.1244 -0.1421
    4CHL1   H20  273   4.855   1.722   9.462 -1.8383 -0.1910 -1.6942
    4CHL1   C21  274   4.849   1.891   9.598 -0.2481  0.1679  0.8028
    4CHL1  H21A  275   4.770   1.949   9.650 -2.0874 -1.0734 -0.5015
    4CHL1  H21B  276   4.897   1.965   9.530 -1.0682  0.8071  0.9039
    4CHL1  H21C  277   4.930   1.865   9.670 -1.4903 -1.5350  1.6383
    4CHL1   C22  278   4.693   1.841   9.411  0.5520 -0.1987  0.8331
    4CHL1  H22A  279   4.642   1.755   9.363 -0.3721  0.6636  0.2420
    4CHL1  H22B  280   4.616   1.907   9.457  0.7458  0.1351  0.6819
    4CHL1   C23  281   4.762   1.928   9.299  0.6342 -0.2339 -0.3326
    4CHL1  H23A  282   4.679   1.957   9.231  0.8180  1.8344  0.2466
    4CHL1  H23B  283   4.785   2.026   9.346  1.7714 -1.1766  1.1634
    4CHL1   C24  284   4.890   1.880   9.242  0.1489 -0.1708  0.3450
    4CHL1  H24A  285   4.964   1.872   9.324 -0.4354  1.0661  1.0391
    4CHL1  H24B  286   4.872   1.781   9.197  3.4471 -1.2148  1.0548
    4CHL1   C25  287   4.950   1.974   9.130 -0.2086 -0.4026  1.0286
    4CHL1   H25  288   4.954   2.076   9.172 -1.4182 -0.4344  1.2676
    4CHL1   C26  289   5.087   1.924   9.078 -0.8227 -0.1276 -0.0289
    4CHL1  H26A  290   5.150   1.899   9.166  0.2519 -2.4155 -1.3378
    4CHL1  H26B  291   5.083   1.825   9.027 -2.0339 -1.2275  2.0601
    4CHL1  H26C  292   5.143   2.003   9.024 -1.3112  0.0353 -0.2971
    4CHL1   C27  293   4.862   1.972   9.007 -0.1214 -1.3738 -0.0164
    4CHL1  H27A  294   4.846   1.869   8.968 -0.1134 -1.3941  0.0349
    4CHL1  H27B  295   4.765   2.017   9.036  0.4990 -0.7347  1.0951
    4CHL1  H27C  296   4.918   2.022   8.925 -1.1379 -1.7786 -0.9955
    5CHL1    C3  297   5.336   5.261  10.282 -0.4117  1.1843 -0.3028
    5CHL1    H3  298   5.443   5.263  10.313 -0.1390  1.1870 -1.2143
    5CHL1    O3  299   5.265   5.291  10.401 -0.5993  0.7410  0.6185
    5CHL1   H3'  300   5.317   5.358  10.445 -1.5612  0.0945  2.8919
    5CHL1    C4  301   5.313   5.375  10.179 -0.6094 -0.0251 -0.9617
    5CHL1   H4A  302   5.206   5.403  10.176 -0.2535  1.8398  1.2916
    5CHL1   H4B  303   5.364   5.464  10.221 -0.8988 -0.3322  0.0625
    5CHL1    C5  304   5.365   5.351  10.043  0.1353  0.0938  0.3770
    5CHL1    C6  305   5.438   5.451   9.983  0.3599 -0.4516  0.8958
    5CHL1    H6  306   5.443   5.542  10.044 -0.8701  1.9971 -2.3042
    5CHL1    C7  307   5.494   5.442   9.845  0.0165  0.2272  0.7125
    5CHL1   H7A  308   5.478   5.531   9.781  0.7956 -1.0111 -1.2748
    5CHL1   H7B  309   5.604   5.439   9.859 -0.0013 -0.0318  0.8058
    5CHL1    C8  310   5.432   5.322   9.770  0.3992 -0.2036 -0.1165
    5CHL1    H8  311   5.328   5.359   9.753  0.3688 -0.3191 -0.1889
    5CHL1   C14  312   5.499   5.300   9.637 -0.6963 -0.2317 -0.1053
    5CHL1   H14  313   5.603   5.265   9.657 -0.6542  0.3254  0.6881
    5CHL1   C15  314   5.520   5.421   9.542 -0.0402 -0.1875 -0.4279
    5CHL1  H15A  315   5.431   5.487   9.534 -1.6887 -2.2681 -0.0772
    5CHL1  H15B  316   5.607   5.485   9.568  0.6752 -1.4653  0.4518
    5CHL1   C16  317   5.552   5.358   9.403 -0.6475 -0.2456 -0.2076
    5CHL1  H16A  318   5.483   5.401   9.327 -0.9224  0.2862  0.3332
    5CHL1  H16B  319   5.660   5.376   9.384 -0.5704 -0.6005 -0.1133
    5CHL1   C17  320   5.517   5.206   9.415  0.0495 -0.6524 -0.4198
    5CHL1   H17  321   5.610   5.150   9.437 -0.2854 -1.6067 -1.3707
    5CHL1   C13  322   5.433   5.188   9.546 -0.0211 -0.7526  0.4621
    5CHL1   C18  323   5.287   5.234   9.517  0.2044 -0.5305 -0.3162
    5CHL1  H18A  324   5.238   5.180   9.433 -1.3010  0.7932 -0.3208
    5CHL1  H18B  325   5.223   5.223   9.607 -3.2767 -2.3990 -2.7410
    5CHL1  H18C  326   5.270   5.340   9.489 -3.5554 -0.0724  2.8553
    5CHL1   C12  327   5.454   5.060   9.628  0.7940  0.4198 -0.2911
    5CHL1  H12A  328   5.414   4.984   9.558  0.1278 -0.1978  0.7229
    5CHL1  H12B  329   5.562   5.032   9.622  0.2893 -1.9899  0.5126
    5CHL1   C11  330   5.394   5.067   9.764  0.0077  0.7296  0.5406
    5CHL1  H11A  331   5.285   5.072   9.744 -0.0212  0.3761  0.5980
    5CHL1  H11B  332   5.415   4.975   9.823 -2.0373 -0.8968 -1.1566
    5CHL1    C9  333   5.430   5.192   9.850  0.4078 -0.1926 -0.1346
    5CHL1    H9  334   5.536   5.188   9.882 -0.0560 -0.1128  1.4898
    5CHL1   C10  335   5.342   5.209   9.980 -0.1178  0.0556 -0.0185
    5CHL1   C19  336   5.195   5.186   9.942  0.2718  0.0087 -0.1246
    5CHL1  H19A  337   5.176   5.078   9.922 -0.2604  0.1026 -0.1292
    5CHL1  H19B  338   5.124   5.227  10.016 -0.2690  0.5674 -0.9361
    5CHL1  H19C  339   5.176   5.228   9.841 -1.3764 -2.6502 -1.0259
    5CHL1    C1  340   5.377   5.103  10.088 -0.5981  0.0407 -0.0507
    5CHL1   H1A  341   5.344   5.002  10.055  0.9903 -0.9105  1.1553
    5CHL1   H1B  342   5.486   5.107  10.108 -0.9466 -0.2258  2.0675
    5CHL1    C2  343   5.308   5.124  10.221  0.1920 -0.3332 -0.5099
    5CHL1   H2A  344   5.331   5.056  10.307 -0.1643  0.8567  0.5649
    5CHL1   H2B  345   5.197   5.118  10.227 -0.0928  2.7728 -0.9449
    5CHL1   C20  346   5.454   5.150   9.282  0.3525  0.0534  0.7498
    5CHL1   H20  347   5.373   5.217   9.248  1.4279  1.3183  0.6106
    5CHL1   C21  348   5.420   5.002   9.294  0.6668  0.3426  0.4408
    5CHL1  H21A  349   5.500   4.939   9.339  0.2447 -0.6350 -0.1457
    5CHL1  H21B  350   5.405   4.962   9.191  1.3008  0.0573  0.4514
    5CHL1  H21C  351   5.321   4.987   9.342 -0.6312  1.1485 -1.8126
    5CHL1   C22  352   5.571   5.161   9.177  0.1469  0.3173  0.1673
    5CHL1  H22A  353   5.635   5.251   9.193  0.6906  0.0807 -0.6631
    5CHL1  H22B  354   5.640   5.075   9.173  2.5546  2.1497  0.0608
    5CHL1   C23  355   5.530   5.176   9.034  0.4123 -0.2461 -0.0228
    5CHL1  H23A  356   5.614   5.146   8.968  0.5247  1.5258 -0.7386
    5CHL1  H23B  357   5.447   5.108   9.004  0.8007 -0.5522 -0.4084
    5CHL1   C24  358   5.480   5.317   8.997 -0.3888 -0.0358 -0.8241
    5CHL1  H24A  359   5.383   5.341   9.045  0.3489  1.9183 -0.2340
    5CHL1  H24B  360   5.558   5.385   9.038  0.7228 -0.5867 -1.9686
    5CHL1   C25  361   5.469   5.346   8.847  0.3464  0.1679 -0.0005
    5CHL1   H25  362   5.458   5.457   8.838  1.5612  0.4498  1.4369
    5CHL1   C26  363   5.594   5.302   8.770  0.3080 -0.5083  0.2992
    5CHL1  H26A  364   5.593   5.190   8.771  0.4874 -0.5567 -1.3530
    5CHL1  H26B  365   5.593   5.334   8.664  0.7942 -1.4939 -0.0170
    5CHL1  H26C  366   5.685   5.347   8.816  0.2329  1.0506 -0.9959
    5CHL1   C27  367   5.343   5.280   8.784 -0.0126  0.2735 -0.0600
    5CHL1  H27A  368   5.342   5.301   8.675  0.4344 -1.6229 -0.4645
    5CHL1  H27B  369   5.346   5.170   8.793 -0.0530  0.1919 -0.9901
    5CHL1  H27C  370   5.257   5.326   8.837  1.9050  1.1305  2.5837
    6CHL1    C3  371   2.797   1.791  10.419 -0.5304  0.1055 -0.4529
    6CHL1    H3  372   2.869   1.707  10.426 -0.1612  0.4156 -0.5292
    6CHL1    O3  373   2.760   1.825  10.555 -0.0117  0.3363 -0.1913
    6CHL1   H3'  374   2.716   1.749  10.593  0.8036 -0.2133 -0.3466
    6CHL1    C4  375   2.853   1.911  10.343 -0.7043 -0.0208 -0.0058
    6CHL1   H4A  376   2.786   1.998  10.336 -0.8598 -0.0644  0.8769
    6CHL1   H4B  377   2.951   1.936  10.389  0.5663 -0.7437 -2.1389
    6CHL1    C5  378   2.890   1.873  10.199  0.6945  0.1761 -0.0541
    6CHL1    C6  379   3.010   1.880  10.150  0.1293 -1.4219 -0.0978
    6CHL1    H6  380   3.087   1.922  10.216 -1.0765 -0.8817  1.0153
    6CHL1    C7  381   3.057   1.858  10.009  0.9745  0.3281 -0.1641
    6CHL1   H7A  382   3.133   1.929   9.970 -0.6808  1.2807 -1.8297
    6CHL1   H7B  383   3.104   1.757  10.003 -0.0603 -0.1057 -1.4025
    6CHL1    C8  384   2.928   1.850   9.913 -0.0878 -0.0666 -0.4405
    6CHL1    H8  385   2.894   1.956   9.910  3.3569  1.2338  1.2771
    6CHL1   C14  386   2.969   1.792   9.773 -0.5540 -0.0823  0.4411
    6CHL1   H14  387   3.005   1.690   9.800 -0.2659  0.6620  3.1096
    6CHL1   C15  388   3.085   1.853   9.699  0.5832 -0.1673  0.5961
    6CHL1  H15A  389   3.095   1.964   9.702  1.5671 -0.2255 -0.1598
    6CHL1  H15B  390   3.179   1.814   9.743  0.1415 -2.4952 -0.3980
    6CHL1   C16  391   3.077   1.817   9.549  0.7333 -0.6079 -0.2657
    6CHL1  H16A  392   3.079   1.912   9.492  0.8264 -0.7623 -0.5238
    6CHL1  H16B  393   3.161   1.754   9.512  0.6671 -3.3654  3.6284
    6CHL1   C17  394   2.941   1.731   9.541  0.6668 -0.8024 -0.0831
    6CHL1   H17  395   2.962   1.625   9.564 -0.4467 -0.7557  1.2965
    6CHL1   C13  396   2.859   1.775   9.672  0.2164 -0.2130  0.3193
    6CHL1   C18  397   2.786   1.911   9.652  0.2971  0.0224  0.3099
    6CHL1  H18A  398   2.850   1.993   9.615 -0.8221  1.7833  2.0895
    6CHL1  H18B  399   2.692   1.898   9.595  1.1432 -1.0530 -0.9055
    6CHL1  H18C  400   2.743   1.950   9.747 -1.0959  0.3862 -0.4561
    6CHL1   C12  401   2.769   1.674   9.730  0.2734  0.2102  0.1145
    6CHL1  H12A  402   2.681   1.646   9.668  1.9209 -1.5715 -1.5767
    6CHL1  H12B  403   2.818   1.574   9.735 -2.8105 -1.3454  1.9832
    6CHL1   C11  404   2.714   1.719   9.870  0.2377  0.6845 -0.0629
    6CHL1  H11A  405   2.638   1.798   9.853  0.1830  0.4500 -0.9873
    6CHL1  H11B  406   2.660   1.628   9.906  2.0336  0.6314  2.6965
    6CHL1    C9  407   2.820   1.760   9.980  0.9616  0.2504  0.3768
    6CHL1    H9  408   2.882   1.673  10.010 -0.8818 -0.6801  1.6744
    6CHL1   C10  409   2.764   1.820  10.115 -0.6721 -0.7677  0.1127
    6CHL1   C19  410   2.664   1.932  10.090  0.8415  0.1418  0.6717
    6CHL1  H19A  411   2.629   1.975  10.187  1.4324  1.7043  0.2227
    6CHL1  H19B  412   2.695   2.011  10.018 -4.0415 -0.3226 -2.3750
    6CHL1  H19C  413   2.578   1.890  10.034  1.4453 -0.9920  0.5518
    6CHL1    C1  414   2.705   1.712  10.191  0.2343  0.4675 -0.7171
    6CHL1   H1A  415   2.616   1.669  10.138  1.0617 -2.2020 -0.0959
    6CHL1   H1B  416   2.765   1.619  10.182  1.7526  1.2177  1.1258
    6CHL1    C2  417   2.676   1.727  10.344 -0.3494  0.4757 -0.4363
    6CHL1   H2A  418   2.653   1.627  10.388 -2.5317  0.7369 -0.8744
    6CHL1   H2B  419   2.593   1.799  10.354 -2.3793 -1.9970  2.3861
    6CHL1   C20  420   2.873   1.746   9.404  0.4081 -0.0014 -0.1817
    6CHL1   H20  421   2.821   1.845   9.406  1.2788  0.4896 -1.0674
    6CHL1   C21  422   2.758   1.635   9.386  0.2034 -0.1952  0.0550
    6CHL1  H21A  423   2.699   1.659   9.295 -2.0218 -0.8350  1.2648
    6CHL1  H21B  424   2.678   1.633   9.463 -2.1089 -1.9011 -2.2126
    6CHL1  H21C  425   2.816   1.540   9.382  1.3308  0.4117  1.0355
    6CHL1   C22  426   2.965   1.747   9.273  1.0414 -0.1082  0.0479
    6CHL1  H22A  427   3.067   1.787   9.295  0.7510  1.0687 -0.6825
    6CHL1  H22B  428   2.994   1.643   9.248  1.4828  0.0904 -0.2676
    6CHL1   C23  429   2.918   1.819   9.148 -0.2605 -0.4678  0.3372
    6CHL1  H23A  430   2.901   1.928   9.167 -2.7192 -0.5789 -0.8285
    6CHL1  H23B  431   3.009   1.821   9.083 -1.1508  0.5810 -0.9445
    6CHL1   C24  432   2.799   1.753   9.078  0.3618 -0.0357  0.7663
    6CHL1  H24A  433   2.830   1.647   9.064  1.8518  0.6795 -2.0932
    6CHL1  H24B  434   2.710   1.770   9.142  0.6897  0.4146  1.1119
    6CHL1   C25  435   2.767   1.806   8.931  0.5801  0.4632  0.0393
    6CHL1   H25  436   2.676   1.748   8.906  1.0319  0.0470 -0.6809
    6CHL1   C26  437   2.737   1.953   8.930  0.5608 -0.1213  0.3561
    6CHL1  H26A  438   2.709   1.981   8.826 -1.1533  0.8339  1.0305
    6CHL1  H26B  439   2.644   1.968   8.989 -0.2508 -0.0791 -0.8948
    6CHL1  H26C  440   2.816   2.027   8.954 -1.4300  2.8630 -1.4919
    6CHL1   C27  441   2.877   1.781   8.827 -0.4356  0.0477  0.2702
    6CHL1  H27A  442   2.848   1.807   8.723 -0.3737 -1.0363 -0.0374
    6CHL1  H27B  443   2.965   1.844   8.849  0.9360 -0.2319 -3.5672
    6CHL1  H27C  444   2.914   1.676   8.822  0.4206  0.3676 -0.3800
    7CHL1    C3  445   2.075   5.882  10.516 -0.3554  0.1443 -0.5660
    7CHL1    H3  446   2.143   5.970  10.515  1.0729 -0.8196  2.0244
    7CHL1    O3  447   2.028   5.865  10.651  0.0888  0.3222  0.0794
    7CHL1   H3'  448   2.041   5.952  10.689 -0.1744 -0.0719  1.1205
    7CHL1    C4  449   1.961   5.910  10.420  0.6315  0.1225 -0.9184
    7CHL1   H4A  450   1.890   5.825  10.434  1.2023 -0.1742  0.3337
    7CHL1   H4B  451   1.908   5.998  10.461  0.4918 -0.0940 -0.6287
    7CHL1    C5  452   2.019   5.929  10.269  0.2892  0.5259 -0.1484
    7CHL1    C6  453   1.996   6.039  10.197  0.6048 -0.1840 -0.4490
    7CHL1    H6  454   1.930   6.115  10.241 -1.1077 -2.6922  1.5923
    7CHL1    C7  455   2.047   6.066  10.060  0.0862 -0.0422 -0.0680
    7CHL1   H7A  456   1.965   6.107   9.997  0.5292 -0.3021 -0.8345
    7CHL1   H7B  457   2.126   6.143  10.042  0.9228 -1.0074 -0.6036
    7CHL1    C8  458   2.098   5.941   9.989 -0.4993  0.1926  0.3078
    7CHL1    H8  459   2.003   5.888   9.967 -0.3246  0.8314 -2.4565
    7CHL1   C14  460   2.173   5.965   9.856  0.0122 -0.8604  0.3549
    7CHL1   H14  461   2.269   6.016   9.882 -0.4704 -0.8638  2.3235
    7CHL1   C15  462   2.105   6.043   9.742 -0.0929 -0.3245  0.3861
    7CHL1  H15A  463   1.995   6.035   9.734 -0.0023 -0.9772 -0.3302
    7CHL1  H15B  464   2.136   6.148   9.763  1.8670 -0.6467 -0.6015
    7CHL1   C16  465   2.173   6.006   9.617  0.2769  0.0114  1.0572
    7CHL1  H16A  466   2.098   5.955   9.552  0.2233 -1.1114  1.9708
    7CHL1  H16B  467   2.215   6.092   9.560  0.0473 -0.0336  0.8129
    7CHL1   C17  468   2.277   5.894   9.661 -0.9412 -0.0088 -0.2347
    7CHL1   H17  469   2.362   5.958   9.693  0.1863 -0.6636 -1.8007
    7CHL1   C13  470   2.218   5.834   9.792 -0.5575 -0.0486  0.2151
    7CHL1   C18  471   2.113   5.729   9.751  0.9496  0.5687  0.5295
    7CHL1  H18A  472   2.036   5.780   9.690 -1.5168  1.1939  3.8979
    7CHL1  H18B  473   2.144   5.639   9.693 -1.7195  0.5966 -1.0996
    7CHL1  H18C  474   2.057   5.696   9.841  0.4170  0.0179  0.0124
    7CHL1   C12  475   2.312   5.754   9.886  0.5476 -0.0492  0.6607
    7CHL1  H12A  476   2.350   5.656   9.848  0.8258 -1.1224  3.4775
    7CHL1  H12B  477   2.393   5.823   9.917  0.3972  0.8376 -0.7981
    7CHL1   C11  478   2.249   5.722  10.018  0.0335 -0.5583  0.3354
    7CHL1  H11A  479   2.179   5.635  10.014 -3.7030  2.2432  0.0347
    7CHL1  H11B  480   2.323   5.682  10.091  0.6843  2.0895  1.2083
    7CHL1    C9  481   2.176   5.845  10.079 -0.4258 -0.4911  0.0293
    7CHL1    H9  482   2.263   5.902  10.118  0.5267 -1.7938 -0.1247
    7CHL1   C10  483   2.101   5.817  10.211  0.4328 -0.3332 -0.3473
    7CHL1   C19  484   2.010   5.695  10.190  0.1594  0.1298  0.4201
    7CHL1  H19A  485   2.085   5.612  10.189 -0.0722 -0.0897 -0.8942
    7CHL1  H19B  486   1.942   5.689  10.277  0.2330 -0.7429  0.4248
    7CHL1  H19C  487   1.950   5.688  10.097  2.9603 -0.3590 -1.4811
    7CHL1    C1  488   2.207   5.772  10.317 -0.2214  0.0750 -0.1695
    7CHL1   H1A  489   2.241   5.669  10.294 -1.1697  0.3516 -3.1693
    7CHL1   H1B  490   2.298   5.835  10.311  0.2563 -0.4557  1.1857
    7CHL1    C2  491   2.149   5.760  10.457 -0.2856 -0.0924 -0.7513
    7CHL1   H2A  492   2.240   5.740  10.518 -0.9611  0.9118  0.6568
    7CHL1   H2B  493   2.082   5.672  10.470  0.7788 -0.6259  1.5397
    7CHL1   C20  494   2.332   5.803   9.544  1.1669 -0.3393 -0.0982
    7CHL1   H20  495   2.274   5.709   9.538 -0.6860  0.5925  1.8011
    7CHL1   C21  496   2.482   5.777   9.578  0.4138  0.0631 -0.3640
    7CHL1  H21A  497   2.533   5.708   9.506 -1.0260 -0.6809 -0.7143
    7CHL1  H21B  498   2.494   5.732   9.679  0.5475  2.6368  0.8288
    7CHL1  H21C  499   2.537   5.873   9.582 -1.6494  1.2725  1.1471
    7CHL1   C22  500   2.328   5.875   9.410  0.6334 -0.2265 -0.6419
    7CHL1  H22A  501   2.223   5.886   9.374  0.4172 -0.5539 -0.1238
    7CHL1  H22B  502   2.384   5.970   9.423  0.0286  0.5720 -3.2354
    7CHL1   C23  503   2.409   5.800   9.299  0.3898  0.2485 -0.3562
    7CHL1  H23A  504   2.515   5.787   9.331  0.1236  1.4546  1.1524
    7CHL1  H23B  505   2.372   5.696   9.302  2.1960 -0.4075  0.1290
    7CHL1   C24  506   2.411   5.873   9.161  0.3988 -0.5551 -0.1012
    7CHL1  H24A  507   2.306   5.908   9.151  0.1503 -1.2111  0.1733
    7CHL1  H24B  508   2.470   5.965   9.181 -1.0454  0.2306  0.7680
    7CHL1   C25  509   2.462   5.801   9.037  0.4060  0.3479  0.9744
    7CHL1   H25  510   2.569   5.783   9.061  0.2827 -0.2366  1.0892
    7CHL1   C26  511   2.394   5.654   9.018  0.7346 -0.0492 -0.2571
    7CHL1  H26A  512   2.392   5.610   9.120 -0.4971  0.2193 -0.1455
    7CHL1  H26B  513   2.292   5.672   8.978  0.1871 -2.4423 -0.0926
    7CHL1  H26C  514   2.449   5.591   8.945 -0.4269 -1.0986 -0.2802
    7CHL1   C27  515   2.433   5.893   8.918  0.4352  0.3215  1.3952
    7CHL1  H27A  516   2.330   5.936   8.911  0.4209  0.1143  0.0760
    7CHL1  H27B  517   2.511   5.972   8.915  0.2357  0.5233 -2.0965
    7CHL1  H27C  518   2.439   5.838   8.822 -3.1930  1.8771  0.1029
    8CHL1    C3  519   3.776   5.855  10.626 -0.2194 -0.0329  0.3367
    8CHL1    H3  520   3.880   5.872  10.591 -0.7730  1.1011 -0.8432
    8CHL1    O3  521   3.753   5.861  10.768 -0.2237  0.3709 -0.1597
    8CHL1   H3'  522   3.797   5.783  10.803 -0.3714  0.2994 -0.1358
    8CHL1    C4  523   3.681   5.964  10.567  0.4000  0.1461  0.3741
    8CHL1   H4A  524   3.582   5.954  10.616 -0.1567  2.1583 -0.2617
    8CHL1   H4B  525   3.720   6.065  10.594  0.1843  0.2123  0.4375
    8CHL1    C5  526   3.670   5.954  10.414 -0.3534  0.3172 -0.0731
    8CHL1    C6  527   3.721   6.055  10.338  1.1195  0.2376  1.4945
    8CHL1    H6  528   3.743   6.152  10.385 -0.6370  1.7898 -0.6890
    8CHL1    C7  529   3.707   6.046  10.188  0.0338 -0.3611 -0.6614
    8CHL1   H7A  530   3.676   6.143  10.145 -2.1206 -1.2690 -1.2674
    8CHL1   H7B  531   3.802   6.005  10.146  0.1283 -0.2280 -0.5773
    8CHL1    C8  532   3.600   5.942  10.150 -0.3161 -0.1253 -0.0266
    8CHL1    H8  533   3.497   5.972  10.178  0.1196  1.3439  0.0985
    8CHL1   C14  534   3.604   5.930  10.001  0.5770  0.5320  1.0694
    8CHL1   H14  535   3.705   5.899   9.968 -0.1908 -0.5630 -0.3709
    8CHL1   C15  536   3.574   6.054   9.918 -0.0620 -0.1233 -0.4341
    8CHL1  H15A  537   3.484   6.109   9.954  2.3159  2.0667  2.7828
    8CHL1  H15B  538   3.654   6.130   9.924 -1.7727  1.8162 -0.7708
    8CHL1   C16  539   3.551   5.997   9.772  0.3709  0.2648 -0.0837
    8CHL1  H16A  540   3.457   6.037   9.730  1.2180  1.9851 -0.4117
    8CHL1  H16B  541   3.639   6.021   9.709 -0.1791  4.1689  0.3807
    8CHL1   C17  542   3.541   5.842   9.793  0.4675 -0.2209  0.5148
    8CHL1   H17  543   3.644   5.803   9.780 -0.4393 -2.3698 -0.6078
    8CHL1   C13  544   3.512   5.819   9.941 -0.1478 -0.1808  0.1284
    8CHL1   C18  545   3.363   5.854   9.967  0.0357  0.4976 -0.4127
    8CHL1  H18A  546   3.343   5.953   9.922 -0.9399  0.6560  0.3437
    8CHL1  H18B  547   3.313   5.763   9.927  3.0100 -0.0681 -3.2385
    8CHL1  H18C  548   3.349   5.854  10.077  2.1241 -2.7330 -0.0091
    8CHL1   C12  549   3.560   5.687   9.999 -0.3993  0.1642 -0.1107
    8CHL1  H12A  550   3.494   5.607   9.958 -0.7163  0.2779  0.1747
    8CHL1  H12B  551   3.662   5.659   9.965 -1.2897 -0.7771 -2.2352
    8CHL1   C11  552   3.543   5.690  10.149 -0.0144  1.0064 -0.4331
    8CHL1  H11A  553   3.434   5.696  10.169 -0.5708 -1.3966 -2.2413
    8CHL1  H11B  554   3.569   5.594  10.196  2.2594  1.5557 -0.4792
    8CHL1    C9  555   3.621   5.808  10.214 -0.0273  0.1709  0.0688
    8CHL1    H9  556   3.728   5.783  10.197  0.4581  1.3193  1.2874
    8CHL1   C10  557   3.616   5.817  10.366  0.0147 -0.2581 -0.0031
    8CHL1   C19  558   3.468   5.797  10.418 -0.2995  0.0693 -0.3806
    8CHL1  H19A  559   3.457   5.828  10.524 -0.7335 -1.4268  0.0401
    8CHL1  H19B  560   3.407   5.866  10.357  1.1227  0.4217 -1.4342
    8CHL1  H19C  561   3.437   5.690  10.413  1.4721 -0.6561  2.1167
    8CHL1    C1  562   3.715   5.713  10.426  0.0639  0.1708 -0.4548
    8CHL1   H1A  563   3.677   5.616  10.387  0.7211 -0.2538 -0.0629
    8CHL1   H1B  564   3.813   5.723  10.375  0.9077  0.2189  1.1464
    8CHL1    C2  565   3.728   5.718  10.581  0.4406  0.1550 -0.2560
    8CHL1   H2A  566   3.816   5.655  10.603  0.4638 -0.7159 -2.5810
    8CHL1   H2B  567   3.637   5.686  10.638 -0.5311  0.2208 -1.7251
    8CHL1   C20  568   3.460   5.769   9.696  0.2399  0.3430  0.8696
    8CHL1   H20  569   3.356   5.807   9.707  0.1912  0.3854  0.2779
    8CHL1   C21  570   3.469   5.620   9.697 -0.6905  0.1583  0.5667
    8CHL1  H21A  571   3.446   5.584   9.594  0.9676  1.6409 -0.3919
    8CHL1  H21B  572   3.392   5.589   9.770 -2.1299  2.6617  0.2214
    8CHL1  H21C  573   3.572   5.589   9.726 -0.7870 -0.0804  0.6504
    8CHL1   C22  574   3.495   5.829   9.547 -0.8113  0.2314 -0.4259
    8CHL1  H22A  575   3.429   5.779   9.473  2.1281 -2.3344 -1.5515
    8CHL1  H22B  576   3.483   5.939   9.535  0.8581  0.5526  0.5456
    8CHL1   C23  577   3.640   5.811   9.487 -0.9087  0.1476 -0.3470
    8CHL1  H23A  578   3.706   5.858   9.563 -2.0623 -1.8311  2.0289
    8CHL1  H23B  579   3.669   5.705   9.474 -1.0658 -0.3662  2.6184
    8CHL1   C24  580   3.672   5.896   9.360 -0.6089  0.2098  0.0918
    8CHL1  H24A  581   3.655   6.000   9.396  0.2864  0.7822 -1.0442
    8CHL1  H24B  582   3.778   5.894   9.327  0.3199  0.2061  2.8540
    8CHL1   C25  583   3.584   5.878   9.239  0.7275  0.1690 -0.2075
    8CHL1   H25  584   3.479   5.852   9.263  1.0724 -0.9511  0.1808
    8CHL1   C26  585   3.585   6.006   9.163  0.1425  0.2614  0.3398
    8CHL1  H26A  586   3.515   5.990   9.078 -1.3811 -2.0681  1.8862
    8CHL1  H26B  587   3.553   6.093   9.225  0.4651  0.7991 -0.2421
    8CHL1  H26C  588   3.684   6.020   9.116  0.7599 -0.3092  1.4184
    8CHL1   C27  589   3.621   5.765   9.138 -0.0933  0.3121  0.4078
    8CHL1  H27A  590   3.552   5.751   9.051  0.6042 -2.4911  0.2163
    8CHL1  H27B  591   3.725   5.789   9.109  0.9257 -1.2381  2.5404
    8CHL1  H27C  592   3.625   5.670   9.195  1.2532 -0.0609 -0.2699
    9CHL1    C3  593   4.480   4.556  10.044 -0.5399 -0.1494 -0.1189
    9CHL1    H3  594   4.509   4.460   9.996 -3.3166 -0.6212 -1.0764
    9CHL1    O3  595   4.500   4.543  10.183  0.0997 -0.2060 -0.5427
    9CHL1   H3'  596   4.460   4.622  10.221 -0.4729 -0.3030 -0.9243
    9CHL1    C4  597   4.557   4.674   9.998 -0.2704 -0.1047  0.1150
    9CHL1   H4A  598   4.506   4.764  10.039  0.5793  1.5377 -2.2247
    9CHL1   H4B  599   4.658   4.664  10.042 -1.3243  0.7253  2.9469
    9CHL1    C5  600   4.560   4.677   9.847  0.4411  0.2298 -0.2428
    9CHL1    C6  601   4.674   4.665   9.779 -0.2146  0.3953 -0.6171
    9CHL1    H6  602   4.765   4.670   9.840 -1.5835  4.0922  1.3885
    9CHL1    C7  603   4.697   4.672   9.629 -0.8139  0.0780 -0.0261
    9CHL1   H7A  604   4.776   4.743   9.597 -0.3213 -1.1221 -1.6018
    9CHL1   H7B  605   4.734   4.569   9.608 -2.1178 -0.8802  1.9968
    9CHL1    C8  606   4.559   4.699   9.556  0.4738  0.2485 -0.7190
    9CHL1    H8  607   4.552   4.810   9.550  0.7525  0.4553  1.7702
    9CHL1   C14  608   4.569   4.630   9.421  0.7141  0.6885 -0.0736
    9CHL1   H14  609   4.565   4.520   9.434 -0.5961  0.6518 -0.5748
    9CHL1   C15  610   4.684   4.654   9.329  0.0363 -0.9206  0.6288
    9CHL1  H15A  611   4.724   4.758   9.326 -1.1376 -0.3617  2.5679
    9CHL1  H15B  612   4.769   4.600   9.374  1.4548  0.2914 -0.4797
    9CHL1   C16  613   4.640   4.623   9.180  0.3161 -0.3257 -0.4097
    9CHL1  H16A  614   4.650   4.719   9.125 -3.1245  2.8025  3.7809
    9CHL1  H16B  615   4.708   4.542   9.144  0.8899  0.2147 -0.5612
    9CHL1   C17  616   4.488   4.591   9.200 -0.2420 -0.4211  0.1588
    9CHL1   H17  617   4.483   4.481   9.214  4.0979 -0.8048  0.1069
    9CHL1   C13  618   4.447   4.657   9.334  0.3499 -0.4101  0.7448
    9CHL1   C18  619   4.430   4.807   9.299  0.1513 -0.5750 -0.9161
    9CHL1  H18A  620   4.404   4.860   9.393  0.9872 -2.8252  0.6720
    9CHL1  H18B  621   4.529   4.847   9.266  1.6088 -2.2859  1.0784
    9CHL1  H18C  622   4.346   4.819   9.228 -0.2977 -0.9907 -0.4649
    9CHL1   C12  623   4.325   4.604   9.407 -0.0029  1.1242  0.2909
    9CHL1  H12A  624   4.228   4.628   9.357 -0.9447 -2.5103  0.0503
    9CHL1  H12B  625   4.339   4.494   9.410  1.8262  1.3331  0.3000
    9CHL1   C11  626   4.309   4.661   9.550 -0.0694  0.7032  0.1463
    9CHL1  H11A  627   4.291   4.770   9.554 -0.2784  0.6311  2.8971
    9CHL1  H11B  628   4.227   4.610   9.605  0.6994  0.7473  1.3653
    9CHL1    C9  629   4.440   4.638   9.631  0.0666 -0.5184 -0.0459
    9CHL1    H9  630   4.453   4.528   9.642  1.4114 -0.5705 -1.8385
    9CHL1   C10  631   4.420   4.689   9.780 -0.4829  0.8042 -0.1553
    9CHL1   C19  632   4.376   4.838   9.792 -0.2337 -0.0144  0.0482
    9CHL1  H19A  633   4.456   4.897   9.742  1.0799 -2.4385 -0.8504
    9CHL1  H19B  634   4.288   4.871   9.734 -0.1787  2.3364  1.1549
    9CHL1  H19C  635   4.371   4.873   9.897 -0.1726  2.0391 -0.5942
    9CHL1    C1  636   4.317   4.594   9.853  0.0081 -0.0458 -0.1197
    9CHL1   H1A  637   4.216   4.629   9.824 -0.2054  1.0579  1.7994
    9CHL1   H1B  638   4.323   4.490   9.814  2.9595  0.0039 -0.0430
    9CHL1    C2  639   4.333   4.595  10.006 -0.3225  0.5651  0.5528
    9CHL1   H2A  640   4.272   4.513  10.049 -0.1447  0.5312  0.7456
    9CHL1   H2B  641   4.300   4.688  10.057 -2.2535 -0.0027  0.4028
    9CHL1   C20  642   4.415   4.612   9.059 -0.6171 -0.3087 -0.1710
    9CHL1   H20  643   4.419   4.719   9.032 -0.0167  0.1247  1.5769
    9CHL1   C21  644   4.271   4.570   9.071  0.2181 -0.0817 -0.3898
    9CHL1  H21A  645   4.218   4.628   9.149 -0.9623 -2.2640  0.4986
    9CHL1  H21B  646   4.264   4.460   9.084 -1.6102  0.1567  1.0683
    9CHL1  H21C  647   4.220   4.601   8.977 -0.5001 -0.5889 -0.1706
    9CHL1   C22  648   4.489   4.534   8.941  0.1174  0.4935  0.4971
    9CHL1  H22A  649   4.593   4.571   8.936 -0.2032  1.5667  1.4910
    9CHL1  H22B  650   4.487   4.426   8.969 -0.5374  0.7349  1.4227
    9CHL1   C23  651   4.408   4.545   8.811  0.0554 -0.2572  0.5859
    9CHL1  H23A  652   4.461   4.483   8.736 -0.4772 -1.1857  0.9520
    9CHL1  H23B  653   4.302   4.509   8.817 -0.8296  2.0821  0.0527
    9CHL1   C24  654   4.397   4.687   8.752  0.4463  0.0822 -1.2624
    9CHL1  H24A  655   4.346   4.687   8.654  0.1230 -0.1110 -1.0976
    9CHL1  H24B  656   4.317   4.731   8.816  2.1799 -0.6505  1.5933
    9CHL1   C25  657   4.521   4.775   8.748 -0.2414 -0.0379  0.6809
    9CHL1   H25  658   4.561   4.786   8.851  2.8456  0.2197 -0.4471
    9CHL1   C26  659   4.630   4.710   8.660 -0.6516  0.7722 -0.1973
    9CHL1  H26A  660   4.585   4.682   8.562 -1.9457 -1.4317  0.9449
    9CHL1  H26B  661   4.726   4.762   8.638  0.3002 -0.1876  1.4685
    9CHL1  H26C  662   4.661   4.617   8.711 -0.9569  0.3176 -0.8322
    9CHL1   C27  663   4.488   4.909   8.693 -0.6417  0.5871  0.0325
    9CHL1  H27A  664   4.573   4.981   8.686  0.1538 -0.2472  0.7384
    9CHL1  H27B  665   4.444   4.904   8.591 -0.6844  1.9608 -0.0369
    9CHL1  H27C  666   4.417   4.962   8.759 -3.7629 -4.3002  1.1203
   10CHL1    C3  667   2.015   2.469  10.073  0.6304  1.2061  0.1829
   10CHL1    H3  668   2.086   2.391  10.038 -1.0937 -0.3742  0.0619
   10CHL1    O3  669   2.026   2.486  10.213  0.1808 -0.0867  0.4718
   10CHL1   H3'  670   1.943   2.515  10.251 -0.2824 -0.8690  0.0981
   10CHL1    C4  671   2.032   2.597   9.991 -0.5504 -0.0317  0.4155
   10CHL1   H4A  672   1.946   2.655  10.030 -2.3617 -2.1643 -0.2369
   10CHL1   H4B  673   2.122   2.652  10.026  0.5764 -2.1905  1.0688
   10CHL1    C5  674   2.021   2.579   9.842  0.2803  0.7330  0.1450
   10CHL1    C6  675   2.122   2.601   9.761 -0.2871 -0.7115  0.4349
   10CHL1    H6  676   2.220   2.640   9.794 -0.5428  2.0746 -1.7610
   10CHL1    C7  677   2.112   2.578   9.608  0.3060 -0.2363  0.0553
   10CHL1   H7A  678   2.143   2.668   9.552 -0.3264 -1.5991 -2.6666
   10CHL1   H7B  679   2.177   2.497   9.567  0.3495 -0.5883  0.7913
   10CHL1    C8  680   1.967   2.559   9.558 -0.5986  0.1683 -0.1979
   10CHL1    H8  681   1.914   2.656   9.561 -0.6073  0.1289  1.9566
   10CHL1   C14  682   1.959   2.520   9.411 -0.8685  0.4313  0.4130
   10CHL1   H14  683   2.022   2.429   9.406  1.5624  1.9398  1.5869
   10CHL1   C15  684   2.020   2.613   9.308 -0.4063  0.3672  0.2001
   10CHL1  H15A  685   1.971   2.707   9.342  2.0021  0.6160  3.5299
   10CHL1  H15B  686   2.131   2.623   9.318 -0.3641  0.2490 -0.1293
   10CHL1   C16  687   1.974   2.557   9.170 -0.8819  0.0688  0.1748
   10CHL1  H16A  688   1.938   2.642   9.108 -2.1550 -0.5983 -0.0331
   10CHL1  H16B  689   2.055   2.512   9.108 -3.1916 -1.3996 -1.9444
   10CHL1   C17  690   1.858   2.463   9.204 -0.8319  0.2131  0.8760
   10CHL1   H17  691   1.902   2.361   9.198  0.8039  0.8811  0.7764
   10CHL1   C13  692   1.828   2.488   9.356 -0.0432  1.6299 -0.4081
   10CHL1   C18  693   1.724   2.599   9.375 -0.4340 -0.2750  0.0579
   10CHL1  H18A  694   1.737   2.684   9.305  0.8680  1.1350  1.9273
   10CHL1  H18B  695   1.625   2.557   9.345 -0.5959  0.4870 -0.4886
   10CHL1  H18C  696   1.720   2.636   9.479  0.5261 -0.0244  0.0135
   10CHL1   C12  697   1.784   2.362   9.435  0.4184 -0.1038  0.2790
   10CHL1  H12A  698   1.684   2.324   9.408 -0.0690  0.9206  0.6032
   10CHL1  H12B  699   1.862   2.283   9.433  1.6433  1.0630  0.0050
   10CHL1   C11  700   1.775   2.396   9.583  0.7110  0.5791 -0.2002
   10CHL1  H11A  701   1.689   2.467   9.592 -0.9395 -1.1678 -1.3871
   10CHL1  H11B  702   1.743   2.300   9.628  0.7600  0.4072 -0.5298
   10CHL1    C9  703   1.899   2.460   9.651 -0.4956  0.5546 -0.4141
   10CHL1    H9  704   1.971   2.375   9.650  1.0708  1.8491 -0.7314
   10CHL1   C10  705   1.890   2.516   9.795  0.1196 -0.3262  0.3330
   10CHL1   C19  706   1.784   2.626   9.810 -0.8746 -0.3734 -0.4312
   10CHL1  H19A  707   1.680   2.593   9.795 -0.9360 -1.2656  1.6534
   10CHL1  H19B  708   1.772   2.661   9.915 -0.3764 -2.4868  0.3760
   10CHL1  H19C  709   1.804   2.720   9.754  2.7884 -0.7142  0.0112
   10CHL1    C1  710   1.845   2.393   9.882  0.5253 -0.3177  0.0461
   10CHL1   H1A  711   1.746   2.357   9.847  1.4804 -0.4910 -2.6504
   10CHL1   H1B  712   1.915   2.311   9.853 -0.8071 -1.4302 -0.1415
   10CHL1    C2  713   1.864   2.417  10.042  0.7599 -0.8710  0.2874
   10CHL1   H2A  714   1.850   2.321  10.097  3.8776 -0.4840  2.0055
   10CHL1   H2B  715   1.790   2.496  10.064  0.8022  0.4184 -3.6143
   10CHL1   C20  716   1.744   2.475   9.105  0.0544  0.3723 -0.3046
   10CHL1   H20  717   1.691   2.571   9.124 -0.0876 -0.1340  2.2157
   10CHL1   C21  718   1.641   2.363   9.118 -0.4763 -0.1629 -0.4402
   10CHL1  H21A  719   1.554   2.355   9.050 -0.3942 -0.2054 -0.5415
   10CHL1  H21B  720   1.599   2.359   9.220  0.2761 -3.0232 -0.1731
   10CHL1  H21C  721   1.693   2.265   9.115 -1.0948 -0.6187  1.9274
   10CHL1   C22  722   1.805   2.467   8.952  0.2890 -0.1758 -0.3771
   10CHL1  H22A  723   1.898   2.525   8.938  2.9422 -4.2497 -1.1181
   10CHL1  H22B  724   1.828   2.359   8.937 -1.5890 -0.7068  0.1675
   10CHL1   C23  725   1.688   2.495   8.856  0.0449  0.0403 -0.4926
   10CHL1  H23A  726   1.617   2.410   8.862  0.5774 -0.2818  2.4524
   10CHL1  H23B  727   1.638   2.588   8.889  1.7306  0.8616 -0.1267
   10CHL1   C24  728   1.737   2.492   8.714 -0.1458  0.2949 -0.6855
   10CHL1  H24A  729   1.795   2.584   8.692 -1.4972  1.6912  1.2410
   10CHL1  H24B  730   1.809   2.408   8.709 -0.2804  0.1083  0.3220
   10CHL1   C25  731   1.618   2.461   8.611  0.0870 -0.1402  0.1312
   10CHL1   H25  732   1.558   2.380   8.659  0.8332 -0.4396  0.5713
   10CHL1   C26  733   1.530   2.586   8.612 -0.8619 -0.0079 -0.3925
   10CHL1  H26A  734   1.570   2.675   8.560 -0.9774 -0.0082 -0.4825
   10CHL1  H26B  735   1.437   2.563   8.556 -0.1346 -2.5132 -0.7234
   10CHL1  H26C  736   1.503   2.624   8.713 -0.1869  2.0461 -0.9493
   10CHL1   C27  737   1.665   2.410   8.476 -0.2700  0.0001 -0.0390
   10CHL1  H27A  738   1.702   2.490   8.409  1.5363 -1.2875 -0.6689
   10CHL1  H27B  739   1.743   2.332   8.486  0.3207  0.7633  1.6663
   10CHL1  H27C  740   1.579   2.364   8.423 -2.9111  0.5317  3.4502
   11CHL1    C3  741   5.833   3.810  10.117 -0.1900 -0.9020  0.9825
   11CHL1    H3  742   5.930   3.863  10.123  0.0478 -1.2732  0.5107
   11CHL1    O3  743   5.776   3.827  10.244 -0.2987  0.4933  0.2995
   11CHL1   H3'  744   5.690   3.788  10.228 -0.4028  1.2194 -1.0152
   11CHL1    C4  745   5.730   3.869  10.015  0.3200 -0.0358 -0.1169
   11CHL1   H4A  746   5.630   3.827  10.041  1.9870 -3.2912  1.5622
   11CHL1   H4B  747   5.723   3.979  10.030 -1.0133  0.1124 -1.5503
   11CHL1    C5  748   5.752   3.832   9.867 -0.1714 -0.1580 -0.4577
   11CHL1    C6  749   5.757   3.924   9.770 -0.9436 -0.1263  0.1324
   11CHL1    H6  750   5.755   4.032   9.795 -3.0985 -0.4145  1.5025
   11CHL1    C7  751   5.792   3.901   9.631  0.4037 -0.5437  0.1500
   11CHL1   H7A  752   5.725   3.969   9.576  1.1595  0.4096  0.3757
   11CHL1   H7B  753   5.894   3.938   9.607  0.2382 -0.7079 -0.8801
   11CHL1    C8  754   5.777   3.751   9.595  0.0050  0.1591 -0.9903
   11CHL1    H8  755   5.670   3.719   9.597 -0.1144  0.4452  2.3320
   11CHL1   C14  756   5.840   3.725   9.459  0.0856 -0.5434  0.6913
   11CHL1   H14  757   5.948   3.736   9.478  0.7519 -0.1840 -2.7059
   11CHL1   C15  758   5.815   3.821   9.334  0.2740  0.5243 -0.6252
   11CHL1  H15A  759   5.706   3.830   9.311  0.5958  2.7043 -1.4399
   11CHL1  H15B  760   5.859   3.920   9.352 -0.0487  0.4142  0.8668
   11CHL1   C16  761   5.870   3.749   9.211  0.1825 -0.3254  0.2279
   11CHL1  H16A  762   5.796   3.763   9.129  2.3920  2.2749 -1.4780
   11CHL1  H16B  763   5.965   3.799   9.186  1.1569 -1.3946  1.6419
   11CHL1   C17  764   5.896   3.599   9.257 -1.1711 -1.1594 -0.1063
   11CHL1   H17  765   6.006   3.592   9.271 -1.1700 -1.6191 -0.3489
   11CHL1   C13  766   5.824   3.584   9.398 -0.3046  0.2590 -0.1000
   11CHL1   C18  767   5.679   3.553   9.374  0.1046  0.3275  0.3069
   11CHL1  H18A  768   5.635   3.627   9.304  1.5764  0.3602 -0.6224
   11CHL1  H18B  769   5.667   3.451   9.332 -0.1122 -0.1122  1.3969
   11CHL1  H18C  770   5.617   3.557   9.466 -1.3874  2.0361 -0.7219
   11CHL1   C12  771   5.881   3.490   9.503 -0.7191  0.3638  0.8334
   11CHL1  H12A  772   5.858   3.384   9.477 -2.6020  0.6902  1.0367
   11CHL1  H12B  773   5.992   3.499   9.508 -0.9339  3.2853  2.1772
   11CHL1   C11  774   5.832   3.516   9.647 -0.0075 -0.2115  0.2151
   11CHL1  H11A  775   5.726   3.485   9.657 -0.2538  1.1453  2.7064
   11CHL1  H11B  776   5.883   3.457   9.726 -1.2927  1.7119  2.6613
   11CHL1    C9  777   5.843   3.660   9.703  0.0214  0.3513  1.0392
   11CHL1    H9  778   5.951   3.682   9.709  0.8282 -2.1684 -1.8977
   11CHL1   C10  779   5.788   3.683   9.849 -0.0390 -0.9656 -0.7688
   11CHL1   C19  780   5.657   3.595   9.865 -0.2888  0.3349  0.3166
   11CHL1  H19A  781   5.595   3.616   9.776 -0.2580 -1.7191 -0.2378
   11CHL1  H19B  782   5.681   3.487   9.856 -0.9810  0.0578  1.4992
   11CHL1  H19C  783   5.607   3.606   9.964  0.8185  0.1630  0.9145
   11CHL1    C1  784   5.887   3.625   9.949  0.2346 -0.0410  0.2441
   11CHL1   H1A  785   5.889   3.515   9.940 -1.3649 -0.1289  0.7609
   11CHL1   H1B  786   5.992   3.656   9.932  0.3055 -0.1491  0.4902
   11CHL1    C2  787   5.851   3.661  10.096 -0.9955 -0.1762 -0.0419
   11CHL1   H2A  788   5.928   3.626  10.168 -0.6697 -3.4617 -1.7813
   11CHL1   H2B  789   5.762   3.601  10.126 -2.2194  1.9539  0.7871
   11CHL1   C20  790   5.857   3.506   9.140 -0.0059 -0.4810  0.6472
   11CHL1   H20  791   5.752   3.502   9.106 -0.1676  1.3064  0.8516
   11CHL1   C21  792   5.894   3.368   9.189  0.3176  0.1375 -0.4034
   11CHL1  H21A  793   5.997   3.382   9.228  0.6534  0.7822 -1.4563
   11CHL1  H21B  794   5.894   3.293   9.107  0.9156 -0.8488  0.4806
   11CHL1  H21C  795   5.822   3.328   9.263  0.3370  0.8434  0.0088
   11CHL1   C22  796   5.946   3.529   9.016 -0.2873  0.4358  0.6622
   11CHL1  H22A  797   6.010   3.618   9.033 -1.2107  2.1054 -3.3126
   11CHL1  H22B  798   6.008   3.440   8.990  0.2790  1.3590 -1.3893
   11CHL1   C23  799   5.869   3.571   8.893 -0.4631 -0.0676  0.0187
   11CHL1  H23A  800   5.791   3.645   8.921 -0.4945  0.4712 -1.4023
   11CHL1  H23B  801   5.929   3.633   8.822  2.2004 -1.2259  1.1260
   11CHL1   C24  802   5.809   3.448   8.827  0.1545 -0.0638  0.0070
   11CHL1  H24A  803   5.892   3.377   8.805  0.1836  0.0855 -0.3662
   11CHL1  H24B  804   5.741   3.393   8.895 -0.6485 -0.6100 -1.1930
   11CHL1   C25  805   5.731   3.475   8.699 -0.7713 -0.0964 -0.4730
   11CHL1   H25  806   5.678   3.570   8.722 -1.8285 -0.9738  0.9205
   11CHL1   C26  807   5.829   3.490   8.588  0.2216 -0.0782  0.2045
   11CHL1  H26A  808   5.906   3.568   8.606  1.1676 -0.9143 -0.1241
   11CHL1  H26B  809   5.904   3.407   8.584  0.8986  0.4741  1.0085
   11CHL1  H26C  810   5.786   3.515   8.489 -0.2011 -0.7253  0.2160
   11CHL1   C27  811   5.628   3.372   8.661  0.0695  0.6645  0.1081
   11CHL1  H27A  812   5.551   3.357   8.740 -0.3848 -2.5785 -0.7727
   11CHL1  H27B  813   5.574   3.396   8.566  2.1622  0.1030 -1.2866
   11CHL1  H27C  814   5.679   3.277   8.635 -0.0609  0.5947  0.1035
   12CHL1    C3  815   1.759   1.792  10.287 -0.2962 -0.1904  0.1072
   12CHL1    H3  816   1.870   1.800  10.293 -0.3685  0.2627  0.9663
   12CHL1    O3  817   1.700   1.782  10.414 -0.0723  0.8912  0.2549
   12CHL1   H3'  818   1.605   1.767  10.406 -0.0676  0.9759  0.0393
   12CHL1    C4  819   1.706   1.910  10.213 -1.4067  0.5508  0.6100
   12CHL1   H4A  820   1.595   1.914  10.223 -2.1068 -3.5484 -2.7529
   12CHL1   H4B  821   1.745   1.999  10.266 -1.9460  2.9463 -2.7016
   12CHL1    C5  822   1.767   1.911  10.073 -0.0531  0.0487 -0.6181
   12CHL1    C6  823   1.840   2.013  10.016  0.7144 -0.3690 -0.1130
   12CHL1    H6  824   1.854   2.100  10.082  0.3456 -0.8004  0.5492
   12CHL1    C7  825   1.879   2.018   9.877  0.1944 -0.4211 -0.0434
   12CHL1   H7A  826   1.854   2.116   9.831 -2.3239  0.3361  2.6091
   12CHL1   H7B  827   1.988   2.003   9.869 -0.1029 -2.2899 -1.2384
   12CHL1    C8  828   1.795   1.921   9.789  0.5609 -0.7153  0.5921
   12CHL1    H8  829   1.692   1.961   9.771 -0.2311 -2.5714  0.7616
   12CHL1   C14  830   1.861   1.920   9.648  0.4276 -0.3516  0.1584
   12CHL1   H14  831   1.962   1.874   9.656  0.4464 -0.8966 -2.3930
   12CHL1   C15  832   1.906   2.052   9.576 -0.1747 -0.5824  0.2195
   12CHL1  H15A  833   1.812   2.111   9.572  0.4589  0.5754  1.5056
   12CHL1  H15B  834   1.985   2.110   9.629 -0.6964 -0.0351  0.4023
   12CHL1   C16  835   1.956   1.997   9.442  0.1042 -0.4277 -0.4502
   12CHL1  H16A  836   1.943   2.061   9.352  0.7942 -1.8330 -1.5966
   12CHL1  H16B  837   2.065   1.975   9.449  0.3675  1.1413  1.1003
   12CHL1   C17  838   1.871   1.864   9.424 -0.5926 -0.3137  0.9202
   12CHL1   H17  839   1.953   1.790   9.434 -1.9045 -1.9117  0.2972
   12CHL1   C13  840   1.782   1.838   9.548 -0.0011 -0.3468  0.4527
   12CHL1   C18  841   1.635   1.881   9.538 -0.1040 -0.2961  0.2531
   12CHL1  H18A  842   1.580   1.853   9.630  0.1799  0.8373  0.7949
   12CHL1  H18B  843   1.625   1.991   9.520 -0.1317 -0.6023 -1.8425
   12CHL1  H18C  844   1.592   1.834   9.447  0.5953  2.5961 -1.7433
   12CHL1   C12  845   1.779   1.692   9.591  0.5835 -0.7114 -0.3627
   12CHL1  H12A  846   1.704   1.634   9.533 -0.6347 -0.1397  0.6203
   12CHL1  H12B  847   1.884   1.654   9.586  0.7934 -0.5368  1.9350
   12CHL1   C11  848   1.723   1.680   9.741 -0.6596  0.4803  0.0398
   12CHL1  H11A  849   1.615   1.704   9.736 -0.7540 -0.0012 -0.2443
   12CHL1  H11B  850   1.754   1.588   9.794  0.4862  0.8783  0.0857
   12CHL1    C9  851   1.784   1.786   9.836  0.2292  0.5572 -0.8724
   12CHL1    H9  852   1.888   1.751   9.853 -0.0076 -0.5307 -1.6087
   12CHL1   C10  853   1.721   1.788   9.988 -0.7698  0.4792  0.7440
   12CHL1   C19  854   1.566   1.774   9.975  0.8774  0.4703  0.5485
   12CHL1  H19A  855   1.514   1.806  10.068 -1.3116  0.9902 -0.7662
   12CHL1  H19B  856   1.523   1.846   9.902 -0.0873 -1.4962 -0.9219
   12CHL1  H19C  857   1.537   1.671   9.945  1.7787  0.2399  0.4673
   12CHL1    C1  858   1.770   1.661  10.071 -0.4665 -0.1274 -0.2467
   12CHL1   H1A  859   1.742   1.569  10.015 -0.9370  0.6697 -1.3817
   12CHL1   H1B  860   1.881   1.664  10.072 -0.4436  2.8403  1.7340
   12CHL1    C2  861   1.723   1.658  10.220 -0.2845  0.4159  0.9209
   12CHL1   H2A  862   1.772   1.574  10.273  0.4072  1.1319  1.4559
   12CHL1   H2B  863   1.614   1.637  10.223 -0.2471  0.2827  2.6725
   12CHL1   C20  864   1.810   1.833   9.279  0.4790  0.7050  0.3064
   12CHL1   H20  865   1.737   1.750   9.288 -1.1251  2.2177  2.0358
   12CHL1   C21  866   1.921   1.790   9.178 -0.0189  0.4853  0.5881
   12CHL1  H21A  867   1.984   1.877   9.147  1.4648 -0.7133  0.1199
   12CHL1  H21B  868   1.881   1.756   9.080  1.3385  0.6220 -0.0328
   12CHL1  H21C  869   1.991   1.712   9.214 -0.6704 -0.7456 -0.7045
   12CHL1   C22  870   1.736   1.958   9.220  0.3212 -0.4240  0.1874
   12CHL1  H22A  871   1.663   1.986   9.299 -0.7160 -3.2984  0.3623
   12CHL1  H22B  872   1.809   2.039   9.198 -0.4176  0.7680  1.9296
   12CHL1   C23  873   1.659   1.918   9.095 -0.7035 -0.1129  0.0981
   12CHL1  H23A  874   1.727   1.891   9.011 -0.7106 -4.3106  1.2236
   12CHL1  H23B  875   1.602   1.829   9.130 -1.4832  0.7810  1.1578
   12CHL1   C24  876   1.572   2.030   9.032 -0.5212 -0.2530  0.5666
   12CHL1  H24A  877   1.502   2.074   9.106  1.0317  0.5005  1.6346
   12CHL1  H24B  878   1.649   2.107   9.014  0.0773 -0.2660  2.7516
   12CHL1   C25  879   1.491   1.998   8.904 -0.8908  0.1127  0.9055
   12CHL1   H25  880   1.563   1.960   8.829 -2.5833  1.4064 -1.4898
   12CHL1   C26  881   1.391   1.892   8.923  0.1956 -0.1573 -0.0236
   12CHL1  H26A  882   1.426   1.787   8.933  2.5739  0.7502  2.8421
   12CHL1  H26B  883   1.350   1.901   9.026 -0.8304 -1.8844 -0.2431
   12CHL1  H26C  884   1.302   1.903   8.859 -0.3746  0.0202  0.7809
   12CHL1   C27  885   1.425   2.130   8.838  0.1088  0.0745 -1.1427
   12CHL1  H27A  886   1.370   2.113   8.743 -2.5985  0.6517  0.2237
   12CHL1  H27B  887   1.356   2.171   8.915  2.0112 -1.5022  1.6083
   12CHL1  H27C  888   1.509   2.199   8.815  1.4782  0.5514  3.9143
   13CHL1    C3  889   6.017   0.702   9.913 -0.0105  0.0385  0.0505
   13CHL1    H3  890   6.035   0.592   9.920 -0.1325 -0.0006 -0.2315
   13CHL1    O3  891   6.011   0.752  10.039  0.0051 -1.0882 -0.2974
   13CHL1   H3'  892   5.958   0.831  10.053 -0.2071 -1.5460  1.7329
   13CHL1    C4  893   6.131   0.765   9.833 -0.9123  0.0873  0.3357
   13CHL1   H4A  894   6.131   0.876   9.836  2.7353  0.2417 -0.1412
   13CHL1   H4B  895   6.223   0.735   9.887  0.2016 -0.0021 -1.5123
   13CHL1    C5  896   6.132   0.718   9.687  0.3324 -0.5049 -0.8921
   13CHL1    C6  897   6.237   0.669   9.626 -0.1545  0.5688 -0.0013
   13CHL1    H6  898   6.337   0.673   9.672  0.5471 -0.2149 -1.4058
   13CHL1    C7  899   6.238   0.616   9.485  0.1514 -0.2267  0.7370
   13CHL1   H7A  900   6.321   0.661   9.427 -1.6949  2.3387 -0.1561
   13CHL1   H7B  901   6.237   0.505   9.491 -1.2594 -0.1951  1.8019
   13CHL1    C8  902   6.115   0.663   9.403 -0.0189 -0.4265 -0.0699
   13CHL1    H8  903   6.132   0.769   9.376 -1.2977 -0.4643 -1.1780
   13CHL1   C14  904   6.100   0.581   9.273 -0.8825  0.2120  0.6068
   13CHL1   H14  905   6.070   0.476   9.293 -0.2150 -0.1753 -0.3542
   13CHL1   C15  906   6.232   0.567   9.178 -0.0530 -0.2718 -0.1600
   13CHL1  H15A  907   6.265   0.671   9.162 -1.9297  0.1953 -1.3642
   13CHL1  H15B  908   6.317   0.498   9.198  0.3899  0.7917  1.9193
   13CHL1   C16  909   6.166   0.517   9.050 -0.5748  0.0460  0.2313
   13CHL1  H16A  910   6.203   0.591   8.975 -2.3246  0.7096 -0.0181
   13CHL1  H16B  911   6.196   0.412   9.029 -1.3874 -0.0047 -0.7443
   13CHL1   C17  912   6.008   0.545   9.060  0.5273  0.5410 -0.1200
   13CHL1   H17  913   5.960   0.448   9.083  1.1472  0.3431  0.4016
   13CHL1   C13  914   5.987   0.629   9.185 -0.2834 -0.1567 -0.5968
   13CHL1   C18  915   5.997   0.778   9.151 -0.3351 -0.7519 -0.1725
   13CHL1  H18A  916   5.917   0.815   9.083 -0.3799  0.1542  0.3624
   13CHL1  H18B  917   5.977   0.844   9.238  0.5296 -1.5464  0.6508
   13CHL1  H18C  918   6.100   0.794   9.111 -0.3508 -0.1752  0.0064
   13CHL1   C12  919   5.854   0.594   9.263  0.0062 -0.7271  0.5214
   13CHL1  H12A  920   5.782   0.651   9.200  0.8987  0.0275  0.1514
   13CHL1  H12B  921   5.829   0.486   9.270 -1.0351 -0.7761 -2.6560
   13CHL1   C11  922   5.846   0.658   9.404 -1.0645  0.1092 -0.6088
   13CHL1  H11A  923   5.825   0.766   9.392  0.3743  0.4416 -0.2965
   13CHL1  H11B  924   5.752   0.618   9.449 -1.4534  1.0011 -0.6210
   13CHL1    C9  925   5.981   0.638   9.484 -0.5877 -0.7553  0.5506
   13CHL1    H9  926   5.981   0.530   9.509 -0.3948 -1.0428 -0.6263
   13CHL1   C10  927   5.994   0.727   9.616 -0.2258  0.2352 -0.4381
   13CHL1   C19  928   5.980   0.878   9.580 -0.0619  0.3314 -0.1899
   13CHL1  H19A  929   5.880   0.896   9.534 -0.2303 -1.2471 -0.5064
   13CHL1  H19B  930   5.986   0.926   9.680  1.0974 -1.4154  0.6374
   13CHL1  H19C  931   6.069   0.911   9.521 -0.1451  0.4109 -0.2722
   13CHL1    C1  932   5.866   0.676   9.706 -0.5802  0.5894 -0.3680
   13CHL1   H1A  933   5.774   0.711   9.656  0.4692  1.3725 -1.8313
   13CHL1   H1B  934   5.859   0.566   9.692 -0.5796  0.5114  0.2164
   13CHL1    C2  935   5.874   0.723   9.851 -0.4797  0.1237  0.2768
   13CHL1   H2A  936   5.807   0.654   9.906  0.5797 -0.0892  1.3304
   13CHL1   H2B  937   5.848   0.831   9.846 -0.4201  0.0849 -1.4115
   13CHL1   C20  938   5.952   0.598   8.927  0.0259  0.4887 -0.1589
   13CHL1   H20  939   5.985   0.701   8.902  0.6159  0.5405  0.7865
   13CHL1   C21  940   5.798   0.594   8.934 -0.2545 -0.1947 -0.2381
   13CHL1  H21A  941   5.756   0.689   8.973  3.3962  1.1727  0.8077
   13CHL1  H21B  942   5.772   0.507   8.997  1.0678  0.2699  0.9978
   13CHL1  H21C  943   5.759   0.585   8.830 -1.7552  0.6685  0.2310
   13CHL1   C22  944   5.992   0.506   8.809  0.0246  0.9246  0.2347
   13CHL1  H22A  945   6.100   0.484   8.799 -0.7038 -2.4601 -2.0790
   13CHL1  H22B  946   5.935   0.411   8.820  0.4354  0.4111 -1.6535
   13CHL1   C23  947   5.949   0.560   8.681  0.0030 -0.1700  0.5512
   13CHL1  H23A  948   5.841   0.541   8.664  0.1857 -1.2894  0.5813
   13CHL1  H23B  949   5.958   0.669   8.699  0.7741 -0.5251  2.5711
   13CHL1   C24  950   6.034   0.516   8.563 -0.0310 -0.5920 -0.2956
   13CHL1  H24A  951   6.142   0.508   8.591 -0.5921 -1.8487  1.7450
   13CHL1  H24B  952   6.011   0.412   8.530  2.9564 -1.3207 -0.4259
   13CHL1   C25  953   6.005   0.593   8.428 -0.6106 -0.5334  0.1253
   13CHL1   H25  954   5.895   0.595   8.412 -0.4874 -2.1224 -1.1548
   13CHL1   C26  955   6.064   0.737   8.423  0.0282  1.2787  0.1428
   13CHL1  H26A  956   6.029   0.792   8.333 -0.0630  0.0232 -0.6052
   13CHL1  H26B  957   6.034   0.788   8.517  0.8368  0.4261  0.8802
   13CHL1  H26C  958   6.174   0.744   8.411 -0.2793  1.0549 -4.1353
   13CHL1   C27  959   6.060   0.514   8.309  0.3765  0.1903 -0.8257
   13CHL1  H27A  960   6.057   0.571   8.214  0.6519  0.3786 -0.7241
   13CHL1  H27B  961   6.165   0.492   8.340  0.1564 -1.0950 -0.9462
   13CHL1  H27C  962   6.010   0.415   8.298 -0.4297  0.2451  1.7252
   14CHL1    C3  963   1.187   6.140  10.463 -0.4141 -0.6653 -0.7742
   14CHL1    H3  964   1.293   6.166  10.486 -0.4488 -2.2842  1.6301
   14CHL1    O3  965   1.126   6.172  10.588  0.4405 -0.5662  1.1542
   14CHL1   H3'  966   1.039   6.140  10.564  1.1190 -2.0343  0.5610
   14CHL1    C4  967   1.127   6.218  10.349 -0.7661  0.4596  0.0142
   14CHL1   H4A  968   1.017   6.222  10.362 -0.8172  0.8751 -0.5305
   14CHL1   H4B  969   1.148   6.323  10.380 -1.4267 -0.1727  2.9903
   14CHL1    C5  970   1.163   6.167  10.211 -0.9015 -0.1723  0.7758
   14CHL1    C6  971   1.210   6.249  10.116  0.4086 -0.0949 -0.2663
   14CHL1    H6  972   1.224   6.355  10.144  0.2359  0.3199 -1.6888
   14CHL1    C7  973   1.228   6.216   9.975 -0.1022  0.7020  0.1518
   14CHL1   H7A  974   1.167   6.277   9.904 -0.4974  0.2228  0.0704
   14CHL1   H7B  975   1.332   6.221   9.937 -1.1934  0.6738 -3.1834
   14CHL1    C8  976   1.187   6.070   9.934 -0.2823  0.0923 -0.9877
   14CHL1    H8  977   1.076   6.073   9.922 -0.6081 -2.5728  0.5159
   14CHL1   C14  978   1.246   6.019   9.809  0.0537  0.0557 -0.2507
   14CHL1   H14  979   1.353   6.005   9.833 -0.4093 -0.1010  2.0129
   14CHL1   C15  980   1.225   6.109   9.685 -0.1921  0.2258  0.0804
   14CHL1  H15A  981   1.126   6.158   9.696  0.9513  3.3385 -1.9644
   14CHL1  H15B  982   1.303   6.188   9.674 -1.4774  1.2610 -2.3510
   14CHL1   C16  983   1.243   6.015   9.569  0.2740 -0.0943 -0.7211
   14CHL1  H16A  984   1.163   6.013   9.492 -2.9390  1.4668  2.2772
   14CHL1  H16B  985   1.341   6.042   9.524  0.3022 -1.1977 -1.3317
   14CHL1   C17  986   1.259   5.874   9.630  1.0270  0.1239 -1.2614
   14CHL1   H17  987   1.369   5.861   9.637  0.6298 -3.5599  0.0112
   14CHL1   C13  988   1.197   5.876   9.769 -0.0118 -0.1637  0.5916
   14CHL1   C18  989   1.042   5.874   9.745  0.8552 -0.2603  0.0663
   14CHL1  H18A  990   1.030   5.935   9.653  0.4393  1.2032  1.0604
   14CHL1  H18B  991   1.006   5.770   9.732 -0.7886  0.4269 -1.2778
   14CHL1  H18C  992   0.983   5.917   9.829  2.4016 -0.8446  1.5158
   14CHL1   C12  993   1.247   5.785   9.886  0.1333 -0.1291 -0.3472
   14CHL1  H12A  994   1.223   5.681   9.854 -1.5563 -0.7665  2.6185
   14CHL1  H12B  995   1.357   5.798   9.890  0.1620  0.3629 -1.9983
   14CHL1   C11  996   1.173   5.824  10.013  0.4424 -0.1937 -0.0945
   14CHL1  H11A  997   1.062   5.820  10.005  0.4424  0.0322 -0.2055
   14CHL1  H11B  998   1.191   5.757  10.099  1.0816  0.0099 -0.0629
   14CHL1    C9  999   1.200   5.974  10.050 -0.5946  0.0677 -0.2472
   14CHL1    H9 1000   1.309   5.979  10.071 -0.5514  0.0895 -0.4773
   14CHL1   C10 1001   1.133   6.018  10.185  0.1924  0.5253 -0.3633
   14CHL1   C19 1002   0.979   6.002  10.186  1.1346  0.6992 -0.1803
   14CHL1  H19A 1003   0.943   5.897  10.188  0.7709  0.7727  3.1346
   14CHL1  H19B 1004   0.924   6.056  10.266  1.0424 -1.3180  1.1657
   14CHL1  H19C 1005   0.926   6.030  10.092 -0.2046 -1.1148 -0.0194
   14CHL1    C1 1006   1.195   5.946  10.306 -0.3802 -0.1028  0.1160
   14CHL1   H1A 1007   1.169   5.839  10.315 -1.8388  0.4339  3.8632
   14CHL1   H1B 1008   1.306   5.955  10.295 -0.1179 -1.5545  1.2502
   14CHL1    C2 1009   1.164   5.990  10.440  0.5230 -0.1985 -0.3572
   14CHL1   H2A 1010   1.239   5.942  10.507  0.8250 -1.2553 -1.4209
   14CHL1   H2B 1011   1.067   5.946  10.469  1.0923 -1.6072 -0.5083
   14CHL1   C20 1012   1.213   5.763   9.529 -0.3653  0.1355  0.1737
   14CHL1   H20 1013   1.106   5.782   9.510  0.0203 -1.0551 -4.2926
   14CHL1   C21 1014   1.221   5.620   9.597 -0.3924  0.6017 -0.2957
   14CHL1  H21A 1015   1.214   5.538   9.523 -1.7666  0.1098  0.3432
   14CHL1  H21B 1016   1.132   5.597   9.660 -1.0052 -0.5464 -1.5379
   14CHL1  H21C 1017   1.322   5.597   9.636 -0.2201 -2.7419 -2.3024
   14CHL1   C22 1018   1.281   5.764   9.388  0.8331  0.1576 -0.2282
   14CHL1  H22A 1019   1.309   5.870   9.371 -2.9487  1.5395  1.0889
   14CHL1  H22B 1020   1.376   5.706   9.387  0.5667 -0.2977  0.3561
   14CHL1   C23 1021   1.190   5.737   9.271  0.6797 -0.0232  0.0062
   14CHL1  H23A 1022   1.172   5.628   9.272 -2.0487  0.3276  2.1304
   14CHL1  H23B 1023   1.093   5.789   9.285  0.2936 -1.1985  2.0951
   14CHL1   C24 1024   1.247   5.804   9.147  0.3048 -0.1168  0.2778
   14CHL1  H24A 1025   1.250   5.914   9.151 -0.2699 -0.0949  0.2428
   14CHL1  H24B 1026   1.357   5.790   9.138  0.2839  0.2820 -0.7061
   14CHL1   C25 1027   1.164   5.760   9.023 -0.4786  0.1949 -0.3658
   14CHL1   H25 1028   1.056   5.768   9.047  0.0300  0.3770  2.1218
   14CHL1   C26 1029   1.180   5.849   8.895  0.2139 -0.1275 -0.7053
   14CHL1  H26A 1030   1.287   5.854   8.866  1.9885 -1.3927  4.4422
   14CHL1  H26B 1031   1.113   5.806   8.818 -0.6908 -0.5017  0.2517
   14CHL1  H26C 1032   1.136   5.948   8.921  0.6588 -0.4313  1.3824
   14CHL1   C27 1033   1.182   5.609   8.989  0.2843 -0.6546  0.4005
   14CHL1  H27A 1034   1.172   5.537   9.073 -0.7644 -4.0259 -2.3406
   14CHL1  H27B 1035   1.109   5.577   8.912 -1.6962  1.3873  1.3229
   14CHL1  H27C 1036   1.280   5.597   8.938 -0.7946 -2.3127 -1.4322
   15CHL1    C3 1037   5.369   1.593  10.112  0.8270  0.0232  0.0798
   15CHL1    H3 1038   5.420   1.677  10.164  0.1404  0.4484  0.0767
   15CHL1    O3 1039   5.335   1.501  10.212 -0.6308  0.2336 -0.1590
   15CHL1   H3' 1040   5.421   1.462  10.231  0.4478 -0.0789 -4.5206
   15CHL1    C4 1041   5.243   1.637  10.043  0.1985  0.2447  0.3489
   15CHL1   H4A 1042   5.200   1.544  10.001 -2.9734  1.6934  0.0545
   15CHL1   H4B 1043   5.175   1.670  10.125 -1.5216  1.2664 -1.4031
   15CHL1    C5 1044   5.258   1.735   9.925  0.1888  0.6987 -0.9282
   15CHL1    C6 1045   5.195   1.852   9.912  0.6246 -0.4047  0.5371
   15CHL1    H6 1046   5.129   1.880   9.995  1.3519 -0.3177  1.1016
   15CHL1    C7 1047   5.229   1.949   9.796 -0.2712 -0.2672 -0.2239
   15CHL1   H7A 1048   5.134   1.985   9.751 -0.2807 -1.6678 -1.4004
   15CHL1   H7B 1049   5.288   2.027   9.849 -0.5083 -0.9300  1.0518
   15CHL1    C8 1050   5.323   1.891   9.684  0.1877  0.4757  0.4652
   15CHL1    H8 1051   5.263   1.814   9.630  2.7807 -0.9695 -0.5440
   15CHL1   C14 1052   5.378   1.997   9.594  0.2668 -0.1615 -0.5422
   15CHL1   H14 1053   5.445   2.054   9.662 -0.5250 -1.1122  1.1046
   15CHL1   C15 1054   5.278   2.092   9.540 -0.3597 -0.2962  0.4576
   15CHL1  H15A 1055   5.196   2.040   9.484 -0.3957  0.2944 -0.0445
   15CHL1  H15B 1056   5.238   2.180   9.595  0.0549  1.8271 -2.3944
   15CHL1   C16 1057   5.361   2.159   9.423  0.0612 -0.3579  0.2435
   15CHL1  H16A 1058   5.305   2.152   9.327 -0.3452 -2.9863  0.5913
   15CHL1  H16B 1059   5.378   2.266   9.447  0.6159  0.0140 -1.6236
   15CHL1   C17 1060   5.490   2.081   9.398 -0.1531 -0.0603 -0.4345
   15CHL1   H17 1061   5.576   2.128   9.451 -0.9336  0.7082  0.1719
   15CHL1   C13 1062   5.464   1.949   9.475 -0.2678  0.0991  0.4406
   15CHL1   C18 1063   5.383   1.855   9.381 -0.1232  0.1824  0.4618
   15CHL1  H18A 1064   5.357   1.759   9.431  0.9906 -1.1145 -1.3362
   15CHL1  H18B 1065   5.299   1.912   9.337  0.8858  0.9234 -0.5460
   15CHL1  H18C 1066   5.452   1.826   9.299 -0.0192  0.2000  0.5420
   15CHL1   C12 1067   5.583   1.881   9.546 -0.6218  0.3894 -0.3549
   15CHL1  H12A 1068   5.652   1.838   9.470 -0.5637  3.3141 -2.1223
   15CHL1  H12B 1069   5.633   1.963   9.602 -0.3982  0.3800 -0.5391
   15CHL1   C11 1070   5.551   1.760   9.642 -0.1892 -0.4960  0.7589
   15CHL1  H11A 1071   5.512   1.670   9.589 -0.5181  0.2358 -0.2737
   15CHL1  H11B 1072   5.645   1.743   9.698  0.5569  1.8382  0.3096
   15CHL1    C9 1073   5.437   1.803   9.741  0.3025 -0.2244 -0.0339
   15CHL1    H9 1074   5.486   1.867   9.818 -0.6933 -0.4700  0.8205
   15CHL1   C10 1075   5.375   1.690   9.827 -0.4420 -0.4247  0.0959
   15CHL1   C19 1076   5.320   1.575   9.735  0.4832 -0.0954  0.2229
   15CHL1  H19A 1077   5.398   1.524   9.674 -1.0227 -2.6217  0.3083
   15CHL1  H19B 1078   5.262   1.502   9.795  1.7404  0.1453  1.7845
   15CHL1  H19C 1079   5.250   1.601   9.652 -0.6433 -0.8641  0.9178
   15CHL1    C1 1080   5.504   1.627   9.901 -0.5526 -0.4639  0.0711
   15CHL1   H1A 1081   5.571   1.587   9.822 -2.4623  1.0845 -2.5303
   15CHL1   H1B 1082   5.568   1.708   9.941 -1.1352 -0.0614  0.2079
   15CHL1    C2 1083   5.465   1.522  10.007 -0.3358 -0.0875 -0.6120
   15CHL1   H2A 1084   5.550   1.475  10.061 -1.2047 -1.4193 -0.3293
   15CHL1   H2B 1085   5.399   1.443   9.964 -1.0126 -0.1382  0.4865
   15CHL1   C20 1086   5.527   2.074   9.251  0.5394 -0.9905  0.2126
   15CHL1   H20 1087   5.443   2.024   9.200 -0.6489  0.4840  0.6509
   15CHL1   C21 1088   5.657   1.997   9.227  0.0258 -0.1901  0.0729
   15CHL1  H21A 1089   5.677   1.981   9.119  0.0960  2.4723 -0.3590
   15CHL1  H21B 1090   5.647   1.890   9.256  2.5145 -1.0013 -1.7370
   15CHL1  H21C 1091   5.751   2.046   9.260  0.7049 -0.9997 -0.6037
   15CHL1   C22 1092   5.546   2.216   9.189 -0.1327 -0.6759 -0.0590
   15CHL1  H22A 1093   5.457   2.280   9.207  1.3746  1.0615  1.7152
   15CHL1  H22B 1094   5.628   2.266   9.245 -0.6072 -0.3425  0.3566
   15CHL1   C23 1095   5.552   2.220   9.032 -0.3477  0.8639  0.1464
   15CHL1  H23A 1096   5.559   2.325   8.996 -0.2502  0.3786 -1.2906
   15CHL1  H23B 1097   5.643   2.167   8.998  1.3802  2.4304  2.0627
   15CHL1   C24 1098   5.424   2.142   8.979 -0.6645 -0.1817 -0.4958
   15CHL1  H24A 1099   5.444   2.033   8.986 -1.4773 -0.2901  0.3161
   15CHL1  H24B 1100   5.334   2.161   9.041 -0.3031  0.3091 -0.1137
   15CHL1   C25 1101   5.410   2.181   8.829  0.0242  0.1913 -0.9923
   15CHL1   H25 1102   5.408   2.292   8.829  2.3362  0.2738 -1.5979
   15CHL1   C26 1103   5.519   2.130   8.748 -0.1503  0.7403 -0.6759
   15CHL1  H26A 1104   5.530   2.023   8.773 -2.8754  0.1640 -1.6595
   15CHL1  H26B 1105   5.484   2.127   8.643  0.2157 -0.7104 -0.7782
   15CHL1  H26C 1106   5.620   2.177   8.753 -0.7089  2.0309 -1.0449
   15CHL1   C27 1107   5.277   2.133   8.775  0.8160  0.0338 -0.1245
   15CHL1  H27A 1108   5.198   2.179   8.839  2.6786  1.3296  1.3697
   15CHL1  H27B 1109   5.265   2.172   8.671  3.5946 -1.4792 -1.1080
   15CHL1  H27C 1110   5.274   2.022   8.771 -0.2049  0.0489  0.1006
   16CHL1    C3 1111   6.395   3.914  10.316 -0.5214 -0.3393 -0.1554
   16CHL1    H3 1112   6.430   4.017  10.297  0.9473 -0.1181  3.1024
   16CHL1    O3 1113   6.390   3.901  10.459  0.1962  0.4049  1.0783
   16CHL1   H3' 1114   6.367   3.808  10.466 -2.5986  0.9561  0.1676
   16CHL1    C4 1115   6.255   3.898  10.252 -0.0978 -0.4301 -0.0029
   16CHL1   H4A 1116   6.207   3.808  10.297  1.0254 -1.9711 -1.7196
   16CHL1   H4B 1117   6.195   3.986  10.283  2.3310  0.8138  1.4724
   16CHL1    C5 1118   6.266   3.902  10.102 -0.1141  0.5632  0.6977
   16CHL1    C6 1119   6.205   3.992  10.025  0.6602 -0.4203  0.4334
   16CHL1    H6 1120   6.138   4.064  10.074  1.3464 -0.1045  0.9178
   16CHL1    C7 1121   6.207   3.994   9.874  0.4873 -1.0345  0.7934
   16CHL1   H7A 1122   6.107   4.001   9.827  0.7929  0.7664  0.3370
   16CHL1   H7B 1123   6.266   4.082   9.840 -2.3851  0.2506 -1.3620
   16CHL1    C8 1124   6.269   3.864   9.814 -0.5784 -0.0916 -0.0058
   16CHL1    H8 1125   6.194   3.782   9.814 -0.6860  0.0056 -0.3909
   16CHL1   C14 1126   6.305   3.891   9.670 -0.5122  0.2511  0.6387
   16CHL1   H14 1127   6.394   3.957   9.666 -0.2440 -0.1616 -0.6678
   16CHL1   C15 1128   6.215   3.969   9.575  0.6411  0.1952 -0.3207
   16CHL1  H15A 1129   6.111   3.930   9.588  0.8896 -0.2722  0.3071
   16CHL1  H15B 1130   6.213   4.077   9.601 -1.0161 -0.3556  2.2306
   16CHL1   C16 1131   6.267   3.933   9.433  0.0264 -0.0093  0.0168
   16CHL1  H16A 1132   6.180   3.883   9.384 -1.1911  1.4158  0.6443
   16CHL1  H16B 1133   6.316   4.013   9.374  4.4626 -1.6976  1.0243
   16CHL1   C17 1134   6.376   3.828   9.450 -0.1456 -0.3831 -0.4768
   16CHL1   H17 1135   6.475   3.875   9.468  1.9021 -4.4126 -0.1006
   16CHL1   C13 1136   6.344   3.764   9.592 -0.3259 -0.4917  0.1832
   16CHL1   C18 1137   6.241   3.648   9.579  0.3466  0.5281  0.5266
   16CHL1  H18A 1138   6.280   3.559   9.525  2.2610  0.7124  1.5017
   16CHL1  H18B 1139   6.213   3.625   9.684 -0.4360  2.2622  0.7327
   16CHL1  H18C 1140   6.155   3.688   9.523  1.2141  1.4761 -0.1655
   16CHL1   C12 1141   6.467   3.717   9.665 -0.2491 -0.7381 -0.2383
   16CHL1  H12A 1142   6.506   3.618   9.633 -1.6217 -2.5715  3.1818
   16CHL1  H12B 1143   6.558   3.781   9.665 -0.9435  0.2798 -0.0152
   16CHL1   C11 1144   6.445   3.692   9.815  0.5328 -0.3189 -0.8228
   16CHL1  H11A 1145   6.369   3.612   9.822  1.1766 -0.8702  0.1697
   16CHL1  H11B 1146   6.542   3.660   9.858 -0.8153 -1.1160  1.8782
   16CHL1    C9 1147   6.389   3.810   9.893  0.2189 -0.0034 -0.3519
   16CHL1    H9 1148   6.460   3.895   9.882 -3.2380  2.8283 -3.8658
   16CHL1   C10 1149   6.364   3.799  10.045  0.2879 -0.0198  0.1462
   16CHL1   C19 1150   6.299   3.661  10.071 -0.1855 -0.3011 -0.1594
   16CHL1  H19A 1151   6.223   3.632   9.996 -1.3496 -1.2642  1.3340
   16CHL1  H19B 1152   6.381   3.586  10.069  0.3810  0.3215 -0.6037
   16CHL1  H19C 1153   6.257   3.645  10.173 -0.5542  1.3603 -0.0206
   16CHL1    C1 1154   6.497   3.805  10.115 -0.0570  0.3116  0.9901
   16CHL1   H1A 1155   6.560   3.720  10.079 -0.5091 -1.2678  3.6712
   16CHL1   H1B 1156   6.548   3.899  10.085 -1.6161  1.2353  1.1659
   16CHL1    C2 1157   6.492   3.810  10.264  0.6327  0.5206 -0.6604
   16CHL1   H2A 1158   6.594   3.828  10.304  0.8361 -0.5544 -0.6758
   16CHL1   H2B 1159   6.457   3.710  10.294  0.3022 -0.1389 -3.0104
   16CHL1   C20 1160   6.398   3.731   9.336  0.0386  0.2691 -0.2025
   16CHL1   H20 1161   6.433   3.638   9.385  0.3820  0.7286  0.4549
   16CHL1   C21 1162   6.502   3.791   9.242  0.4764 -0.4213  0.8180
   16CHL1  H21A 1163   6.603   3.817   9.281  1.4752 -0.2536 -1.7094
   16CHL1  H21B 1164   6.456   3.879   9.193 -0.3542 -1.6248 -0.6384
   16CHL1  H21C 1165   6.518   3.713   9.164 -1.4601 -0.0510 -0.0035
   16CHL1   C22 1166   6.276   3.684   9.250 -0.1569 -0.2377  0.1257
   16CHL1  H22A 1167   6.209   3.635   9.323 -1.1879 -0.2758 -0.8203
   16CHL1  H22B 1168   6.221   3.772   9.211 -0.0979 -0.1134  0.3208
   16CHL1   C23 1169   6.292   3.573   9.148  0.2612 -0.3953  0.0399
   16CHL1  H23A 1170   6.191   3.538   9.120  0.5320 -1.1059 -0.0761
   16CHL1  H23B 1171   6.353   3.600   9.059  0.1927 -1.3525 -0.3142
   16CHL1   C24 1172   6.360   3.443   9.201  0.0622  0.5522 -0.3910
   16CHL1  H24A 1173   6.447   3.477   9.260 -0.5245  0.7743  0.3715
   16CHL1  H24B 1174   6.295   3.389   9.274 -1.0419 -0.0339 -1.7734
   16CHL1   C25 1175   6.407   3.345   9.087  0.0580 -0.0877 -0.7344
   16CHL1   H25 1176   6.465   3.406   9.016 -0.0391 -0.0196 -0.7552
   16CHL1   C26 1177   6.496   3.224   9.143  0.5146 -0.1370 -0.5395
   16CHL1  H26A 1178   6.551   3.196   9.051  2.5093 -1.4153  0.9514
   16CHL1  H26B 1179   6.577   3.248   9.216  0.7983 -0.0552 -0.8755
   16CHL1  H26C 1180   6.430   3.143   9.179 -0.8051  0.6804 -1.0452
   16CHL1   C27 1181   6.288   3.285   9.003 -0.7466 -0.0486 -0.1583
   16CHL1  H27A 1182   6.232   3.362   8.946 -1.3360 -1.3243 -1.3594
   16CHL1  H27B 1183   6.330   3.204   8.939  1.9046  2.0959 -1.3595
   16CHL1  H27C 1184   6.222   3.232   9.075 -0.9202 -0.6874 -0.7695
   17CHL1    C3 1185   2.720   2.325  10.521 -0.4194 -0.0838  0.0041
   17CHL1    H3 1186   2.744   2.217  10.510 -0.2508 -0.0218 -0.2625
   17CHL1    O3 1187   2.773   2.367  10.650 -0.9518  0.5548  0.4931
   17CHL1   H3' 1188   2.758   2.462  10.657  1.6939  1.1771 -1.0123
   17CHL1    C4 1189   2.789   2.411  10.415 -0.5935  0.0413  0.0219
   17CHL1   H4A 1190   2.758   2.516  10.434 -0.2915  0.1211  0.0796
   17CHL1   H4B 1191   2.899   2.414  10.435 -0.7713  0.2006  1.0489
   17CHL1    C5 1192   2.755   2.366  10.280  0.9497  0.9183 -0.1714
   17CHL1    C6 1193   2.834   2.327  10.182 -0.0623 -0.2816  0.2928
   17CHL1    H6 1194   2.943   2.328  10.198  0.3966 -1.7912 -2.2241
   17CHL1    C7 1195   2.792   2.297  10.042 -0.1462  0.3894 -0.2337
   17CHL1   H7A 1196   2.856   2.359   9.976 -1.5617  2.1449 -0.0060
   17CHL1   H7B 1197   2.823   2.191  10.023 -0.7040 -0.1216  1.5351
   17CHL1    C8 1198   2.647   2.334   9.998  0.1466 -0.8453 -0.2887
   17CHL1    H8 1199   2.644   2.444   9.980  0.6243 -0.7723  0.0692
   17CHL1   C14 1200   2.609   2.258   9.874 -0.0147  0.0109  0.2346
   17CHL1   H14 1201   2.589   2.152   9.900 -2.7633  0.0970 -1.1939
   17CHL1   C15 1202   2.712   2.259   9.755 -0.1609 -0.0410  0.5099
   17CHL1  H15A 1203   2.762   2.358   9.750 -0.7832  0.4340  2.6926
   17CHL1  H15B 1204   2.793   2.183   9.754 -0.5224 -0.4318  0.7074
   17CHL1   C16 1205   2.611   2.221   9.637 -0.6945  0.3608 -0.0223
   17CHL1  H16A 1206   2.621   2.311   9.573  0.5649 -0.6457 -1.3074
   17CHL1  H16B 1207   2.658   2.133   9.589 -1.0591  0.5664 -0.7759
   17CHL1   C17 1208   2.466   2.213   9.689  0.4756  0.0081  0.4707
   17CHL1   H17 1209   2.438   2.112   9.727 -0.1845 -0.1374 -0.3746
   17CHL1   C13 1210   2.474   2.302   9.818  0.4372 -0.0944  0.1517
   17CHL1   C18 1211   2.471   2.454   9.773  1.0175  0.4766 -0.0139
   17CHL1  H18A 1212   2.373   2.470   9.722 -0.0632 -1.5504  1.2979
   17CHL1  H18B 1213   2.483   2.512   9.868  1.9190 -2.1008  1.5473
   17CHL1  H18C 1214   2.558   2.485   9.712 -0.4452  1.5324 -1.6860
   17CHL1   C12 1215   2.371   2.281   9.930 -0.2156 -0.2777  0.0037
   17CHL1  H12A 1216   2.274   2.328   9.900  0.7688  2.3373  0.6577
   17CHL1  H12B 1217   2.363   2.171   9.944 -1.4169 -0.0400  1.3961
   17CHL1   C11 1218   2.407   2.347  10.065  0.4337  0.2833  0.2090
   17CHL1  H11A 1219   2.405   2.457  10.054  2.4435  0.2913 -0.5550
   17CHL1  H11B 1220   2.350   2.306  10.151  2.1690 -1.3059  0.6859
   17CHL1    C9 1221   2.549   2.315  10.112 -0.2795  0.0859 -0.1275
   17CHL1    H9 1222   2.549   2.204  10.122 -0.8898 -0.1434 -2.3242
   17CHL1   C10 1223   2.600   2.379  10.246 -0.5341 -0.2843 -0.4614
   17CHL1   C19 1224   2.567   2.529  10.231  0.0533  0.4629  0.5671
   17CHL1  H19A 1225   2.610   2.569  10.136  0.3798  0.6952  0.8119
   17CHL1  H19B 1226   2.458   2.547  10.225 -0.2514 -1.5348 -0.9769
   17CHL1  H19C 1227   2.594   2.591  10.319 -1.1541  2.1670 -0.1919
   17CHL1    C1 1228   2.528   2.317  10.365  0.2917  0.6398 -0.3089
   17CHL1   H1A 1229   2.424   2.358  10.366  0.5143  1.2269  1.1646
   17CHL1   H1B 1230   2.533   2.206  10.369  3.9815  0.7363  1.0827
   17CHL1    C2 1231   2.580   2.357  10.506 -0.1512 -0.6934  0.0987
   17CHL1   H2A 1232   2.528   2.311  10.593  2.1255 -0.9084  1.4464
   17CHL1   H2B 1233   2.567   2.467  10.511 -1.7019 -0.7081 -2.1312
   17CHL1   C20 1234   2.369   2.254   9.574  0.1724  0.6205 -0.2063
   17CHL1   H20 1235   2.360   2.363   9.560 -0.2700  0.5941 -0.1335
   17CHL1   C21 1236   2.226   2.208   9.623  0.0565  0.4562 -1.0738
   17CHL1  H21A 1237   2.222   2.102   9.656 -1.6466  0.9061  0.3012
   17CHL1  H21B 1238   2.157   2.216   9.537  2.2819 -0.0458 -3.0044
   17CHL1  H21C 1239   2.192   2.268   9.711 -0.2540  0.5008 -1.2258
   17CHL1   C22 1240   2.401   2.199   9.427 -0.1414 -0.2430  0.5815
   17CHL1  H22A 1241   2.507   2.210   9.394 -0.4636  1.4061 -0.0356
   17CHL1  H22B 1242   2.380   2.090   9.428 -1.1533 -0.1774 -2.7976
   17CHL1   C23 1243   2.307   2.259   9.324  0.3862  1.0181 -1.1634
   17CHL1  H23A 1244   2.205   2.232   9.356 -0.0220  1.8067 -1.7668
   17CHL1  H23B 1245   2.317   2.370   9.321  1.5506  1.0120  0.5395
   17CHL1   C24 1246   2.332   2.216   9.181  0.7117 -0.1085 -0.2560
   17CHL1  H24A 1247   2.439   2.226   9.154  0.8040  2.4562  0.8384
   17CHL1  H24B 1248   2.305   2.108   9.171 -2.8927  0.6930 -0.6678
   17CHL1   C25 1249   2.262   2.302   9.068  0.7608  0.2720 -0.5128
   17CHL1   H25 1250   2.280   2.407   9.098  0.9195  0.2481 -0.5256
   17CHL1   C26 1251   2.335   2.286   8.938 -0.5994  0.2058 -0.2434
   17CHL1  H26A 1252   2.278   2.353   8.869 -1.5797  0.4368  0.7577
   17CHL1  H26B 1253   2.437   2.329   8.943 -0.8266  0.6594  0.7216
   17CHL1  H26C 1254   2.336   2.185   8.893 -1.0560  1.4861 -3.3872
   17CHL1   C27 1255   2.119   2.279   9.037  0.2955 -0.2538 -0.0717
   17CHL1  H27A 1256   2.055   2.275   9.127 -1.3490 -0.5774 -1.2053
   17CHL1  H27B 1257   2.089   2.360   8.967 -2.2765  0.1779  1.3926
   17CHL1  H27C 1258   2.094   2.179   8.995 -3.8079  0.3753  0.4432
   18CHL1    C3 1259   1.585   0.494  10.252 -0.7632  0.7014  0.7711
   18CHL1    H3 1260   1.682   0.531  10.213 -0.0667  0.3115  2.0568
   18CHL1    O3 1261   1.593   0.500  10.389 -0.0085  0.0234 -0.7229
   18CHL1   H3' 1262   1.514   0.452  10.416 -0.1825 -0.3566 -1.8840
   18CHL1    C4 1263   1.471   0.577  10.193  0.2252  0.5187 -0.4935
   18CHL1   H4A 1264   1.381   0.537  10.244  1.5791 -0.0643  1.5747
   18CHL1   H4B 1265   1.477   0.683  10.229  0.9944  1.3857 -2.9696
   18CHL1    C5 1266   1.469   0.565  10.045  0.7022  0.0777  0.1317
   18CHL1    C6 1267   1.486   0.673   9.962 -0.4594 -0.4710 -0.5369
   18CHL1    H6 1268   1.523   0.769  10.000  0.5270 -1.0472  0.0161
   18CHL1    C7 1269   1.480   0.664   9.818  0.7779 -0.2089 -0.3421
   18CHL1   H7A 1270   1.416   0.742   9.772  0.1182 -1.1841 -1.1192
   18CHL1   H7B 1271   1.580   0.670   9.772  1.6795 -0.1460  1.5221
   18CHL1    C8 1272   1.398   0.529   9.773 -0.4451  0.6826  0.4240
   18CHL1    H8 1273   1.291   0.547   9.799 -0.7583  0.7008 -0.8144
   18CHL1   C14 1274   1.412   0.506   9.627  0.8041  0.5234 -0.5859
   18CHL1   H14 1275   1.519   0.480   9.620  0.8761  0.7370 -0.2775
   18CHL1   C15 1276   1.367   0.629   9.539  0.3487 -0.2323  0.3726
   18CHL1  H15A 1277   1.274   0.675   9.577 -0.4277 -0.7741 -0.8137
   18CHL1  H15B 1278   1.447   0.706   9.528  0.7505 -0.6951  0.0006
   18CHL1   C16 1279   1.339   0.556   9.410 -0.7487  0.2657  0.6233
   18CHL1  H16A 1280   1.240   0.588   9.370 -0.2457  0.5867 -0.4128
   18CHL1  H16B 1281   1.423   0.574   9.339 -1.6834  0.3331 -0.4958
   18CHL1   C17 1282   1.347   0.405   9.426 -0.0475  1.3231  0.5674
   18CHL1   H17 1283   1.452   0.373   9.410 -0.7695 -1.0581  0.0948
   18CHL1   C13 1284   1.333   0.376   9.576  0.8941 -0.2977 -0.7876
   18CHL1   C18 1285   1.180   0.387   9.609  0.1735  0.8343  0.2446
   18CHL1  H18A 1286   1.134   0.483   9.576  0.7105  0.8732 -0.4121
   18CHL1  H18B 1287   1.122   0.304   9.564 -0.9853  1.0374  1.3063
   18CHL1  H18C 1288   1.160   0.385   9.718 -2.5138  1.5107 -0.1600
   18CHL1   C12 1289   1.389   0.246   9.632 -0.3509 -0.3530 -0.1454
   18CHL1  H12A 1290   1.327   0.156   9.615 -0.9791  0.1631 -0.6400
   18CHL1  H12B 1291   1.482   0.220   9.578 -1.0843 -1.1119 -1.0829
   18CHL1   C11 1292   1.403   0.260   9.782 -0.8677 -0.3196 -0.0297
   18CHL1  H11A 1293   1.305   0.236   9.830 -1.0544  2.2626  1.0037
   18CHL1  H11B 1294   1.478   0.190   9.826 -0.7956  0.3364  0.9191
   18CHL1    C9 1295   1.450   0.401   9.843 -0.3215  0.6248 -0.1606
   18CHL1    H9 1296   1.559   0.407   9.822 -0.3964  0.6811 -0.5391
   18CHL1   C10 1297   1.440   0.418   9.997  0.8687  0.2117 -0.0782
   18CHL1   C19 1298   1.296   0.376  10.040 -0.3245 -0.0381 -0.0283
   18CHL1  H19A 1299   1.213   0.441  10.007 -0.8130 -0.7196 -0.1640
   18CHL1  H19B 1300   1.270   0.269  10.026  0.2693 -0.3122  0.8464
   18CHL1  H19C 1301   1.296   0.394  10.150 -0.5447  1.8178 -0.2967
   18CHL1    C1 1302   1.547   0.322  10.066  0.3597 -0.1332 -0.0075
   18CHL1   H1A 1303   1.519   0.222  10.025  0.3171 -0.4367  0.7627
   18CHL1   H1B 1304   1.645   0.347  10.021 -0.0727 -0.5112 -1.2054
   18CHL1    C2 1305   1.559   0.345  10.219 -0.3688  0.5419  0.5727
   18CHL1   H2A 1306   1.636   0.278  10.262  0.9443  2.1944  0.9153
   18CHL1   H2B 1307   1.462   0.315  10.264 -0.1678 -0.0588  0.6182
   18CHL1   C20 1308   1.255   0.329   9.321  0.1801 -0.2225 -0.1735
   18CHL1   H20 1309   1.148   0.357   9.331  0.0778 -0.9850  1.1374
   18CHL1   C21 1310   1.258   0.175   9.334 -0.3824  0.1293  0.5455
   18CHL1  H21A 1311   1.225   0.137   9.433 -4.7946 -2.3771 -1.5638
   18CHL1  H21B 1312   1.363   0.140   9.325 -0.9184 -1.4039 -0.0910
   18CHL1  H21C 1313   1.189   0.122   9.264 -1.4878 -0.1736  1.8282
   18CHL1   C22 1314   1.301   0.365   9.179 -1.1880  0.3455 -0.2510
   18CHL1  H22A 1315   1.352   0.462   9.161  0.7097 -0.6985 -0.7790
   18CHL1  H22B 1316   1.387   0.295   9.174 -1.6724 -0.2410 -0.4479
   18CHL1   C23 1317   1.199   0.347   9.076  0.3886 -0.1137  0.4671
   18CHL1  H23A 1318   1.157   0.244   9.069  0.8008 -0.3186  0.9293
   18CHL1  H23B 1319   1.108   0.394   9.119  0.4625 -0.1702  0.6855
   18CHL1   C24 1320   1.232   0.419   8.935  0.2472 -0.4297 -0.0592
   18CHL1  H24A 1321   1.154   0.392   8.862 -2.0909 -0.8155  2.4129
   18CHL1  H24B 1322   1.213   0.528   8.947  1.1358 -0.4822  2.4005
   18CHL1   C25 1323   1.372   0.386   8.876 -0.5096 -0.1595 -0.0662
   18CHL1   H25 1324   1.447   0.390   8.958 -1.9559 -4.1352  1.7342
   18CHL1   C26 1325   1.385   0.236   8.825 -0.6528 -0.1145 -0.2452
   18CHL1  H26A 1326   1.487   0.212   8.790 -0.2052  1.9892 -0.4996
   18CHL1  H26B 1327   1.342   0.161   8.895  0.3818  0.5636  1.1705
   18CHL1  H26C 1328   1.323   0.243   8.733  1.9030  1.3158 -1.9746
   18CHL1   C27 1329   1.410   0.483   8.763  0.5965  0.3189 -0.2461
   18CHL1  H27A 1330   1.447   0.580   8.804  1.8453 -0.2006 -0.1038
   18CHL1  H27B 1331   1.492   0.440   8.701  0.3629  1.3529 -1.3244
   18CHL1  H27C 1332   1.320   0.509   8.703  0.5976  1.8661  0.3780
   19CHL1    C3 1333   1.375   2.359  10.310  0.2877  0.0421 -0.0754
   19CHL1    H3 1334   1.292   2.432  10.299  0.6543  0.4719 -0.0149
   19CHL1    O3 1335   1.429   2.355  10.436 -0.2394 -0.6361  0.1336
   19CHL1   H3' 1336   1.515   2.328  10.405 -0.7812 -1.2717 -0.8674
   19CHL1    C4 1337   1.316   2.224  10.264  0.2675 -0.2727  0.5063
   19CHL1   H4A 1338   1.392   2.142  10.270  0.8281 -0.1506 -2.9660
   19CHL1   H4B 1339   1.226   2.207  10.326 -1.0790  0.3443 -1.2184
   19CHL1    C5 1340   1.271   2.217  10.117 -0.7898 -0.8764  0.4229
   19CHL1    C6 1341   1.145   2.186  10.086  0.1450  0.7470 -0.3900
   19CHL1    H6 1342   1.069   2.150  10.158 -0.4730 -1.1128 -1.8918
   19CHL1    C7 1343   1.087   2.185   9.944  0.0967  0.2945 -0.3988
   19CHL1   H7A 1344   1.013   2.103   9.942 -0.7283  1.0092  0.0690
   19CHL1   H7B 1345   1.035   2.283   9.939 -0.4703  0.1181  1.4026
   19CHL1    C8 1346   1.197   2.181   9.832 -0.5190 -0.5440 -0.5531
   19CHL1    H8 1347   1.241   2.080   9.841  2.3601  0.6759  0.2877
   19CHL1   C14 1348   1.139   2.202   9.697 -0.9589  0.1751 -0.0469
   19CHL1   H14 1349   1.098   2.305   9.690 -1.7437  0.0637  2.1353
   19CHL1   C15 1350   1.025   2.102   9.654 -0.0692 -0.0143  0.6020
   19CHL1  H15A 1351   1.035   1.999   9.693 -3.5347 -0.5135  0.4715
   19CHL1  H15B 1352   0.935   2.145   9.702 -0.4453 -0.5706  0.3996
   19CHL1   C16 1353   1.031   2.106   9.500  0.3542  0.4242  0.2987
   19CHL1  H16A 1354   1.069   2.008   9.463 -0.5499 -0.7940  2.4019
   19CHL1  H16B 1355   0.934   2.128   9.450  1.1324  0.0279 -1.4556
   19CHL1   C17 1356   1.146   2.210   9.455 -0.4657 -0.1262  0.1555
   19CHL1   H17 1357   1.104   2.312   9.468 -0.4397 -0.2617  1.5011
   19CHL1   C13 1358   1.242   2.200   9.585  0.0365  0.3474  0.0716
   19CHL1   C18 1359   1.318   2.063   9.584  0.2113  0.4239 -0.4234
   19CHL1  H18A 1360   1.398   2.072   9.507 -0.0541  2.0417 -0.5375
   19CHL1  H18B 1361   1.365   2.041   9.682 -1.6404  0.7050  0.5822
   19CHL1  H18C 1362   1.253   1.975   9.561  2.2408 -1.7345  1.5551
   19CHL1   C12 1363   1.346   2.302   9.616 -0.0076  0.0878 -0.1367
   19CHL1  H12A 1364   1.416   2.323   9.532 -0.0691 -0.5384 -0.3468
   19CHL1  H12B 1365   1.287   2.396   9.620  0.9866  0.7285 -0.2594
   19CHL1   C11 1366   1.416   2.289   9.752 -0.6044  0.1168  0.1133
   19CHL1  H11A 1367   1.481   2.199   9.742 -0.8282 -0.2025  1.2954
   19CHL1  H11B 1368   1.485   2.375   9.761  0.0974 -0.4103 -0.0789
   19CHL1    C9 1369   1.310   2.284   9.870 -0.2783  0.0073  0.8240
   19CHL1    H9 1370   1.256   2.380   9.884 -1.3000 -0.2424 -1.1019
   19CHL1   C10 1371   1.371   2.263  10.010 -0.0451  0.9482  0.3127
   19CHL1   C19 1372   1.470   2.136  10.012  0.5453 -0.3312  0.5156
   19CHL1  H19A 1373   1.546   2.152   9.933  0.7752  0.3324  0.8652
   19CHL1  H19B 1374   1.525   2.118  10.107  1.5196 -0.3722 -0.0461
   19CHL1  H19C 1375   1.423   2.041   9.980  0.5694 -0.5956  1.2369
   19CHL1    C1 1376   1.437   2.391  10.069 -0.7191  0.4460  1.0094
   19CHL1   H1A 1377   1.521   2.412   9.999 -1.1485 -1.1236 -0.0309
   19CHL1   H1B 1378   1.361   2.472  10.060 -3.1806 -1.6654  1.5326
   19CHL1    C2 1379   1.488   2.393  10.213 -0.4929  0.4004  0.2709
   19CHL1   H2A 1380   1.528   2.492  10.242  2.0737 -1.0897  2.1502
   19CHL1   H2B 1381   1.572   2.325  10.235  0.8243  1.3120 -1.6016
   19CHL1   C20 1382   1.205   2.179   9.314  0.4667  0.0148 -0.4266
   19CHL1   H20 1383   1.241   2.075   9.325 -0.8858 -0.3548  0.8624
   19CHL1   C21 1384   1.335   2.259   9.293 -0.7016 -0.5924  0.9324
   19CHL1  H21A 1385   1.366   2.255   9.186 -0.1009  1.6806  0.9661
   19CHL1  H21B 1386   1.416   2.209   9.351 -1.0135 -3.2974 -0.7990
   19CHL1  H21C 1387   1.313   2.364   9.319 -0.8664 -0.1345 -0.9001
   19CHL1   C22 1388   1.109   2.179   9.195 -0.1945  0.4914  0.2418
   19CHL1  H22A 1389   1.171   2.117   9.127 -2.2384 -1.3050 -0.1187
   19CHL1  H22B 1390   1.018   2.118   9.213  1.2649 -2.3014 -1.0884
   19CHL1   C23 1391   1.073   2.318   9.132 -0.3739  0.0268  0.4236
   19CHL1  H23A 1392   0.994   2.370   9.191 -0.0661  0.2558  0.6399
   19CHL1  H23B 1393   1.162   2.386   9.135 -1.0139  1.0350 -1.5767
   19CHL1   C24 1394   1.022   2.298   8.987  0.0106  0.2739  0.4213
   19CHL1  H24A 1395   1.099   2.232   8.942  1.6998  1.2336  1.8152
   19CHL1  H24B 1396   0.920   2.256   8.997  0.0553  0.2120  0.6143
   19CHL1   C25 1397   1.017   2.425   8.900  0.0654 -0.4768 -0.4953
   19CHL1   H25 1398   0.966   2.495   8.968 -1.9832 -1.6139 -0.7815
   19CHL1   C26 1399   1.152   2.494   8.858 -0.1909  0.9039 -0.3136
   19CHL1  H26A 1400   1.137   2.581   8.790 -2.4950  0.4217 -0.5026
   19CHL1  H26B 1401   1.217   2.523   8.943 -1.3120 -0.4490  1.0719
   19CHL1  H26C 1402   1.211   2.414   8.809  0.8690 -0.2814  2.6759
   19CHL1   C27 1403   0.931   2.402   8.774  0.1616 -0.4057  0.6889
   19CHL1  H27A 1404   0.823   2.377   8.782 -0.0812 -0.2527 -1.5528
   19CHL1  H27B 1405   0.927   2.482   8.698 -1.2242  0.7121  1.8721
   19CHL1  H27C 1406   0.969   2.314   8.717  0.0888  1.0560 -1.7616
   20CHL1    C3 1407   6.762   3.104  10.450 -0.3051  0.0993  0.0691
   20CHL1    H3 1408   6.670   3.164  10.435  1.1715  2.1152 -1.4534
   20CHL1    O3 1409   6.791   3.105  10.587  0.0838 -0.3871  0.1239
   20CHL1   H3' 1410   6.878   3.142  10.600  0.0585 -0.7958  1.7206
   20CHL1    C4 1411   6.723   2.959  10.411  0.7350 -0.1860  0.2531
   20CHL1   H4A 1412   6.805   2.892  10.445  2.4711  1.3339 -0.6996
   20CHL1   H4B 1413   6.636   2.929  10.472  1.8221 -0.9568  1.4775
   20CHL1    C5 1414   6.699   2.937  10.263 -0.5444  0.3980 -0.5044
   20CHL1    C6 1415   6.583   2.888  10.215 -0.3964  0.6988 -0.1881
   20CHL1    H6 1416   6.509   2.849  10.287 -2.7976  0.9382 -2.4020
   20CHL1    C7 1417   6.548   2.870  10.067  0.1353  0.2238 -0.3959
   20CHL1   H7A 1418   6.502   2.770  10.056 -0.3725  0.3443  0.5866
   20CHL1   H7B 1419   6.474   2.945  10.033 -0.6861 -0.5218 -0.2798
   20CHL1    C8 1420   6.678   2.865   9.985 -0.7449  0.0872  0.8004
   20CHL1    H8 1421   6.729   2.769  10.010  0.9608  0.7989  0.1840
   20CHL1   C14 1422   6.646   2.885   9.837 -0.2890  0.1905 -0.3644
   20CHL1   H14 1423   6.591   2.982   9.831 -0.8102 -0.1110 -0.5964
   20CHL1   C15 1424   6.537   2.784   9.778  0.1205 -0.1007 -0.6828
   20CHL1  H15A 1425   6.571   2.684   9.812 -0.6223  0.0270  0.4816
   20CHL1  H15B 1426   6.438   2.816   9.817 -0.9666 -0.1714 -3.2166
   20CHL1   C16 1427   6.552   2.804   9.629 -0.1962 -0.2425 -0.2879
   20CHL1  H16A 1428   6.589   2.704   9.596  1.6517  0.1994  0.3469
   20CHL1  H16B 1429   6.462   2.842   9.576 -0.3752  0.3772  0.4395
   20CHL1   C17 1430   6.675   2.900   9.611  0.2090 -0.3114  0.0315
   20CHL1   H17 1431   6.627   3.000   9.619  2.2677  0.7083  0.2013
   20CHL1   C13 1432   6.759   2.891   9.740  0.2947 -0.3189 -0.5246
   20CHL1   C18 1433   6.837   2.759   9.739  0.3533 -0.0631 -0.2375
   20CHL1  H18A 1434   6.909   2.759   9.654  1.3966  0.6639  0.6148
   20CHL1  H18B 1435   6.882   2.737   9.838 -0.9873 -0.8209  0.2283
   20CHL1  H18C 1436   6.773   2.669   9.728  0.5419 -0.4907  1.8490
   20CHL1   C12 1437   6.848   3.010   9.778 -0.2888  0.9133 -0.4123
   20CHL1  H12A 1438   6.942   3.006   9.717  1.9064  1.8972  2.6531
   20CHL1  H12B 1439   6.798   3.105   9.749 -0.4059  0.5908 -1.3005
   20CHL1   C11 1440   6.891   3.002   9.923 -0.0895  0.2057  0.0815
   20CHL1  H11A 1441   6.969   2.923   9.933 -0.2945 -0.0851 -0.5754
   20CHL1  H11B 1442   6.937   3.094   9.965  0.1138 -0.8092  2.2444
   20CHL1    C9 1443   6.775   2.979  10.017  0.5016 -0.1607 -0.1223
   20CHL1    H9 1444   6.709   3.069  10.013 -0.3308 -0.6597  1.4306
   20CHL1   C10 1445   6.815   2.978  10.173  0.0148 -0.0709 -0.0265
   20CHL1   C19 1446   6.932   2.877  10.192  0.3142 -0.3239  0.0198
   20CHL1  H19A 1447   7.017   2.916  10.130 -1.7160  0.5500 -2.3934
   20CHL1  H19B 1448   6.969   2.856  10.294 -1.5077  0.5884  0.9164
   20CHL1  H19C 1449   6.903   2.776  10.155 -1.7136 -0.4858  1.9046
   20CHL1    C1 1450   6.853   3.119  10.213  0.4359  0.5148  0.7803
   20CHL1   H1A 1451   6.937   3.156  10.152 -0.5990  1.3577 -0.1775
   20CHL1   H1B 1452   6.769   3.186  10.182 -0.2671 -0.3885  0.6792
   20CHL1    C2 1453   6.883   3.144  10.366 -0.3185  0.3266  0.4132
   20CHL1   H2A 1454   6.891   3.253  10.381  0.1796 -0.0025  2.9441
   20CHL1   H2B 1455   6.971   3.083  10.395 -0.0172  0.1994 -0.7149
   20CHL1   C20 1456   6.748   2.897   9.473  0.4896  1.1729 -0.8595
   20CHL1   H20 1457   6.848   2.938   9.499  2.2914 -2.4686 -1.2718
   20CHL1   C21 1458   6.684   2.997   9.374  0.7606  0.5431 -0.3665
   20CHL1  H21A 1459   6.662   3.088   9.433 -0.0708 -0.1725  0.4438
   20CHL1  H21B 1460   6.592   2.960   9.325  1.7206 -3.5397  0.5637
   20CHL1  H21C 1461   6.767   3.016   9.302  1.1265 -0.2866 -0.1708
   20CHL1   C22 1462   6.763   2.751   9.418  0.3995 -0.3226 -0.0361
   20CHL1  H22A 1463   6.770   2.677   9.500  0.9884 -0.4914 -0.2364
   20CHL1  H22B 1464   6.675   2.730   9.353  1.1819  0.9168 -1.5515
   20CHL1   C23 1465   6.889   2.726   9.330  0.1539 -0.1428 -0.4888
   20CHL1  H23A 1466   6.882   2.804   9.251  1.0765 -0.5368 -0.9763
   20CHL1  H23B 1467   6.979   2.753   9.389 -1.3311 -1.2807  2.4992
   20CHL1   C24 1468   6.885   2.587   9.261  0.1442  0.2870 -0.5294
   20CHL1  H24A 1469   6.909   2.510   9.337 -2.9225 -0.3953 -0.1160
   20CHL1  H24B 1470   6.778   2.564   9.244  0.0750 -1.3514  1.6947
   20CHL1   C25 1471   6.971   2.577   9.142  0.1612 -0.3113  0.2170
   20CHL1   H25 1472   7.073   2.618   9.154 -0.0809 -0.1353  1.8568
   20CHL1   C26 1473   6.986   2.423   9.110 -0.2122 -0.8989  0.4530
   20CHL1  H26A 1474   7.023   2.358   9.191 -0.4500 -1.9099 -0.2322
   20CHL1  H26B 1475   6.901   2.366   9.067 -0.3710 -1.5861  1.6365
   20CHL1  H26C 1476   7.060   2.414   9.027  1.0595  3.5377  0.8524
   20CHL1   C27 1477   6.912   2.640   9.019 -0.5714 -0.2728 -0.1831
   20CHL1  H27A 1478   6.829   2.582   8.974  0.3631  1.3437 -4.4344
   20CHL1  H27B 1479   6.877   2.744   9.039  0.4197  0.0358 -0.0014
   20CHL1  H27C 1480   6.992   2.651   8.943  0.3380 -0.8670  0.6596
   21CHL1    C3 1481   1.080   0.726  10.271  0.6958  0.4971 -0.0648
   21CHL1    H3 1482   1.167   0.659  10.251 -0.1081 -1.0663  1.4479
   21CHL1    O3 1483   1.103   0.761  10.409 -0.3039 -0.0143 -0.3030
   21CHL1   H3' 1484   1.024   0.808  10.437 -0.2211  0.2980 -0.5803
   21CHL1    C4 1485   1.086   0.854  10.182  0.6095 -0.0212 -0.3028
   21CHL1   H4A 1486   1.006   0.925  10.214  0.5904  0.1482 -0.7162
   21CHL1   H4B 1487   1.185   0.900  10.204 -0.9330  2.6101  1.8447
   21CHL1    C5 1488   1.058   0.829  10.041 -0.0356 -0.1676  0.4677
   21CHL1    C6 1489   1.138   0.882   9.946 -0.4944 -0.1447 -0.5868
   21CHL1    H6 1490   1.226   0.940   9.979  1.2415 -2.3300 -1.1263
   21CHL1    C7 1491   1.114   0.861   9.800 -1.0376  0.4485  0.1703
   21CHL1   H7A 1492   1.129   0.950   9.737  0.7814  0.7568  0.9905
   21CHL1   H7B 1493   1.187   0.783   9.771  1.3469  2.3203  0.8420
   21CHL1    C8 1494   0.972   0.805   9.773 -0.2182  0.1587 -0.1842
   21CHL1    H8 1495   0.905   0.892   9.788 -0.1350  0.2447 -0.3148
   21CHL1   C14 1496   0.969   0.761   9.627 -0.2380  0.5793  0.0340
   21CHL1   H14 1497   1.032   0.670   9.619  0.2203  1.0316 -2.1041
   21CHL1   C15 1498   1.017   0.861   9.523 -0.5870 -0.4822  0.1646
   21CHL1  H15A 1499   0.967   0.960   9.522  2.9184  1.4586  0.2458
   21CHL1  H15B 1500   1.128   0.871   9.532 -0.5922  2.0606 -1.6464
   21CHL1   C16 1501   0.971   0.794   9.395  0.1487 -0.1091  0.0458
   21CHL1  H16A 1502   0.903   0.865   9.343 -0.0462  0.7004  1.3487
   21CHL1  H16B 1503   1.062   0.761   9.341  1.0540  1.6154  0.4575
   21CHL1   C17 1504   0.875   0.673   9.429 -0.2755  0.0708 -0.2898
   21CHL1   H17 1505   0.940   0.582   9.433  1.6804  1.4146  3.5288
   21CHL1   C13 1506   0.835   0.701   9.576  0.3152 -0.0154 -0.0017
   21CHL1   C18 1507   0.727   0.812   9.585 -0.4458 -0.0883 -0.1689
   21CHL1  H18A 1508   0.697   0.855   9.683 -1.5047 -0.4719 -0.3101
   21CHL1  H18B 1509   0.753   0.904   9.528 -0.5819 -0.1723 -0.3698
   21CHL1  H18C 1510   0.635   0.769   9.539 -0.5776  0.2384 -0.2145
   21CHL1   C12 1511   0.802   0.587   9.672 -0.1629  0.5803  0.2922
   21CHL1  H12A 1512   0.703   0.543   9.648  0.8236 -0.8535 -1.3575
   21CHL1  H12B 1513   0.873   0.502   9.666 -1.2449 -0.3666  0.5335
   21CHL1   C11 1514   0.791   0.634   9.817 -0.3410  0.0790  0.0980
   21CHL1  H11A 1515   0.713   0.713   9.826  0.7673  1.4130 -1.3884
   21CHL1  H11B 1516   0.761   0.552   9.885  0.9246 -1.0233 -0.6234
   21CHL1    C9 1517   0.930   0.694   9.867  0.0640  0.6704 -0.0587
   21CHL1    H9 1518   0.997   0.606   9.856 -1.3828 -0.7400  1.8436
   21CHL1   C10 1519   0.930   0.739  10.011  1.1836  0.2431 -0.2672
   21CHL1   C19 1520   0.805   0.817  10.033 -0.1995 -0.0407 -0.0541
   21CHL1  H19A 1521   0.809   0.863  10.134  2.2473  1.2730 -0.6597
   21CHL1  H19B 1522   0.792   0.912   9.976  1.4936  0.6969  0.7432
   21CHL1  H19C 1523   0.708   0.762  10.037 -0.3209 -0.1500 -2.6902
   21CHL1    C1 1524   0.921   0.614  10.104 -0.4620 -0.0085 -0.1207
   21CHL1   H1A 1525   0.831   0.551  10.085 -0.9764  1.1762 -1.8163
   21CHL1   H1B 1526   1.007   0.549  10.076  0.4670  0.0951  2.2549
   21CHL1    C2 1527   0.940   0.654  10.250 -0.1316 -0.4850 -0.1187
   21CHL1   H2A 1528   0.932   0.561  10.311  1.7931 -0.7921 -0.2752
   21CHL1   H2B 1529   0.863   0.726  10.285 -0.2258 -0.4277 -0.4460
   21CHL1   C20 1530   0.771   0.657   9.321 -0.5547 -0.5228  0.6403
   21CHL1   H20 1531   0.702   0.744   9.322  0.8777  0.6338  1.2057
   21CHL1   C21 1532   0.690   0.529   9.356  0.3026 -0.0799 -0.1595
   21CHL1  H21A 1533   0.742   0.431   9.366  0.2625 -0.0636  0.2044
   21CHL1  H21B 1534   0.597   0.524   9.296 -1.6373  2.7276  2.3058
   21CHL1  H21C 1535   0.647   0.527   9.458  0.1552 -1.7329 -0.2261
   21CHL1   C22 1536   0.834   0.629   9.176 -0.1483  0.0721 -0.1334
   21CHL1  H22A 1537   0.918   0.699   9.154  1.0246 -1.4698 -0.6998
   21CHL1  H22B 1538   0.869   0.524   9.174 -0.1900 -0.0372  2.2367
   21CHL1   C23 1539   0.724   0.644   9.066  0.2690 -0.4066 -0.9443
   21CHL1  H23A 1540   0.653   0.562   9.091  0.6897 -0.6422 -0.5127
   21CHL1  H23B 1541   0.670   0.740   9.083  1.7722  0.1738  0.8338
   21CHL1   C24 1542   0.775   0.628   8.921  0.7316  0.0559 -0.2640
   21CHL1  H24A 1543   0.858   0.699   8.904  0.7856 -0.2335 -1.2454
   21CHL1  H24B 1544   0.818   0.525   8.920  1.8111  0.3646  2.6380
   21CHL1   C25 1545   0.653   0.655   8.825 -0.5607 -0.4447  0.2099
   21CHL1   H25 1546   0.607   0.754   8.848 -0.6583 -0.4185 -0.0907
   21CHL1   C26 1547   0.704   0.667   8.680  0.2811 -0.1876 -0.0761
   21CHL1  H26A 1548   0.763   0.759   8.661  1.5799 -0.9091  0.3497
   21CHL1  H26B 1549   0.765   0.577   8.659 -0.0484 -0.7999  1.4845
   21CHL1  H26C 1550   0.621   0.669   8.607 -1.1211  3.4596  1.3937
   21CHL1   C27 1551   0.547   0.544   8.842 -0.0162 -0.3169  0.0311
   21CHL1  H27A 1552   0.485   0.566   8.931  0.0111  2.9698 -0.6246
   21CHL1  H27B 1553   0.467   0.545   8.765 -0.0378 -0.2416  0.0542
   21CHL1  H27C 1554   0.593   0.443   8.845 -0.0658 -0.3674 -0.7780
   22CHL1    C3 1555   6.215   1.076  10.157 -0.2969  0.0907 -0.2529
   22CHL1    H3 1556   6.156   0.985  10.131  0.5482 -0.4404 -0.3716
   22CHL1    O3 1557   6.235   1.072  10.299  0.0820  0.6041 -0.0258
   22CHL1   H3' 1558   6.181   1.144  10.334 -0.2187  0.7235 -0.7151
   22CHL1    C4 1559   6.353   1.063  10.084 -0.2930 -0.3333  0.1026
   22CHL1   H4A 1560   6.417   1.142  10.130 -0.6040  0.0871 -0.1890
   22CHL1   H4B 1561   6.415   0.972  10.102  0.0360  0.2819  2.3465
   22CHL1    C5 1562   6.328   1.084   9.936 -0.4390 -0.1729  0.0030
   22CHL1    C6 1563   6.379   1.001   9.847 -0.0559  0.4938  0.4914
   22CHL1    H6 1564   6.429   0.909   9.879  0.8864  0.1025 -1.8777
   22CHL1    C7 1565   6.376   1.027   9.699  0.1751 -0.1744 -0.4387
   22CHL1   H7A 1566   6.478   1.034   9.655  0.6487  0.7219  0.7215
   22CHL1   H7B 1567   6.330   0.947   9.638  1.4060 -0.2330 -1.3411
   22CHL1    C8 1568   6.323   1.168   9.654 -0.4522  0.1144 -0.5328
   22CHL1    H8 1569   6.410   1.237   9.650 -0.9161  0.7676  0.4147
   22CHL1   C14 1570   6.270   1.150   9.513  0.0984 -0.3381  0.1277
   22CHL1   H14 1571   6.187   1.078   9.526  1.0706 -2.4867 -3.7419
   22CHL1   C15 1572   6.359   1.088   9.405 -0.1322  0.0414  1.4939
   22CHL1  H15A 1573   6.453   1.146   9.397 -0.5523  0.4899 -0.8966
   22CHL1  H15B 1574   6.378   0.978   9.413  2.0554  0.3618  1.3245
   22CHL1   C16 1575   6.271   1.105   9.276 -0.1516  0.2470 -0.0772
   22CHL1  H16A 1576   6.347   1.142   9.203 -0.0308 -2.3581 -1.4216
   22CHL1  H16B 1577   6.230   1.005   9.250 -2.6615  0.8229  1.3329
   22CHL1   C17 1578   6.162   1.206   9.324 -0.0486  0.8359  0.3832
   22CHL1   H17 1579   6.088   1.126   9.343 -1.0499  1.1955 -1.7175
   22CHL1   C13 1580   6.211   1.271   9.454  0.2236 -0.2474  0.0017
   22CHL1   C18 1581   6.314   1.392   9.423  0.5268  0.7208  0.7530
   22CHL1  H18A 1582   6.349   1.426   9.523  0.9480  0.1414  0.8063
   22CHL1  H18B 1583   6.411   1.367   9.375 -0.3213 -1.5005  0.0792
   22CHL1  H18C 1584   6.260   1.456   9.350 -0.0195 -1.5140 -0.9203
   22CHL1   C12 1585   6.099   1.329   9.546  0.3083 -0.5616  0.3687
   22CHL1  H12A 1586   6.050   1.424   9.517 -1.2518 -0.7315  2.2420
   22CHL1  H12B 1587   6.021   1.250   9.547 -0.0452 -0.2390 -0.5499
   22CHL1   C11 1588   6.142   1.341   9.689 -0.1068  0.3706  0.1659
   22CHL1  H11A 1589   6.214   1.426   9.685  1.2510 -0.7820 -2.1941
   22CHL1  H11B 1590   6.056   1.361   9.756  0.2769 -0.8713  1.0595
   22CHL1    C9 1591   6.211   1.212   9.743  0.3160 -0.4773 -0.6005
   22CHL1    H9 1592   6.136   1.130   9.733  0.0207 -0.2437 -0.3303
   22CHL1   C10 1593   6.246   1.214   9.897  0.1070  0.3972 -0.1454
   22CHL1   C19 1594   6.328   1.345   9.921 -0.1522  0.5946 -0.4742
   22CHL1  H19A 1595   6.400   1.356   9.837 -0.6780 -0.9493 -1.1492
   22CHL1  H19B 1596   6.259   1.432   9.919  1.7389  2.1743 -0.0199
   22CHL1  H19C 1597   6.368   1.347  10.025 -1.6532 -0.8259  0.1566
   22CHL1    C1 1598   6.115   1.218   9.976  0.3456 -0.2634  0.0648
   22CHL1   H1A 1599   6.057   1.311   9.959  1.3848  0.8591  2.1974
   22CHL1   H1B 1600   6.065   1.130   9.932 -2.4679  0.3043  1.8161
   22CHL1    C2 1601   6.140   1.207  10.126  0.2073  0.0854  0.5140
   22CHL1   H2A 1602   6.045   1.196  10.181 -0.0656  1.1826  0.2722
   22CHL1   H2B 1603   6.196   1.296  10.161 -1.0277  0.3031  2.0118
   22CHL1   C20 1604   6.093   1.294   9.218 -0.4880  0.0290  0.1512
   22CHL1   H20 1605   6.057   1.380   9.278  1.1550  1.2132 -0.4957
   22CHL1   C21 1606   5.973   1.217   9.160 -0.0725 -0.1172 -0.4251
   22CHL1  H21A 1607   5.903   1.288   9.111 -0.4810  2.5241  3.5528
   22CHL1  H21B 1608   5.922   1.172   9.248 -2.2571  1.1941 -0.9443
   22CHL1  H21C 1609   6.008   1.132   9.098 -0.8697 -1.2015  0.5507
   22CHL1   C22 1610   6.180   1.352   9.102  0.3633 -0.0451  0.4177
   22CHL1  H22A 1611   6.279   1.395   9.126 -0.2392  0.7488  1.5572
   22CHL1  H22B 1612   6.197   1.263   9.037 -2.6026  0.8066 -1.7816
   22CHL1   C23 1613   6.109   1.456   9.016 -0.0376 -0.6704 -0.6091
   22CHL1  H23A 1614   6.004   1.423   9.005 -0.4131  0.4302 -0.3965
   22CHL1  H23B 1615   6.103   1.544   9.083 -0.6082 -0.3736 -1.0479
   22CHL1   C24 1616   6.156   1.478   8.879  0.2973  0.0041 -0.3914
   22CHL1  H24A 1617   6.079   1.540   8.826 -1.1803 -2.2373 -1.0010
   22CHL1  H24B 1618   6.252   1.533   8.865 -0.4693  1.0248 -2.1012
   22CHL1   C25 1619   6.170   1.355   8.787  0.0684 -0.3069 -0.2345
   22CHL1   H25 1620   6.229   1.273   8.834  0.6959  0.2461 -0.0409
   22CHL1   C26 1621   6.029   1.308   8.750 -0.0565  0.3496 -0.7196
   22CHL1  H26A 1622   5.963   1.396   8.738 -0.2160  0.1057 -1.7317
   22CHL1  H26B 1623   6.029   1.234   8.667  1.6172 -0.8299  0.2736
   22CHL1  H26C 1624   5.979   1.256   8.836 -1.6560  0.5026 -1.5123
   22CHL1   C27 1625   6.245   1.402   8.662  0.0392 -0.2394 -0.7437
   22CHL1  H27A 1626   6.211   1.506   8.640 -4.0044 -1.3711 -0.6520
   22CHL1  H27B 1627   6.355   1.399   8.677 -0.1629  0.5017  1.2350
   22CHL1  H27C 1628   6.213   1.341   8.575 -1.7791  2.1566 -1.8796
   23CHL1    C3 1629   3.850   2.352  10.163  0.1443  0.4297  0.6018
   23CHL1    H3 1630   3.809   2.249  10.158 -1.6372  1.1470 -0.7614
   23CHL1    O3 1631   3.901   2.387  10.294 -0.1290  0.1401  0.1185
   23CHL1   H3' 1632   3.824   2.362  10.346  0.8354 -0.6686  1.2124
   23CHL1    C4 1633   3.961   2.360  10.056 -0.6682  0.0924 -0.2537
   23CHL1   H4A 1634   3.998   2.464  10.066  0.0354 -0.2189  0.5406
   23CHL1   H4B 1635   4.043   2.293  10.092 -0.6887  0.0943 -0.2031
   23CHL1    C5 1636   3.927   2.332   9.919 -0.1520  0.4415  0.3201
   23CHL1    C6 1637   3.982   2.228   9.853 -0.5348  0.2477  0.4806
   23CHL1    H6 1638   4.067   2.177   9.901  0.1205  1.4174  0.5955
   23CHL1    C7 1639   3.959   2.196   9.706  0.3873 -0.1265  0.4227
   23CHL1   H7A 1640   4.042   2.156   9.643  0.9290  0.1375  0.9610
   23CHL1   H7B 1641   3.875   2.124   9.700 -2.1762  2.3863  3.1305
   23CHL1    C8 1642   3.892   2.324   9.643  0.0069 -0.4663 -0.3056
   23CHL1    H8 1643   3.967   2.405   9.630  1.1629 -1.6030 -1.0380
   23CHL1   C14 1644   3.854   2.295   9.500 -0.2539  0.4010 -0.1688
   23CHL1   H14 1645   3.781   2.211   9.494 -1.5617  1.5976 -3.4188
   23CHL1   C15 1646   3.969   2.260   9.401  0.0966 -0.0380  0.2678
   23CHL1  H15A 1647   4.048   2.334   9.426  0.4486  0.1737 -1.3647
   23CHL1  H15B 1648   4.016   2.160   9.406 -0.5214 -0.3017  1.0890
   23CHL1   C16 1649   3.894   2.275   9.265  0.3741 -0.3881 -0.1507
   23CHL1  H16A 1650   3.956   2.336   9.196 -1.1576  1.6012  0.1579
   23CHL1  H16B 1651   3.882   2.168   9.235  0.4950  0.2534 -2.6985
   23CHL1   C17 1652   3.758   2.349   9.292 -0.3303 -0.3528  0.5289
   23CHL1   H17 1653   3.677   2.275   9.312 -1.6896  1.4643  2.2731
   23CHL1   C13 1654   3.770   2.411   9.430  0.5373  0.5186 -0.0147
   23CHL1   C18 1655   3.854   2.536   9.420 -0.0045 -0.0197  0.0058
   23CHL1  H18A 1656   3.797   2.621   9.376 -0.1553 -0.3882 -0.5181
   23CHL1  H18B 1657   3.886   2.564   9.523  0.5000 -2.8770  0.7231
   23CHL1  H18C 1658   3.953   2.515   9.373  1.4095  0.8757  2.3775
   23CHL1   C12 1659   3.647   2.434   9.503 -0.6333  0.6002 -0.6262
   23CHL1  H12A 1660   3.571   2.502   9.458 -1.7555 -0.8758 -1.0473
   23CHL1  H12B 1661   3.594   2.336   9.503  1.1171 -0.3995  0.0837
   23CHL1   C11 1662   3.667   2.476   9.649 -0.4430  0.1263  0.4203
   23CHL1  H11A 1663   3.707   2.579   9.645  0.2538 -0.1505  0.1264
   23CHL1  H11B 1664   3.574   2.478   9.709 -1.2247  1.4699 -0.7851
   23CHL1    C9 1665   3.770   2.373   9.728 -0.1227 -0.3906  0.1381
   23CHL1    H9 1666   3.711   2.280   9.746 -0.6508 -0.2915 -0.9592
   23CHL1   C10 1667   3.817   2.429   9.866 -0.5170  0.1873 -0.3955
   23CHL1   C19 1668   3.873   2.575   9.846  0.0493 -0.0091 -0.2169
   23CHL1  H19A 1669   3.781   2.636   9.836 -1.4309 -2.0677  0.1613
   23CHL1  H19B 1670   3.930   2.605   9.937  1.1042 -0.5244 -0.6911
   23CHL1  H19C 1671   3.943   2.586   9.761  0.6771  3.3043  0.5914
   23CHL1    C1 1672   3.699   2.417   9.972  1.4425  0.6762  0.4891
   23CHL1   H1A 1673   3.612   2.479   9.943 -0.5292 -2.0238  0.2575
   23CHL1   H1B 1674   3.659   2.314   9.980 -1.5324  1.8080  1.5148
   23CHL1    C2 1675   3.733   2.446  10.122  0.2944 -0.7653  0.3775
   23CHL1   H2A 1676   3.639   2.436  10.181  0.8113 -0.0476  1.3447
   23CHL1   H2B 1677   3.767   2.552  10.121 -1.0004 -0.3273 -1.0869
   23CHL1   C20 1678   3.703   2.431   9.175  0.2305 -0.1743  0.3341
   23CHL1   H20 1679   3.765   2.523   9.175 -1.1201  0.8057 -1.5281
   23CHL1   C21 1680   3.559   2.477   9.193  0.3789  0.0262 -0.5894
   23CHL1  H21A 1681   3.493   2.393   9.224  0.5813  0.0555 -0.0627
   23CHL1  H21B 1682   3.523   2.528   9.101  3.1428  1.9760 -0.7085
   23CHL1  H21C 1683   3.557   2.555   9.273  0.1759 -0.4126 -0.1638
   23CHL1   C22 1684   3.712   2.362   9.030  0.3424 -0.1442 -0.0730
   23CHL1  H22A 1685   3.793   2.288   9.016 -0.2101 -0.5195 -1.5453
   23CHL1  H22B 1686   3.624   2.294   9.026 -0.9682  1.5205 -0.7499
   23CHL1   C23 1687   3.711   2.458   8.913  0.2705 -0.4339  0.3720
   23CHL1  H23A 1688   3.618   2.519   8.913  0.9062  0.5754  0.0906
   23CHL1  H23B 1689   3.792   2.532   8.931  0.8814 -0.9103 -0.3983
   23CHL1   C24 1690   3.738   2.384   8.782 -0.2009  0.6830 -0.5834
   23CHL1  H24A 1691   3.848   2.403   8.774  0.0644  0.1782  1.2312
   23CHL1  H24B 1692   3.706   2.279   8.793 -2.0385  0.9702 -2.5829
   23CHL1   C25 1693   3.654   2.441   8.664  0.4461 -0.0110 -0.7472
   23CHL1   H25 1694   3.684   2.548   8.665  0.5581 -0.0504  0.2737
   23CHL1   C26 1695   3.705   2.372   8.535 -0.6655 -0.3225  0.2479
   23CHL1  H26A 1696   3.810   2.402   8.518 -1.1039  2.5498  1.9478
   23CHL1  H26B 1697   3.695   2.261   8.539 -1.6695 -0.2851 -0.6491
   23CHL1  H26C 1698   3.637   2.408   8.455 -1.6829 -0.3896  1.0620
   23CHL1   C27 1699   3.497   2.409   8.676 -0.0628 -0.0276 -0.5030
   23CHL1  H27A 1700   3.503   2.298   8.681 -0.2351 -0.0084  0.2511
   23CHL1  H27B 1701   3.457   2.462   8.764  0.1642  1.4259 -1.2484
   23CHL1  H27C 1702   3.435   2.430   8.586  1.6924 -2.6558 -2.5081
   24CHL1    C3 1703   4.939   3.312  10.176  0.1191 -0.6082 -0.4643
   24CHL1    H3 1704   5.046   3.342  10.164  0.3069 -0.1205  1.8925
   24CHL1    O3 1705   4.915   3.305  10.311  0.0159  0.1738 -0.3883
   24CHL1   H3' 1706   4.911   3.396  10.343 -0.8107  0.8765 -2.3509
   24CHL1    C4 1707   4.849   3.422  10.111  0.1047  0.6819 -0.0304
   24CHL1   H4A 1708   4.744   3.402  10.138  0.2329 -1.5657 -0.9764
   24CHL1   H4B 1709   4.869   3.521  10.158 -2.3882  1.3836 -0.3415
   24CHL1    C5 1710   4.873   3.431   9.962 -1.0872  0.7169  0.3364
   24CHL1    C6 1711   4.934   3.534   9.900  0.2367 -0.0959 -0.0998
   24CHL1    H6 1712   4.962   3.619   9.966 -0.5658 -0.0430  0.1817
   24CHL1    C7 1713   4.942   3.548   9.755  0.3512 -0.0370  0.3199
   24CHL1   H7A 1714   4.901   3.649   9.733  2.2418  0.6316 -0.3297
   24CHL1   H7B 1715   5.050   3.551   9.729  0.2681 -2.2544 -0.4710
   24CHL1    C8 1716   4.862   3.439   9.676 -0.3573 -0.0763 -0.1099
   24CHL1    H8 1717   4.754   3.460   9.663  0.2617  1.9411 -3.1594
   24CHL1   C14 1718   4.914   3.446   9.529  0.1713  0.3995  0.1631
   24CHL1   H14 1719   5.024   3.440   9.542 -0.0342  0.6022  2.2197
   24CHL1   C15 1720   4.881   3.576   9.447 -0.1202  0.2606 -0.2945
   24CHL1  H15A 1721   4.777   3.594   9.482  0.0656  0.1059  0.3447
   24CHL1  H15B 1722   4.956   3.653   9.475  0.7243 -0.8415  0.5474
   24CHL1   C16 1723   4.894   3.535   9.301  0.1602  1.1352  0.1215
   24CHL1  H16A 1724   4.798   3.562   9.252  1.1162  3.8213 -0.4306
   24CHL1  H16B 1725   4.979   3.571   9.240  0.1405  0.4130 -0.3489
   24CHL1   C17 1726   4.918   3.374   9.301 -0.3016 -0.3516 -0.0844
   24CHL1   H17 1727   5.028   3.356   9.303 -0.6766 -2.8489  0.5847
   24CHL1   C13 1728   4.857   3.331   9.436 -0.8396 -0.4482 -0.3980
   24CHL1   C18 1729   4.701   3.338   9.431  0.7751  0.2836  0.6832
   24CHL1  H18A 1730   4.653   3.340   9.531 -2.0341 -1.4884 -0.5183
   24CHL1  H18B 1731   4.673   3.432   9.378 -0.0582 -0.0129  0.5824
   24CHL1  H18C 1732   4.671   3.248   9.374  0.7419 -1.3013  3.0783
   24CHL1   C12 1733   4.892   3.198   9.502 -0.1728  0.9193 -0.1105
   24CHL1  H12A 1734   4.842   3.116   9.446  0.3186 -0.1801  1.0060
   24CHL1  H12B 1735   5.000   3.174   9.503 -0.1994  0.6253 -1.5798
   24CHL1   C11 1736   4.843   3.183   9.642  0.0781  0.5711  0.1158
   24CHL1  H11A 1737   4.733   3.171   9.644 -0.3124  2.3564 -3.1056
   24CHL1  H11B 1738   4.888   3.091   9.683  1.9006  0.2174 -2.4428
   24CHL1    C9 1739   4.884   3.302   9.736 -0.0726  0.1866 -0.1304
   24CHL1    H9 1740   4.995   3.299   9.740 -0.0696 -0.4811 -0.6432
   24CHL1   C10 1741   4.832   3.305   9.882 -0.1168 -0.5648 -0.3842
   24CHL1   C19 1742   4.676   3.306   9.880  0.0128  0.4536 -0.4106
   24CHL1  H19A 1743   4.655   3.216   9.819  1.0746 -0.5966  0.7022
   24CHL1  H19B 1744   4.634   3.305   9.983  1.5000 -1.6655  0.2583
   24CHL1  H19C 1745   4.632   3.393   9.827 -0.8469  1.8360  2.3929
   24CHL1    C1 1746   4.890   3.183   9.949 -0.0869  0.2529  0.0067
   24CHL1   H1A 1747   4.848   3.090   9.905 -1.3945  0.3273  1.0407
   24CHL1   H1B 1748   4.997   3.175   9.920 -0.1823  0.5888 -0.4494
   24CHL1    C2 1749   4.904   3.179  10.103 -0.0708 -0.3045  0.0333
   24CHL1   H2A 1750   4.957   3.094  10.152 -1.2865 -0.5147  1.0374
   24CHL1   H2B 1751   4.799   3.165  10.137  0.2481  1.2570  1.8719
   24CHL1   C20 1752   4.861   3.317   9.172  0.2190  0.1059 -0.3584
   24CHL1   H20 1753   4.753   3.342   9.175  0.7364  2.5535  0.3892
   24CHL1   C21 1754   4.892   3.169   9.176  0.1343 -0.4210  0.4289
   24CHL1  H21A 1755   4.829   3.127   9.257 -0.5584  1.7311  1.0773
   24CHL1  H21B 1756   4.999   3.140   9.178  0.0917 -0.8017 -1.0511
   24CHL1  H21C 1757   4.846   3.105   9.097 -0.4909 -1.1617  1.3615
   24CHL1   C22 1758   4.921   3.385   9.049 -0.8389  0.1581  0.4948
   24CHL1  H22A 1759   4.899   3.494   9.045 -2.5203 -0.1557  0.5832
   24CHL1  H22B 1760   5.031   3.367   9.048 -0.6729  1.0983  0.4011
   24CHL1   C23 1761   4.874   3.319   8.911  0.8046  0.5383  0.0595
   24CHL1  H23A 1762   4.918   3.217   8.917 -2.1363 -0.8372 -0.1322
   24CHL1  H23B 1763   4.764   3.310   8.914  0.7671  1.1575  0.8610
   24CHL1   C24 1764   4.901   3.398   8.785 -0.1516 -0.2897 -0.1180
   24CHL1  H24A 1765   4.871   3.504   8.799 -1.1626 -0.5529 -0.2053
   24CHL1  H24B 1766   5.012   3.401   8.785 -0.1526  1.1835  1.5133
   24CHL1   C25 1767   4.850   3.334   8.651 -0.0454 -0.6700 -0.6586
   24CHL1   H25 1768   4.886   3.397   8.567 -1.0332  0.0163 -0.5864
   24CHL1   C26 1769   4.930   3.203   8.636  0.1300 -0.2894 -0.2155
   24CHL1  H26A 1770   4.871   3.132   8.699 -2.4074  1.2200 -0.7251
   24CHL1  H26B 1771   4.918   3.176   8.529 -0.3121  0.5201 -0.3814
   24CHL1  H26C 1772   5.038   3.212   8.659  0.6525 -0.8936 -2.2273
   24CHL1   C27 1773   4.700   3.325   8.634  0.5274 -0.0126 -0.3895
   24CHL1  H27A 1774   4.645   3.241   8.680 -1.6905  1.7669  0.3790
   24CHL1  H27B 1775   4.643   3.414   8.668 -0.0892  0.1049 -1.6550
   24CHL1  H27C 1776   4.671   3.313   8.527 -1.8401  5.8965 -0.8213
   25CHL1    C3 1777   6.363   4.563  10.321  0.1040 -0.0724  0.4617
   25CHL1    H3 1778   6.473   4.548  10.317  0.2415  0.3709  2.0584
   25CHL1    O3 1779   6.323   4.575  10.454 -0.3949 -0.1891 -0.3593
   25CHL1   H3' 1780   6.228   4.580  10.442 -0.5348  1.3747  1.0789
   25CHL1    C4 1781   6.327   4.704  10.257 -0.0740  0.7392  0.2775
   25CHL1   H4A 1782   6.219   4.726  10.268 -0.5082 -1.2794  0.4785
   25CHL1   H4B 1783   6.374   4.778  10.325 -3.0409  0.6088  2.7111
   25CHL1    C5 1784   6.382   4.707  10.111 -0.1878 -0.8741 -0.6003
   25CHL1    C6 1785   6.485   4.787  10.074 -0.2171 -0.5043 -0.8333
   25CHL1    H6 1786   6.534   4.858  10.143  1.4221 -1.9607 -0.4322
   25CHL1    C7 1787   6.525   4.795   9.935 -0.4415 -0.2343 -0.6947
   25CHL1   H7A 1788   6.529   4.905   9.924  2.7080 -0.3037 -1.1653
   25CHL1   H7B 1789   6.632   4.766   9.922  0.6587  2.6143  1.0359
   25CHL1    C8 1790   6.431   4.723   9.839 -0.3722 -0.0284 -0.3556
   25CHL1    H8 1791   6.339   4.783   9.827  0.1446  1.2787  1.7601
   25CHL1   C14 1792   6.510   4.708   9.709  0.0127  0.1585 -0.1534
   25CHL1   H14 1793   6.598   4.645   9.735 -0.1032  0.3330  0.6810
   25CHL1   C15 1794   6.571   4.828   9.643  0.3719 -0.1559 -0.7045
   25CHL1  H15A 1795   6.497   4.910   9.654 -0.4687 -1.0464  0.6636
   25CHL1  H15B 1796   6.665   4.865   9.689 -1.1608  2.5780  0.4847
   25CHL1   C16 1797   6.588   4.803   9.497 -0.3578  0.5080 -0.8351
   25CHL1  H16A 1798   6.537   4.881   9.436  0.7560  0.7607 -1.4805
   25CHL1  H16B 1799   6.696   4.816   9.474  0.4413 -2.5128  0.7333
   25CHL1   C17 1800   6.538   4.657   9.476 -0.6078  0.6031 -0.8869
   25CHL1   H17 1801   6.632   4.609   9.513 -0.4574  2.4120  1.3100
   25CHL1   C13 1802   6.438   4.630   9.592 -0.4690  0.2145  0.4195
   25CHL1   C18 1803   6.305   4.699   9.563 -0.4791  0.2473  0.4758
   25CHL1  H18A 1804   6.243   4.713   9.655 -0.0365 -2.6350  1.3120
   25CHL1  H18B 1805   6.302   4.796   9.509  1.3058  0.0966  0.0582
   25CHL1  H18C 1806   6.252   4.620   9.506 -1.8124  0.0788  1.8501
   25CHL1   C12 1807   6.424   4.486   9.650 -0.2704 -0.9655  0.2915
   25CHL1  H12A 1808   6.369   4.418   9.581 -1.3571 -2.7381  2.7440
   25CHL1  H12B 1809   6.520   4.433   9.667 -0.8824 -1.7549  1.4173
   25CHL1   C11 1810   6.344   4.491   9.784 -0.1560 -0.7106 -0.5070
   25CHL1  H11A 1811   6.236   4.505   9.760  0.2349  0.8373 -1.5373
   25CHL1  H11B 1812   6.346   4.388   9.826  3.2385 -0.6307 -0.1611
   25CHL1    C9 1813   6.399   4.586   9.897 -0.4615  0.0238 -0.0103
   25CHL1    H9 1814   6.500   4.547   9.920 -0.3314  0.5299  0.2933
   25CHL1   C10 1815   6.323   4.593  10.026  0.6552 -0.1761 -0.1950
   25CHL1   C19 1816   6.172   4.625   9.993 -0.0444 -0.5661  0.1096
   25CHL1  H19A 1817   6.117   4.549   9.933 -1.6451  2.5157 -2.6879
   25CHL1  H19B 1818   6.115   4.629  10.088 -0.5177 -0.3789 -0.1746
   25CHL1  H19C 1819   6.168   4.717   9.931 -1.0901  0.0376  1.0403
   25CHL1    C1 1820   6.334   4.460  10.096  0.0495  1.0408 -0.4760
   25CHL1   H1A 1821   6.284   4.370  10.053 -1.6748  2.1616 -0.9030
   25CHL1   H1B 1822   6.442   4.434  10.108  0.0258  0.8057 -0.7546
   25CHL1    C2 1823   6.287   4.459  10.244 -0.2065  0.8765  0.0724
   25CHL1   H2A 1824   6.313   4.359  10.286 -1.2461 -0.4112 -2.1018
   25CHL1   H2B 1825   6.176   4.467  10.254 -0.3505  0.0982 -0.7259
   25CHL1   C20 1826   6.500   4.599   9.340  0.0903 -0.2984 -0.5308
   25CHL1   H20 1827   6.446   4.503   9.351  0.9009 -1.2501 -3.6094
   25CHL1   C21 1828   6.634   4.564   9.272 -0.6563  0.2755 -0.1394
   25CHL1  H21A 1829   6.693   4.488   9.329 -1.4149  0.1434  0.4879
   25CHL1  H21B 1830   6.698   4.655   9.275 -0.8248  0.3817  0.4218
   25CHL1  H21C 1831   6.622   4.537   9.165  0.7604  3.1770 -1.1483
   25CHL1   C22 1832   6.408   4.687   9.246  0.1883  0.2912 -0.6015
   25CHL1  H22A 1833   6.303   4.675   9.280 -0.0205 -0.7066 -1.5588
   25CHL1  H22B 1834   6.447   4.791   9.259  0.4890  0.0396  0.6649
   25CHL1   C23 1835   6.409   4.655   9.093 -0.8683 -0.3944 -0.5646
   25CHL1  H23A 1836   6.507   4.692   9.054 -0.4560 -1.3017 -0.4181
   25CHL1  H23B 1837   6.393   4.545   9.086 -0.5152 -0.5753  1.0316
   25CHL1   C24 1838   6.307   4.732   9.014  0.5295 -0.4266  0.0781
   25CHL1  H24A 1839   6.203   4.700   9.035 -0.2367  2.8949  2.0042
   25CHL1  H24B 1840   6.297   4.840   9.037  1.4193 -0.6581  1.7171
   25CHL1   C25 1841   6.341   4.704   8.867  0.1228 -0.2892 -0.1059
   25CHL1   H25 1842   6.448   4.732   8.859  0.8885 -3.1541 -1.4103
   25CHL1   C26 1843   6.318   4.557   8.819 -0.0315 -0.3872  1.0986
   25CHL1  H26A 1844   6.376   4.490   8.886  0.2973  0.0684  1.2772
   25CHL1  H26B 1845   6.212   4.527   8.834  0.0538 -0.2065  2.1983
   25CHL1  H26C 1846   6.352   4.545   8.714  0.4198 -1.2795  1.3342
   25CHL1   C27 1847   6.268   4.800   8.781 -0.5542 -0.1057 -0.1303
   25CHL1  H27A 1848   6.158   4.786   8.790 -0.6725  0.2802 -0.9124
   25CHL1  H27B 1849   6.294   4.904   8.811 -0.2835  0.0026 -0.7353
   25CHL1  H27C 1850   6.302   4.785   8.676  0.2386 -0.5939  0.1822
   26CHL1    C3 1851   0.446   1.038  10.082  0.0760  0.3442 -0.0207
   26CHL1    H3 1852   0.546   1.085  10.066 -0.6680  2.6701  1.6322
   26CHL1    O3 1853   0.434   1.026  10.222 -0.2158  0.1349 -0.1029
   26CHL1   H3' 1854   0.416   1.110  10.265  0.6081  0.4731 -0.3999
   26CHL1    C4 1855   0.343   1.130  10.034  1.0107 -0.6026  0.5595
   26CHL1   H4A 1856   0.241   1.096  10.063  0.5671 -0.8904 -1.2243
   26CHL1   H4B 1857   0.355   1.231  10.078 -0.5041  0.5929 -1.5668
   26CHL1    C5 1858   0.356   1.150   9.881  0.3010 -0.3784  0.3023
   26CHL1    C6 1859   0.366   1.263   9.818 -0.1641  0.5369  0.6218
   26CHL1    H6 1860   0.360   1.350   9.884 -0.1533 -1.0266  2.7793
   26CHL1    C7 1861   0.386   1.281   9.668 -0.2322 -0.4965  0.4217
   26CHL1   H7A 1862   0.330   1.372   9.637  0.2418  0.7040  2.8293
   26CHL1   H7B 1863   0.494   1.296   9.646 -0.3429 -1.6627 -1.0527
   26CHL1    C8 1864   0.339   1.157   9.581 -0.1638  0.3805 -0.3821
   26CHL1    H8 1865   0.229   1.159   9.566 -0.1293 -1.8856 -1.2763
   26CHL1   C14 1866   0.400   1.162   9.445  0.2274  0.1244  0.4065
   26CHL1   H14 1867   0.509   1.152   9.464 -0.2738 -0.0223  3.7084
   26CHL1   C15 1868   0.384   1.290   9.366 -0.2477 -0.0309 -0.0117
   26CHL1  H15A 1869   0.284   1.337   9.367  0.6932  2.1084  0.1510
   26CHL1  H15B 1870   0.451   1.373   9.400 -0.6854  1.0859 -1.7533
   26CHL1   C16 1871   0.421   1.252   9.228 -0.4084  0.2483  0.7232
   26CHL1  H16A 1872   0.359   1.300   9.149  0.0766  1.8658  1.2843
   26CHL1  H16B 1873   0.528   1.272   9.207  0.3191 -4.4075 -1.2622
   26CHL1   C17 1874   0.420   1.091   9.217 -0.2314  0.7915  0.0682
   26CHL1   H17 1875   0.529   1.071   9.221  0.2979  2.5939 -2.7420
   26CHL1   C13 1876   0.354   1.047   9.351  0.1546  0.7612 -0.0243
   26CHL1   C18 1877   0.195   1.052   9.350 -0.2029  0.0919  0.0407
   26CHL1  H18A 1878   0.158   1.029   9.452 -0.7617  1.3626  0.1554
   26CHL1  H18B 1879   0.145   1.147   9.318  0.0758  0.0207 -0.6293
   26CHL1  H18C 1880   0.167   0.971   9.280  2.1028  1.6535 -2.9593
   26CHL1   C12 1881   0.411   0.914   9.411 -0.3677  0.5348  0.3354
   26CHL1  H12A 1882   0.381   0.825   9.353 -0.1586 -0.1297  1.2224
   26CHL1  H12B 1883   0.522   0.908   9.402 -0.1893 -1.0736  2.7521
   26CHL1   C11 1884   0.371   0.900   9.559  0.2563  0.0135 -0.2991
   26CHL1  H11A 1885   0.262   0.876   9.561  0.4256 -0.8558 -0.8806
   26CHL1  H11B 1886   0.415   0.815   9.616 -1.2660  0.0272  0.9798
   26CHL1    C9 1887   0.389   1.029   9.655  0.1797  0.3013  0.4326
   26CHL1    H9 1888   0.499   1.040   9.656  0.2248  0.0223 -0.5292
   26CHL1   C10 1889   0.349   1.017   9.804  0.0824  0.0846 -0.3501
   26CHL1   C19 1890   0.204   0.974   9.816 -0.7193 -0.5402  0.2797
   26CHL1  H19A 1891   0.174   0.971   9.923 -1.3471  2.7681  0.2808
   26CHL1  H19B 1892   0.140   1.047   9.762  0.1957 -0.3504 -0.5694
   26CHL1  H19C 1893   0.191   0.878   9.761 -0.8761 -0.2139 -0.2553
   26CHL1    C1 1894   0.438   0.910   9.872 -0.0945  0.5992  0.3818
   26CHL1   H1A 1895   0.423   0.813   9.818  0.7449  0.7228 -0.0893
   26CHL1   H1B 1896   0.537   0.949   9.840 -0.6790  3.5036  1.8517
   26CHL1    C2 1897   0.431   0.902  10.030 -0.4056  0.4881 -0.8239
   26CHL1   H2A 1898   0.514   0.832  10.057  1.4515  2.1401 -2.0074
   26CHL1   H2B 1899   0.333   0.864  10.067 -0.0724 -0.2056 -0.6204
   26CHL1   C20 1900   0.368   1.042   9.084  0.3874 -0.5975 -0.5323
   26CHL1   H20 1901   0.261   1.072   9.083  0.7406  0.7028 -0.2255
   26CHL1   C21 1902   0.386   0.894   9.065 -0.6156  0.4226 -0.3788
   26CHL1  H21A 1903   0.321   0.851   9.144 -2.0701 -0.8672 -2.2002
   26CHL1  H21B 1904   0.491   0.870   9.095 -0.4076  3.4646  1.7473
   26CHL1  H21C 1905   0.358   0.874   8.960  2.6693 -0.2012 -1.2566
   26CHL1   C22 1906   0.437   1.118   8.959 -0.4798 -0.2701 -0.0378
   26CHL1  H22A 1907   0.391   1.064   8.874  1.0590  0.0200 -1.0968
   26CHL1  H22B 1908   0.401   1.222   8.973  0.3769 -0.0285  0.4302
   26CHL1   C23 1909   0.589   1.109   8.933  0.5392 -0.6159 -0.5549
   26CHL1  H23A 1910   0.634   1.139   9.030 -0.4764 -1.2641  0.1458
   26CHL1  H23B 1911   0.601   1.000   8.919  0.1938 -0.6979 -0.2450
   26CHL1   C24 1912   0.641   1.184   8.808 -0.7234 -0.0324 -0.0446
   26CHL1  H24A 1913   0.605   1.147   8.710 -0.1359  3.7610 -1.8563
   26CHL1  H24B 1914   0.597   1.286   8.816 -1.2476 -0.2057 -0.6994
   26CHL1   C25 1915   0.792   1.204   8.810  1.0697 -0.2992 -0.6705
   26CHL1   H25 1916   0.827   1.244   8.908  0.5267  0.1222 -0.6455
   26CHL1   C26 1917   0.864   1.067   8.796  0.3219  0.0778 -0.2282
   26CHL1  H26A 1918   0.972   1.088   8.814  0.5681  0.2505 -1.7879
   26CHL1  H26B 1919   0.824   0.983   8.856 -1.4291  1.7403  1.0605
   26CHL1  H26C 1920   0.852   1.036   8.690 -3.1650 -2.6494  0.7814
   26CHL1   C27 1921   0.828   1.304   8.700  0.4364 -0.4186  0.3205
   26CHL1  H27A 1922   0.830   1.246   8.605  1.2416 -0.2671  0.2454
   26CHL1  H27B 1923   0.765   1.395   8.690 -1.9606 -2.1033 -1.1009
   26CHL1  H27C 1924   0.929   1.341   8.726  1.1943 -2.9296  1.2581
   27CHL1    C3 1925   0.598   5.648  10.278 -0.0107  0.1261 -0.4659
   27CHL1    H3 1926   0.539   5.731  10.235  0.9557  0.9755 -0.1989
   27CHL1    O3 1927   0.598   5.665  10.422  0.0737 -0.4661  0.9550
   27CHL1   H3' 1928   0.632   5.580  10.450  0.6734 -1.2243 -1.7477
   27CHL1    C4 1929   0.537   5.513  10.232  0.2148 -0.2067  0.4065
   27CHL1   H4A 1930   0.612   5.444  10.275  1.1687  0.0223 -0.8492
   27CHL1   H4B 1931   0.440   5.497  10.285 -0.8825  1.4563 -0.9825
   27CHL1    C5 1932   0.524   5.508  10.081 -0.4284  0.0054 -0.2227
   27CHL1    C6 1933   0.413   5.481  10.008 -0.6946 -0.2038 -0.1782
   27CHL1    H6 1934   0.324   5.473  10.073 -0.7047  1.8242  0.1324
   27CHL1    C7 1935   0.405   5.463   9.856  0.5508  0.6634  0.4781
   27CHL1   H7A 1936   0.340   5.378   9.826  0.2650 -0.4942  3.9434
   27CHL1   H7B 1937   0.357   5.553   9.811 -1.3407 -0.7534 -0.4793
   27CHL1    C8 1938   0.548   5.443   9.791  0.2006 -0.5959 -0.7079
   27CHL1    H8 1939   0.575   5.335   9.791  0.9782 -0.4138 -0.9408
   27CHL1   C14 1940   0.556   5.462   9.638  0.3566 -0.4249 -0.3940
   27CHL1   H14 1941   0.536   5.571   9.626 -0.5635  0.0702  4.0788
   27CHL1   C15 1942   0.456   5.397   9.541 -0.8550  0.0842  0.5430
   27CHL1  H15A 1943   0.450   5.295   9.583  2.2518 -0.2760  0.3249
   27CHL1  H15B 1944   0.360   5.452   9.528 -0.8684 -0.3161 -1.3432
   27CHL1   C16 1945   0.531   5.394   9.409 -0.5307 -0.3311  0.1284
   27CHL1  H16A 1946   0.567   5.291   9.389  0.9189  0.5001 -1.8193
   27CHL1  H16B 1947   0.471   5.436   9.325 -0.4466  2.6772  1.4097
   27CHL1   C17 1948   0.663   5.471   9.429 -0.4885 -0.7712  0.2227
   27CHL1   H17 1949   0.649   5.580   9.413  0.1055 -1.0752 -3.0045
   27CHL1   C13 1950   0.696   5.444   9.576  0.2593  0.0346 -0.0366
   27CHL1   C18 1951   0.741   5.300   9.594 -0.2456  0.1124  0.2726
   27CHL1  H18A 1952   0.759   5.286   9.703 -1.3046  1.6253  0.6768
   27CHL1  H18B 1953   0.661   5.229   9.564 -0.8581  0.9813 -0.1774
   27CHL1  H18C 1954   0.835   5.298   9.535  0.2232  0.1793  1.0048
   27CHL1   C12 1955   0.790   5.551   9.639 -0.1164  1.2999  0.6872
   27CHL1  H12A 1956   0.895   5.546   9.603 -0.9378  0.8347 -1.8396
   27CHL1  H12B 1957   0.741   5.648   9.615 -1.4011  0.2539 -1.1885
   27CHL1   C11 1958   0.793   5.530   9.794  0.2771  0.0306 -0.6063
   27CHL1  H11A 1959   0.844   5.438   9.830  1.9821  0.8478 -0.8485
   27CHL1  H11B 1960   0.862   5.607   9.834  0.5366  0.1029 -1.1875
   27CHL1    C9 1961   0.650   5.534   9.863 -0.5554  0.1089 -0.1016
   27CHL1    H9 1962   0.621   5.641   9.847  0.9126  0.9127  2.1319
   27CHL1   C10 1963   0.659   5.519  10.016  0.6666  0.7568  0.3939
   27CHL1   C19 1964   0.721   5.379  10.043 -0.7894  0.0451  0.0158
   27CHL1  H19A 1965   0.831   5.371  10.023 -0.9269 -2.4540 -0.0421
   27CHL1  H19B 1966   0.725   5.347  10.149 -1.7900  2.2395  0.7692
   27CHL1  H19C 1967   0.663   5.294  10.002 -1.0996 -0.0040  0.5532
   27CHL1    C1 1968   0.738   5.645  10.072  0.1490  0.0198 -0.3043
   27CHL1   H1A 1969   0.841   5.660  10.033 -0.0891  0.9825 -0.5979
   27CHL1   H1B 1970   0.680   5.733  10.037 -0.9631  0.0751  1.5349
   27CHL1    C2 1971   0.744   5.645  10.225  0.0634  0.4973 -0.3157
   27CHL1   H2A 1972   0.794   5.736  10.263  1.2545 -1.4004  3.1071
   27CHL1   H2B 1973   0.794   5.552  10.260 -1.5407 -0.7438 -1.1376
   27CHL1   C20 1974   0.765   5.437   9.312  0.2710 -0.1717 -0.4396
   27CHL1   H20 1975   0.792   5.329   9.311  2.0134  0.1966  1.2767
   27CHL1   C21 1976   0.907   5.508   9.326  0.4292 -0.9783  0.0973
   27CHL1  H21A 1977   0.890   5.617   9.319 -1.3516 -1.2617 -0.6108
   27CHL1  H21B 1978   0.971   5.477   9.240  0.7162  1.9298 -0.8239
   27CHL1  H21C 1979   0.963   5.472   9.414  2.0448  0.2778 -0.3786
   27CHL1   C22 1980   0.702   5.454   9.170  0.3553 -0.4290 -0.1035
   27CHL1  H22A 1981   0.614   5.391   9.148  0.5094 -0.9883  0.8452
   27CHL1  H22B 1982   0.653   5.554   9.173 -0.2103 -0.6552 -1.2146
   27CHL1   C23 1983   0.795   5.451   9.056 -0.0540  0.0049  0.0766
   27CHL1  H23A 1984   0.855   5.544   9.057  1.1237 -0.7296 -0.0639
   27CHL1  H23B 1985   0.865   5.365   9.051 -1.6314 -1.2924 -1.1367
   27CHL1   C24 1986   0.706   5.435   8.929 -0.1272 -0.3141 -0.7714
   27CHL1  H24A 1987   0.652   5.339   8.938  1.5621 -1.0801  2.3271
   27CHL1  H24B 1988   0.626   5.511   8.910  0.0494 -0.9313 -4.7522
   27CHL1   C25 1989   0.797   5.439   8.800 -0.4383 -0.5881 -0.6875
   27CHL1   H25 1990   0.890   5.380   8.814 -1.3087 -1.3358  2.7992
   27CHL1   C26 1991   0.722   5.374   8.687 -0.1598  0.3956  0.2949
   27CHL1  H26A 1992   0.795   5.346   8.608  0.9983 -0.2366  1.5538
   27CHL1  H26B 1993   0.673   5.276   8.706 -0.6862  0.3622 -1.1078
   27CHL1  H26C 1994   0.641   5.441   8.653  0.2583  1.1303  0.7321
   27CHL1   C27 1995   0.845   5.584   8.764 -0.1637 -0.4284  0.0675
   27CHL1  H27A 1996   0.760   5.653   8.781 -0.4152  0.0122 -2.5161
   27CHL1  H27B 1997   0.914   5.623   8.842 -0.4712  0.4556 -0.0854
   27CHL1  H27C 1998   0.875   5.595   8.657 -1.6002  1.1960 -0.2203
   28CHL1    C3 1999   0.277   3.706  10.195 -0.8140 -0.0807 -0.2222
   28CHL1    H3 2000   0.354   3.766  10.142  0.0786 -0.2069  0.8918
   28CHL1    O3 2001   0.273   3.743  10.334 -0.5696 -0.3744 -0.1327
   28CHL1   H3' 2002   0.358   3.730  10.376 -1.0079  0.4666  1.0668
   28CHL1    C4 2003   0.134   3.736  10.136  0.3161  0.3743  0.4464
   28CHL1   H4A 2004   0.062   3.677  10.197 -1.0734  0.4984 -0.9875
   28CHL1   H4B 2005   0.112   3.844  10.147  0.3120  0.3641  0.5295
   28CHL1    C5 2006   0.127   3.707   9.992 -0.0890  0.0912  0.2046
   28CHL1    C6 2007   0.103   3.800   9.896 -0.0356  0.5348 -0.3502
   28CHL1    H6 2008   0.095   3.906   9.923  0.9869  0.3487  0.7303
   28CHL1    C7 2009   0.110   3.774   9.746 -0.6135  0.1062 -0.7169
   28CHL1   H7A 2010   0.039   3.835   9.687  0.2845  1.4733 -0.4235
   28CHL1   H7B 2011   0.214   3.796   9.714 -0.6039 -0.4048 -1.0573
   28CHL1    C8 2012   0.103   3.626   9.713  0.0350  0.3157  0.2232
   28CHL1    H8 2013  -0.004   3.595   9.723  0.7211 -1.8018  1.6032
   28CHL1   C14 2014   0.139   3.608   9.564  0.5862 -0.2377 -0.6716
   28CHL1   H14 2015   0.246   3.631   9.548  0.4236  0.2851 -1.0583
   28CHL1   C15 2016   0.053   3.686   9.459 -0.1191  0.5264 -0.7609
   28CHL1  H15A 2017  -0.056   3.673   9.477 -0.1057  1.5553  0.1461
   28CHL1  H15B 2018   0.085   3.791   9.446 -0.0352  0.4032 -1.6276
   28CHL1   C16 2019   0.081   3.613   9.324 -0.2830 -0.5365  0.3349
   28CHL1  H16A 2020  -0.022   3.601   9.285 -1.4135 -1.5783  3.3191
   28CHL1  H16B 2021   0.135   3.680   9.253 -3.3128  2.4133  0.5631
   28CHL1   C17 2022   0.161   3.480   9.363  0.0904  0.5732  0.0025
   28CHL1   H17 2023   0.259   3.525   9.337 -0.1881  3.0101  2.6144
   28CHL1   C13 2024   0.123   3.469   9.520  0.1033  0.9517  0.3159
   28CHL1   C18 2025  -0.025   3.415   9.525 -0.0062 -0.1777 -0.0130
   28CHL1  H18A 2026  -0.090   3.449   9.442 -0.9517 -1.6221  0.0927
   28CHL1  H18B 2027  -0.030   3.304   9.513 -2.2267 -0.0311 -0.9488
   28CHL1  H18C 2028  -0.071   3.441   9.623  1.1790  0.6299  0.3464
   28CHL1   C12 2029   0.213   3.377   9.604 -0.7298 -0.2556  0.2245
   28CHL1  H12A 2030   0.188   3.273   9.574 -1.0845  0.1882 -1.0927
   28CHL1  H12B 2031   0.319   3.402   9.582 -1.0703 -0.1673 -1.3733
   28CHL1   C11 2032   0.187   3.393   9.759 -0.2354  0.2327  0.6379
   28CHL1  H11A 2033   0.080   3.361   9.760  0.2481 -1.6389 -0.9067
   28CHL1  H11B 2034   0.237   3.327   9.832 -0.0367  0.1701  0.4450
   28CHL1    C9 2035   0.192   3.544   9.804 -0.0230 -0.1304  0.3891
   28CHL1    H9 2036   0.299   3.571   9.786  0.9035 -3.6634 -0.1392
   28CHL1   C10 2037   0.171   3.565   9.955 -0.1149  0.5513 -0.1941
   28CHL1   C19 2038   0.054   3.477  10.013 -0.0646  0.0198  0.1592
   28CHL1  H19A 2039   0.042   3.489  10.123 -1.3859  0.4052 -0.0222
   28CHL1  H19B 2040  -0.047   3.481   9.967  0.7942  0.1478 -1.8168
   28CHL1  H19C 2041   0.087   3.371  10.004  2.7267  0.8458 -0.2723
   28CHL1    C1 2042   0.314   3.529  10.029 -0.2981  0.7942 -0.1759
   28CHL1   H1A 2043   0.343   3.429   9.992  1.4607  1.4505 -0.6508
   28CHL1   H1B 2044   0.386   3.600   9.982 -0.3398  0.0958 -1.3523
   28CHL1    C2 2045   0.307   3.561  10.183  0.2994 -0.1606  0.6558
   28CHL1   H2A 2046   0.401   3.533  10.236  0.8708 -0.9962 -0.7258
   28CHL1   H2B 2047   0.233   3.491  10.226  0.5654 -1.2706 -0.6436
   28CHL1   C20 2048   0.133   3.358   9.269  0.0350 -0.7799 -0.4189
   28CHL1   H20 2049   0.037   3.316   9.305 -1.1389  2.0391  0.0218
   28CHL1   C21 2050   0.251   3.252   9.274  0.3729 -0.4624 -0.1810
   28CHL1  H21A 2051   0.222   3.155   9.230 -2.8879  0.3948 -0.2163
   28CHL1  H21B 2052   0.296   3.234   9.374  0.7847  0.0252 -0.2735
   28CHL1  H21C 2053   0.326   3.302   9.209 -1.3267  0.2674 -1.6745
   28CHL1   C22 2054   0.085   3.401   9.125 -0.7304  0.0069  0.2277
   28CHL1  H22A 2055  -0.017   3.446   9.125  0.2615  2.4906 -1.6725
   28CHL1  H22B 2056   0.147   3.485   9.089  0.3592  0.2189  2.4604
   28CHL1   C23 2057   0.108   3.291   9.023 -0.2287  0.6381  0.6801
   28CHL1  H23A 2058   0.219   3.282   9.023 -0.2155  0.7439  1.5265
   28CHL1  H23B 2059   0.066   3.199   9.068  0.6834  0.9494  2.2394
   28CHL1   C24 2060   0.034   3.316   8.893 -0.2883 -0.2335  0.1118
   28CHL1  H24A 2061  -0.073   3.323   8.923 -0.1087  3.3022  0.3974
   28CHL1  H24B 2062   0.058   3.416   8.849  2.3710 -1.0009 -0.3664
   28CHL1   C25 2063   0.038   3.206   8.783  0.3923  0.5668 -0.2236
   28CHL1   H25 2064   0.140   3.174   8.752  0.5777  0.5365  0.4176
   28CHL1   C26 2065  -0.050   3.089   8.811  0.0434  0.0586 -0.1417
   28CHL1  H26A 2066  -0.157   3.120   8.803  0.3497  1.1781  0.0170
   28CHL1  H26B 2067  -0.040   3.014   8.730 -1.4996  0.1305 -0.4408
   28CHL1  H26C 2068  -0.023   3.031   8.903 -0.3087 -0.1275 -0.1533
   28CHL1   C27 2069  -0.022   3.267   8.651 -0.2962 -0.2680  0.3913
   28CHL1  H27A 2070  -0.133   3.271   8.655 -0.2927  2.1336 -0.4758
   28CHL1  H27B 2071   0.015   3.371   8.643  1.1540 -0.8782 -1.7664
   28CHL1  H27C 2072   0.012   3.205   8.565 -1.6499 -1.8866  0.9841
   29CHL1    C3 2073   1.857   2.621   6.695 -0.6063  0.0623  0.0076
   29CHL1    H3 2074   1.798   2.706   6.655  1.1295  1.0371 -0.5741
   29CHL1    O3 2075   1.880   2.521   6.594 -0.1172 -0.2478 -0.7340
   29CHL1   H3' 2076   1.797   2.503   6.550 -2.4571  4.4216  1.1049
   29CHL1    C4 2077   1.993   2.670   6.740  0.4595 -0.7115 -0.0218
   29CHL1   H4A 2078   2.050   2.581   6.774  0.0604 -1.1364 -0.4649
   29CHL1   H4B 2079   2.049   2.726   6.662 -0.6420  0.8662  0.2811
   29CHL1    C5 2080   1.988   2.777   6.849 -0.2582  0.3335 -0.0730
   29CHL1    C6 2081   2.042   2.906   6.851 -0.8163  0.7240 -0.3758
   29CHL1    H6 2082   2.095   2.953   6.767 -0.3081  1.9465  0.6128
   29CHL1    C7 2083   2.019   2.998   6.965  0.0458 -0.0778  0.1724
   29CHL1   H7A 2084   2.119   3.042   6.987 -0.2993  1.3605 -0.9775
   29CHL1   H7B 2085   1.949   3.079   6.934  2.0934  2.0203  0.7085
   29CHL1    C8 2086   1.971   2.932   7.092 -1.1984  0.7954  0.7937
   29CHL1    H8 2087   2.055   2.874   7.136 -0.5084  1.7491  0.7589
   29CHL1   C14 2088   1.919   3.036   7.183  0.0951 -0.7446 -1.2942
   29CHL1   H14 2089   1.837   3.075   7.120 -1.1553  2.1550  1.7685
   29CHL1   C15 2090   2.004   3.159   7.213 -0.0110 -0.6358 -0.1788
   29CHL1  H15A 2091   2.107   3.125   7.237  0.3628 -0.3342 -1.3180
   29CHL1  H15B 2092   2.003   3.237   7.134 -1.2134  0.0170  0.4339
   29CHL1   C16 2093   1.928   3.230   7.337 -0.3416  0.0894 -0.2117
   29CHL1  H16A 2094   1.997   3.241   7.423 -0.4244 -0.5436 -0.0593
   29CHL1  H16B 2095   1.893   3.332   7.308 -1.4936 -0.4466 -0.7982
   29CHL1   C17 2096   1.809   3.135   7.371  0.0276 -0.9335 -0.6082
   29CHL1   H17 2097   1.726   3.176   7.308 -0.4032  1.2471  1.2700
   29CHL1   C13 2098   1.855   2.995   7.317  0.6303 -0.0745  0.4146
   29CHL1   C18 2099   1.956   2.933   7.407 -0.5884 -0.5612  0.2679
   29CHL1  H18A 2100   1.978   2.833   7.364  0.9815 -0.1504  0.0767
   29CHL1  H18B 2101   2.046   2.996   7.424 -0.9689 -0.5266  2.5237
   29CHL1  H18C 2102   1.908   2.921   7.507 -1.2730 -1.3878 -0.1484
   29CHL1   C12 2103   1.735   2.902   7.276  0.5278 -0.6137 -0.0520
   29CHL1  H12A 2104   1.691   2.860   7.369  0.8472 -0.0231  0.3701
   29CHL1  H12B 2105   1.649   2.963   7.241 -0.5907 -1.0018  1.8743
   29CHL1   C11 2106   1.781   2.790   7.180 -0.4788  0.3439 -0.0347
   29CHL1  H11A 2107   1.845   2.722   7.241 -0.6467 -0.2841 -0.5431
   29CHL1  H11B 2108   1.691   2.733   7.149 -1.3190  0.3077  2.2537
   29CHL1    C9 2109   1.862   2.837   7.053 -0.6336 -0.0594 -0.2695
   29CHL1    H9 2110   1.791   2.895   6.989 -1.6530 -0.4060  0.5128
   29CHL1   C10 2111   1.902   2.720   6.961 -0.7126 -0.2775 -0.4792
   29CHL1   C19 2112   1.986   2.614   7.039  0.3772  0.1990  0.3781
   29CHL1  H19A 2113   2.082   2.657   7.073  0.1055 -0.3593  1.9458
   29CHL1  H19B 2114   1.922   2.564   7.114 -2.2953 -0.4000 -2.0908
   29CHL1  H19C 2115   2.008   2.528   6.971 -0.6742  0.0847  0.1560
   29CHL1    C1 2116   1.767   2.670   6.909 -0.5027 -0.1677  0.1142
   29CHL1   H1A 2117   1.721   2.615   6.994 -1.6603 -0.7445 -0.8563
   29CHL1   H1B 2118   1.706   2.756   6.873 -1.1773 -0.9118 -0.5511
   29CHL1    C2 2119   1.781   2.560   6.810  0.0202  0.0821  0.2836
   29CHL1   H2A 2120   1.684   2.516   6.781 -0.8696  2.1207  0.0155
   29CHL1   H2B 2121   1.842   2.475   6.847  0.3486  0.5317  0.7924
   29CHL1   C20 2122   1.769   3.155   7.524 -0.6067  0.1727 -0.1723
   29CHL1   H20 2123   1.855   3.116   7.582 -2.0133 -1.3105  0.9930
   29CHL1   C21 2124   1.636   3.076   7.548  0.2398 -0.1359  0.1121
   29CHL1  H21A 2125   1.607   3.102   7.652  0.3541 -0.2625  0.1768
   29CHL1  H21B 2126   1.655   2.967   7.536 -0.4847 -0.0502 -2.3624
   29CHL1  H21C 2127   1.552   3.113   7.485 -0.2655 -2.4451 -0.6562
   29CHL1   C22 2128   1.753   3.308   7.564  0.3465  0.5871 -0.9461
   29CHL1  H22A 2129   1.837   3.362   7.514  0.7193 -0.4833 -1.5266
   29CHL1  H22B 2130   1.659   3.337   7.513  0.4557 -0.1458 -1.5993
   29CHL1   C23 2131   1.767   3.337   7.718 -0.1991 -0.5629 -0.1450
   29CHL1  H23A 2132   1.673   3.302   7.766 -0.6645  1.3215  0.3967
   29CHL1  H23B 2133   1.849   3.275   7.761 -2.3513 -2.6426  1.1946
   29CHL1   C24 2134   1.801   3.483   7.747 -0.5584 -0.1960  0.5534
   29CHL1  H24A 2135   1.886   3.514   7.813 -0.2598  4.8768 -1.7609
   29CHL1  H24B 2136   1.810   3.538   7.651  1.6987 -0.4237  0.5636
   29CHL1   C25 2137   1.690   3.555   7.827 -0.1321  0.3371  0.5573
   29CHL1   H25 2138   1.593   3.546   7.774  0.6635 -0.0812 -0.9082
   29CHL1   C26 2139   1.668   3.501   7.969  0.3628  0.1754 -0.2031
   29CHL1  H26A 2140   1.634   3.396   7.958  1.0814 -0.1478  0.5735
   29CHL1  H26B 2141   1.752   3.505   8.041 -2.3758  2.0537  3.2227
   29CHL1  H26C 2142   1.588   3.561   8.016  0.1183 -0.3744  0.0908
   29CHL1   C27 2143   1.714   3.706   7.832 -0.4756  1.2368 -0.1513
   29CHL1  H27A 2144   1.660   3.749   7.919 -1.0462  0.6537 -0.2038
   29CHL1  H27B 2145   1.823   3.708   7.850 -0.3359  1.1856 -0.9486
   29CHL1  H27C 2146   1.688   3.751   7.734  1.3888  2.4109 -0.1583
   30CHL1    C3 2147   4.658   1.272   7.206  0.1601 -0.5421 -0.3634
   30CHL1    H3 2148   4.665   1.162   7.220  1.4766 -0.3174  1.0669
   30CHL1    O3 2149   4.613   1.298   7.073 -0.1977  0.2142 -0.1620
   30CHL1   H3' 2150   4.611   1.394   7.065 -1.0497  0.1636 -0.6660
   30CHL1    C4 2151   4.538   1.325   7.292 -0.2858 -0.1952  0.0095
   30CHL1   H4A 2152   4.521   1.433   7.275 -1.0870 -0.5140 -1.3961
   30CHL1   H4B 2153   4.447   1.264   7.271 -0.8445  0.1591  1.2928
   30CHL1    C5 2154   4.575   1.319   7.436 -0.1578  0.2946  0.4162
   30CHL1    C6 2155   4.498   1.259   7.525 -0.9583  0.2067  0.5241
   30CHL1    H6 2156   4.400   1.215   7.498 -0.1343 -2.1248  1.1247
   30CHL1    C7 2157   4.518   1.244   7.670 -0.0690 -0.0461 -0.3096
   30CHL1   H7A 2158   4.428   1.243   7.735 -0.5092 -1.1487 -0.9232
   30CHL1   H7B 2159   4.559   1.141   7.678  0.1489  0.1558  1.5857
   30CHL1    C8 2160   4.621   1.354   7.714 -0.1612  0.0034  0.4897
   30CHL1    H8 2161   4.565   1.450   7.708  0.1202  0.1273 -0.2739
   30CHL1   C14 2162   4.665   1.322   7.859 -0.5520 -0.1272 -0.6586
   30CHL1   H14 2163   4.713   1.223   7.868  0.7091  0.6183  1.4294
   30CHL1   C15 2164   4.553   1.317   7.958 -0.1661  0.1172  1.1622
   30CHL1  H15A 2165   4.477   1.397   7.947 -0.6448 -0.4461  0.2681
   30CHL1  H15B 2166   4.509   1.215   7.961  0.1775 -0.0026  3.1720
   30CHL1   C16 2167   4.610   1.357   8.090 -0.0832 -0.2450 -0.2588
   30CHL1  H16A 2168   4.558   1.438   8.144 -2.1330 -1.6869  0.0150
   30CHL1  H16B 2169   4.608   1.273   8.162 -0.9594 -0.3001 -0.3409
   30CHL1   C17 2170   4.761   1.387   8.070  0.3965  0.0354 -0.1593
   30CHL1   H17 2171   4.818   1.293   8.081  0.8432  0.3218  0.0136
   30CHL1   C13 2172   4.768   1.423   7.921  0.6533  0.0418 -0.1645
   30CHL1   C18 2173   4.714   1.569   7.916  0.2784  0.0693  0.4681
   30CHL1  H18A 2174   4.679   1.604   7.816  1.4678  0.6655  0.2286
   30CHL1  H18B 2175   4.630   1.590   7.985  0.0876 -2.5521  1.1030
   30CHL1  H18C 2176   4.801   1.636   7.936  0.1724  1.2030 -2.3815
   30CHL1   C12 2177   4.898   1.400   7.838 -0.5438  0.0138 -0.2221
   30CHL1  H12A 2178   4.980   1.469   7.869 -0.3866 -0.5922  0.7687
   30CHL1  H12B 2179   4.931   1.295   7.848 -0.1447  0.3249  2.4662
   30CHL1   C11 2180   4.866   1.437   7.688 -0.1299 -0.1074  0.1081
   30CHL1  H11A 2181   4.840   1.545   7.684 -0.3985 -0.1468  0.7242
   30CHL1  H11B 2182   4.953   1.420   7.622 -0.0300 -1.5555  0.5640
   30CHL1    C9 2183   4.750   1.353   7.625 -0.4272  0.8443 -0.6327
   30CHL1    H9 2184   4.779   1.246   7.623  0.1644  1.0060 -0.9832
   30CHL1   C10 2185   4.712   1.380   7.475 -0.8642  0.3668  0.0118
   30CHL1   C19 2186   4.701   1.531   7.457 -0.7962  0.1441 -0.6205
   30CHL1  H19A 2187   4.807   1.565   7.461 -0.5438 -0.3015 -2.5368
   30CHL1  H19B 2188   4.664   1.576   7.362 -0.5353  0.2064 -0.6936
   30CHL1  H19C 2189   4.640   1.574   7.539  0.0020  0.7085 -0.3118
   30CHL1    C1 2190   4.821   1.326   7.374 -0.8259 -0.1737 -0.3699
   30CHL1   H1A 2191   4.922   1.370   7.392 -0.2056 -1.7411  0.1208
   30CHL1   H1B 2192   4.843   1.220   7.398  0.2802  0.2295  0.5341
   30CHL1    C2 2193   4.788   1.341   7.223  0.1212 -0.3326  0.2595
   30CHL1   H2A 2194   4.857   1.305   7.144  0.5183  0.4269  0.2568
   30CHL1   H2B 2195   4.791   1.449   7.199  0.0978 -0.0865  1.3102
   30CHL1   C20 2196   4.837   1.478   8.177  0.2977 -0.2368 -0.2510
   30CHL1   H20 2197   4.810   1.584   8.158  0.9806 -0.0136 -0.0145
   30CHL1   C21 2198   4.989   1.458   8.151 -0.0085 -0.6254 -0.3327
   30CHL1  H21A 2199   5.011   1.351   8.130  3.2271 -0.5136  1.9438
   30CHL1  H21B 2200   5.045   1.480   8.244 -0.7330  2.9445 -0.5728
   30CHL1  H21C 2201   5.027   1.521   8.067  0.2159 -0.9180 -0.4534
   30CHL1   C22 2202   4.813   1.435   8.328  0.4884 -0.4914  0.0968
   30CHL1  H22A 2203   4.703   1.440   8.343  0.4803 -1.9858  0.7102
   30CHL1  H22B 2204   4.848   1.330   8.337 -0.3678 -0.8824 -0.8671
   30CHL1   C23 2205   4.868   1.534   8.435 -0.1494  0.2651 -0.2618
   30CHL1  H23A 2206   4.954   1.481   8.483  1.2671  1.2750 -1.5891
   30CHL1  H23B 2207   4.922   1.624   8.401  0.8028  0.7796  2.3795
   30CHL1   C24 2208   4.764   1.574   8.541 -0.4665 -0.5285 -0.9590
   30CHL1  H24A 2209   4.668   1.606   8.496 -1.0070  2.6512  2.0316
   30CHL1  H24B 2210   4.750   1.488   8.609  1.5305 -1.1403 -1.2547
   30CHL1   C25 2211   4.811   1.692   8.629 -0.0877 -0.2619  0.3172
   30CHL1   H25 2212   4.812   1.772   8.551 -1.3880 -0.0742  0.4586
   30CHL1   C26 2213   4.707   1.733   8.734  0.2423 -0.4208  0.1966
   30CHL1  H26A 2214   4.706   1.841   8.760  0.6173 -0.8394  2.1043
   30CHL1  H26B 2215   4.609   1.725   8.681  0.4755  1.2445 -0.5590
   30CHL1  H26C 2216   4.712   1.665   8.822  2.0482 -0.5542  0.0169
   30CHL1   C27 2217   4.949   1.672   8.690 -0.6344 -0.3051 -0.1010
   30CHL1  H27A 2218   4.952   1.604   8.777 -0.5282  1.0435  0.9869
   30CHL1  H27B 2219   5.027   1.645   8.615  0.1475  1.9260 -0.1709
   30CHL1  H27C 2220   4.984   1.764   8.741  0.2883 -0.7908  0.1523
   31CHL1    C3 2221   4.817   3.900   6.664 -0.2651  0.4540  0.5050
   31CHL1    H3 2222   4.782   3.796   6.648  1.4052 -0.2135  1.0453
   31CHL1    O3 2223   4.791   3.959   6.532 -0.0688 -0.3543 -0.5501
   31CHL1   H3' 2224   4.701   3.991   6.534  0.6627  1.9021 -1.3575
   31CHL1    C4 2225   4.736   3.969   6.772  0.3288 -0.4336  0.3221
   31CHL1   H4A 2226   4.746   4.080   6.768 -0.4604 -0.2118  2.6046
   31CHL1   H4B 2227   4.627   3.953   6.759  0.0599  0.7466  0.9767
   31CHL1    C5 2228   4.786   3.929   6.915  1.3375  0.0741 -0.2342
   31CHL1    C6 2229   4.699   3.884   7.009 -0.0074  0.0148  0.8663
   31CHL1    H6 2230   4.593   3.875   6.982  0.4545 -0.3112 -0.9484
   31CHL1    C7 2231   4.740   3.834   7.148  0.2978  0.3843 -0.3482
   31CHL1   H7A 2232   4.673   3.886   7.219 -0.7494 -2.1145  0.6032
   31CHL1   H7B 2233   4.745   3.724   7.160 -1.2790  0.3746  0.4026
   31CHL1    C8 2234   4.881   3.889   7.185 -0.5317 -0.5514  0.3147
   31CHL1    H8 2235   4.868   3.998   7.198 -2.6287 -0.5838 -1.1001
   31CHL1   C14 2236   4.931   3.818   7.312 -0.3338 -0.0322 -0.1936
   31CHL1   H14 2237   4.952   3.711   7.288  3.2492  0.4582  0.2207
   31CHL1   C15 2238   4.834   3.811   7.435  0.3867 -0.4335 -0.4103
   31CHL1  H15A 2239   4.774   3.904   7.448 -0.2683 -0.6336 -1.8068
   31CHL1  H15B 2240   4.760   3.730   7.418  0.0458 -0.3319  0.5433
   31CHL1   C16 2241   4.935   3.787   7.554 -0.2131  0.5155  0.9772
   31CHL1  H16A 2242   4.908   3.874   7.619 -0.1331  0.5699  0.9377
   31CHL1  H16B 2243   4.909   3.692   7.606 -0.8043 -0.7620 -1.4955
   31CHL1   C17 2244   5.082   3.787   7.495 -0.3608 -0.0498  0.5038
   31CHL1   H17 2245   5.106   3.685   7.460  1.0461  0.0658  1.0564
   31CHL1   C13 2246   5.068   3.867   7.364 -0.2771 -0.3850  0.2681
   31CHL1   C18 2247   5.070   4.019   7.391  0.6613  0.5694 -0.0341
   31CHL1  H18A 2248   5.021   4.066   7.303  0.1596 -0.0820 -0.1134
   31CHL1  H18B 2249   5.010   4.051   7.478 -0.7190  0.5450 -0.9539
   31CHL1  H18C 2250   5.171   4.064   7.397  0.7108  0.5837 -0.8101
   31CHL1   C12 2251   5.173   3.834   7.253 -0.1816 -0.1997 -0.3328
   31CHL1  H12A 2252   5.266   3.882   7.287  1.0068 -0.6970 -2.6661
   31CHL1  H12B 2253   5.192   3.726   7.231  0.7465 -0.4855  1.6618
   31CHL1   C11 2254   5.128   3.900   7.114  0.3416  0.7041  0.2721
   31CHL1  H11A 2255   5.136   4.010   7.126  1.3367  0.6612  0.0263
   31CHL1  H11B 2256   5.197   3.869   7.032  0.4828 -0.0520  0.6655
   31CHL1    C9 2257   4.980   3.867   7.069  0.2945 -0.3451  0.3547
   31CHL1    H9 2258   4.983   3.756   7.063  0.3858 -0.3775  0.8857
   31CHL1   C10 2259   4.939   3.933   6.935 -0.0122 -0.0155 -0.1876
   31CHL1   C19 2260   4.974   4.085   6.937  0.2316 -0.0276 -0.7323
   31CHL1  H19A 2261   4.958   4.145   6.845  2.3914  0.9424 -0.5315
   31CHL1  H19B 2262   4.927   4.142   7.020  0.6743 -0.5748 -0.0980
   31CHL1  H19C 2263   5.084   4.087   6.956 -0.0642  2.6756  1.2929
   31CHL1    C1 2264   5.016   3.857   6.819  0.2427  0.1607 -0.1476
   31CHL1   H1A 2265   5.123   3.884   6.837 -0.0420  1.4249 -0.1991
   31CHL1   H1B 2266   5.009   3.747   6.832 -0.4395  0.2223  0.0165
   31CHL1    C2 2267   4.971   3.911   6.687 -0.0292  0.9285 -0.2915
   31CHL1   H2A 2268   5.033   3.867   6.605 -2.0376 -2.4918 -0.1540
   31CHL1   H2B 2269   4.983   4.021   6.691  0.9842  0.8047  3.0313
   31CHL1   C20 2270   5.194   3.836   7.591  0.2178 -0.3728  0.2527
   31CHL1   H20 2271   5.191   3.946   7.609  1.3707 -0.4255  0.8937
   31CHL1   C21 2272   5.337   3.803   7.535  0.2976  0.6402 -0.5164
   31CHL1  H21A 2273   5.330   3.707   7.479 -0.5788 -0.1886  0.9562
   31CHL1  H21B 2274   5.412   3.778   7.612 -0.1873 -0.0051 -0.2448
   31CHL1  H21C 2275   5.375   3.883   7.468  0.2856  0.4783 -0.7181
   31CHL1   C22 2276   5.184   3.779   7.735  1.2005  0.4144  0.4584
   31CHL1  H22A 2277   5.080   3.799   7.767  0.5683 -1.7606 -0.0006
   31CHL1  H22B 2278   5.183   3.668   7.731 -1.7968  0.3862 -0.4226
   31CHL1   C23 2279   5.292   3.829   7.834 -0.2093  0.0707  0.5300
   31CHL1  H23A 2280   5.389   3.785   7.805 -1.0036 -1.8957  0.7156
   31CHL1  H23B 2281   5.288   3.940   7.832 -1.4645  0.0347 -0.3165
   31CHL1   C24 2282   5.270   3.773   7.975  0.3393  0.2677  0.6443
   31CHL1  H24A 2283   5.256   3.663   7.982 -0.4296  0.0984 -2.2916
   31CHL1  H24B 2284   5.356   3.816   8.031 -1.6323  1.4833  2.9523
   31CHL1   C25 2285   5.142   3.834   8.042  0.1988  0.4400  0.3882
   31CHL1   H25 2286   5.056   3.832   7.972 -0.0736  1.1731  0.6900
   31CHL1   C26 2287   5.098   3.738   8.150 -0.3035 -0.4646 -0.7888
   31CHL1  H26A 2288   5.161   3.727   8.241 -0.7293  4.2295  0.3356
   31CHL1  H26B 2289   4.996   3.779   8.165 -0.1659  0.3746 -2.0037
   31CHL1  H26C 2290   5.083   3.637   8.106 -0.3742  0.0853 -2.0623
   31CHL1   C27 2291   5.164   3.977   8.091 -0.0910 -0.0038 -0.8252
   31CHL1  H27A 2292   5.068   4.028   8.113  1.8463  3.8440 -0.5154
   31CHL1  H27B 2293   5.220   4.026   8.008  0.6465  0.3305 -0.1420
   31CHL1  H27C 2294   5.229   3.970   8.181 -0.7371 -0.5392 -0.3923
   32CHL1    C3 2295   6.452   4.149   6.759 -0.6870  0.3588  0.4895
   32CHL1    H3 2296   6.368   4.214   6.725 -0.8832 -0.4797 -0.6812
   32CHL1    O3 2297   6.521   4.094   6.647 -0.6054  0.2306 -0.9736
   32CHL1   H3' 2298   6.569   4.164   6.602  1.4524 -0.2583  0.3113
   32CHL1    C4 2299   6.557   4.225   6.848  0.0047 -0.2760  0.4714
   32CHL1   H4A 2300   6.642   4.153   6.857  0.9802  0.8348  0.4251
   32CHL1   H4B 2301   6.590   4.310   6.784 -0.6802  0.5894  1.2343
   32CHL1    C5 2302   6.505   4.269   6.983 -0.1694  0.0171  0.1836
   32CHL1    C6 2303   6.507   4.398   7.019  0.2388 -0.5265 -0.3513
   32CHL1    H6 2304   6.559   4.471   6.956  0.1851 -0.6396 -0.5256
   32CHL1    C7 2305   6.457   4.459   7.149  0.3239  0.0706 -0.0038
   32CHL1   H7A 2306   6.520   4.545   7.180  0.3652  0.6610 -1.6529
   32CHL1   H7B 2307   6.355   4.505   7.144  0.9554  1.8472  1.8786
   32CHL1    C8 2308   6.439   4.345   7.256  0.4431 -0.1784 -0.2366
   32CHL1    H8 2309   6.533   4.302   7.297 -0.4331 -0.3057  1.7682
   32CHL1   C14 2310   6.355   4.390   7.375  0.5056 -0.3743 -0.0212
   32CHL1   H14 2311   6.255   4.420   7.339  0.1544 -1.2406  0.2124
   32CHL1   C15 2312   6.396   4.520   7.454 -0.5326  0.7985  0.7882
   32CHL1  H15A 2313   6.506   4.533   7.461 -0.2938  0.4518 -1.5183
   32CHL1  H15B 2314   6.352   4.610   7.406  0.3749  0.0756 -1.5026
   32CHL1   C16 2315   6.337   4.502   7.589  0.4121  0.3719 -0.0263
   32CHL1  H16A 2316   6.416   4.497   7.667  1.7074 -2.1435 -1.3577
   32CHL1  H16B 2317   6.266   4.586   7.608  0.9694  1.2730 -1.6762
   32CHL1   C17 2318   6.253   4.373   7.582  0.2014  0.0231  0.0013
   32CHL1   H17 2319   6.155   4.396   7.535 -0.4094  0.2498  1.3250
   32CHL1   C13 2320   6.322   4.286   7.487  0.0222  0.2372  0.3897
   32CHL1   C18 2321   6.451   4.235   7.551  0.2546 -0.2480 -0.6041
   32CHL1  H18A 2322   6.428   4.186   7.648  0.4250 -0.2665 -0.5726
   32CHL1  H18B 2323   6.505   4.164   7.484 -0.3835 -0.7978 -0.5447
   32CHL1  H18C 2324   6.521   4.317   7.576  0.5705 -0.9375  0.9176
   32CHL1   C12 2325   6.243   4.177   7.416  0.8376  1.1364  0.5304
   32CHL1  H12A 2326   6.231   4.098   7.494 -2.7883 -0.2947 -1.2492
   32CHL1  H12B 2327   6.140   4.201   7.381 -0.4292 -3.6349  0.3418
   32CHL1   C11 2328   6.322   4.115   7.307  0.4351 -0.1127 -0.5639
   32CHL1  H11A 2329   6.406   4.053   7.345 -1.2640 -0.8884  2.2054
   32CHL1  H11B 2330   6.250   4.047   7.256  0.6461  0.7509 -2.0693
   32CHL1    C9 2331   6.368   4.217   7.197  0.1980 -0.5981  0.3915
   32CHL1    H9 2332   6.278   4.265   7.153  2.5775  2.0058 -2.0983
   32CHL1   C10 2333   6.442   4.160   7.069 -0.3117  0.3640  0.5825
   32CHL1   C19 2334   6.559   4.067   7.110  0.3326 -0.3640 -0.0627
   32CHL1  H19A 2335   6.612   4.026   7.021  1.0232 -0.3814  0.3509
   32CHL1  H19B 2336   6.638   4.124   7.162  0.8207  0.2561 -1.4435
   32CHL1  H19C 2337   6.507   3.982   7.160 -0.4688  0.0366 -0.2031
   32CHL1    C1 2338   6.336   4.085   6.978  0.5387 -0.8770  0.4303
   32CHL1   H1A 2339   6.293   4.001   7.035 -0.7158  0.0394  0.8847
   32CHL1   H1B 2340   6.260   4.166   6.970  3.4006  1.9575 -0.0449
   32CHL1    C2 2341   6.388   4.039   6.838  0.1316 -0.0460  0.4162
   32CHL1   H2A 2342   6.304   3.999   6.777 -0.4726  1.7521  0.0052
   32CHL1   H2B 2343   6.464   3.960   6.854  1.1424  0.6144 -0.9230
   32CHL1   C20 2344   6.219   4.312   7.716 -0.0704 -0.4098 -0.1972
   32CHL1   H20 2345   6.197   4.204   7.703  2.4187 -0.7881 -1.9708
   32CHL1   C21 2346   6.086   4.383   7.763 -0.1083 -0.0710  0.8565
   32CHL1  H21A 2347   6.043   4.329   7.850  0.2829  1.6802  2.1899
   32CHL1  H21B 2348   6.007   4.383   7.686  1.4478  0.1711 -0.8013
   32CHL1  H21C 2349   6.112   4.488   7.790  1.9640 -0.4688  0.5909
   32CHL1   C22 2350   6.321   4.324   7.836  0.1505 -0.1337  0.4474
   32CHL1  H22A 2351   6.427   4.313   7.806  0.1966 -3.6053  1.5001
   32CHL1  H22B 2352   6.314   4.432   7.862 -1.3303  0.0524 -0.6215
   32CHL1   C23 2353   6.280   4.259   7.967 -0.2940  0.3713  0.0651
   32CHL1  H23A 2354   6.184   4.294   8.009  0.1340  2.5626 -0.6478
   32CHL1  H23B 2355   6.275   4.151   7.940  5.3754 -0.0391 -0.5183
   32CHL1   C24 2356   6.394   4.278   8.062 -0.5022 -0.0623 -0.1437
   32CHL1  H24A 2357   6.478   4.223   8.014  1.0193  0.7472  1.5084
   32CHL1  H24B 2358   6.410   4.388   8.066  1.5274 -0.3540  0.8432
   32CHL1   C25 2359   6.372   4.213   8.200 -1.0747 -0.4950 -0.9858
   32CHL1   H25 2360   6.288   4.265   8.250  1.3640  0.5929  2.3874
   32CHL1   C26 2361   6.364   4.061   8.185 -0.2096 -0.5016  0.3359
   32CHL1  H26A 2362   6.266   4.026   8.146  0.1092 -1.1757  0.1213
   32CHL1  H26B 2363   6.442   4.007   8.128 -0.5807  0.2602 -0.9228
   32CHL1  H26C 2364   6.365   4.020   8.288 -1.5030  3.1421  1.9788
   32CHL1   C27 2365   6.490   4.253   8.292 -0.1142 -0.2575  0.0665
   32CHL1  H27A 2366   6.495   4.195   8.387  4.3418  0.3179  0.3875
   32CHL1  H27B 2367   6.588   4.236   8.241 -0.5943  1.5798 -1.5778
   32CHL1  H27C 2368   6.493   4.359   8.323  1.6562 -0.1752 -0.2694
   33CHL1    C3 2369   6.732   1.391   7.052  0.2066 -0.3412  0.0214
   33CHL1    H3 2370   6.788   1.303   7.091 -1.3010 -0.4768  1.9962
   33CHL1    O3 2371   6.668   1.364   6.930 -0.4247 -0.8219  0.3720
   33CHL1   H3' 2372   6.687   1.443   6.879 -1.8283  0.7209  2.0846
   33CHL1    C4 2373   6.629   1.425   7.154  0.6292  0.5270  0.4639
   33CHL1   H4A 2374   6.572   1.516   7.124 -0.7614  0.1310  1.7354
   33CHL1   H4B 2375   6.554   1.344   7.160  1.1582  0.0934  1.6598
   33CHL1    C5 2376   6.701   1.438   7.286  0.5696  0.5561 -0.7750
   33CHL1    C6 2377   6.675   1.353   7.387  0.0839 -1.0542 -0.1150
   33CHL1    H6 2378   6.597   1.276   7.381  0.7636 -1.9242  1.5507
   33CHL1    C7 2379   6.738   1.369   7.520  0.4124 -0.4643 -0.5217
   33CHL1   H7A 2380   6.661   1.358   7.600  1.0599 -0.9590  0.0483
   33CHL1   H7B 2381   6.824   1.303   7.540  0.9202  0.4436  0.3700
   33CHL1    C8 2382   6.799   1.511   7.535 -0.4615 -0.6852  0.9406
   33CHL1    H8 2383   6.720   1.588   7.548  0.4414  0.1411  1.7654
   33CHL1   C14 2384   6.898   1.506   7.652  0.5652  0.1563 -0.2403
   33CHL1   H14 2385   6.984   1.441   7.625 -0.8647 -2.7507  1.7271
   33CHL1   C15 2386   6.835   1.456   7.783 -0.0013  0.6498  0.7082
   33CHL1  H15A 2387   6.730   1.486   7.803 -0.7237 -2.0689  1.4195
   33CHL1  H15B 2388   6.845   1.346   7.777  1.7431  0.8533 -1.4755
   33CHL1   C16 2389   6.932   1.518   7.888  0.1087  0.9664 -0.1295
   33CHL1  H16A 2390   6.867   1.586   7.947 -0.9292 -0.6769  0.6865
   33CHL1  H16B 2391   6.994   1.445   7.944 -1.1822  0.4983  0.7586
   33CHL1   C17 2392   7.038   1.606   7.813  0.3961 -0.8944 -0.3481
   33CHL1   H17 2393   7.122   1.537   7.789  1.3090  0.7073 -2.0716
   33CHL1   C13 2394   6.965   1.644   7.686 -0.1835 -0.2573  0.3487
   33CHL1   C18 2395   6.861   1.766   7.705  0.2040  0.1090 -0.7345
   33CHL1  H18A 2396   6.906   1.851   7.759  2.2179  0.7456 -3.2046
   33CHL1  H18B 2397   6.815   1.802   7.610  2.7826  0.8068 -1.8019
   33CHL1  H18C 2398   6.769   1.734   7.757  0.2217 -1.2377 -1.4795
   33CHL1   C12 2399   7.052   1.682   7.564 -0.7172 -0.4231 -0.1339
   33CHL1  H12A 2400   7.074   1.791   7.571  2.8833 -1.0399  0.4283
   33CHL1  H12B 2401   7.146   1.623   7.558  0.0472  0.7740 -0.4598
   33CHL1   C11 2402   6.975   1.675   7.432 -0.3899 -0.1240  0.5196
   33CHL1  H11A 2403   6.904   1.760   7.423  0.5768  0.5230 -1.8789
   33CHL1  H11B 2404   7.053   1.692   7.355  0.5446 -0.1810  1.4335
   33CHL1    C9 2405   6.888   1.544   7.408  0.0000 -0.0981  0.1387
   33CHL1    H9 2406   6.961   1.461   7.399  1.6621  1.0127  2.3355
   33CHL1   C10 2407   6.800   1.547   7.280  0.4119 -0.2614  0.4297
   33CHL1   C19 2408   6.721   1.681   7.268 -0.2413 -0.0149  0.2447
   33CHL1  H19A 2409   6.634   1.693   7.336 -1.8768  2.3378 -2.0544
   33CHL1  H19B 2410   6.784   1.772   7.272  0.1558 -0.2349 -0.6030
   33CHL1  H19C 2411   6.668   1.684   7.170 -2.2144  0.5206  1.2800
   33CHL1    C1 2412   6.894   1.535   7.155  0.3193  0.2341 -1.4262
   33CHL1   H1A 2413   6.956   1.624   7.133 -1.3004  1.3732 -1.4929
   33CHL1   H1B 2414   6.964   1.452   7.179  0.1263  0.5547  0.4117
   33CHL1    C2 2415   6.823   1.510   7.026  0.6230  0.3635 -0.2458
   33CHL1   H2A 2416   6.902   1.478   6.954  0.4541 -0.4784 -0.0697
   33CHL1   H2B 2417   6.770   1.598   6.985  0.4611  0.1935 -0.4047
   33CHL1   C20 2418   7.090   1.724   7.901 -0.3611 -0.3396 -0.6100
   33CHL1   H20 2419   7.001   1.785   7.928  0.7613  0.9473  0.3050
   33CHL1   C21 2420   7.189   1.804   7.824 -0.3923 -1.0584  0.2362
   33CHL1  H21A 2421   7.282   1.756   7.784 -0.4404  0.0700 -1.3403
   33CHL1  H21B 2422   7.216   1.890   7.889  1.8574 -2.6433  1.5681
   33CHL1  H21C 2423   7.128   1.866   7.754 -0.2093 -1.0274  0.1024
   33CHL1   C22 2424   7.155   1.670   8.034  0.1844 -0.7753  0.4239
   33CHL1  H22A 2425   7.078   1.607   8.085  0.5150 -1.3835  0.1867
   33CHL1  H22B 2426   7.231   1.593   8.008  0.0020 -1.7154  2.4013
   33CHL1   C23 2427   7.209   1.777   8.127  0.5526 -0.2417 -0.3974
   33CHL1  H23A 2428   7.318   1.781   8.107  0.5493 -0.9207 -0.5668
   33CHL1  H23B 2429   7.158   1.876   8.126 -0.3426 -0.6271  2.1132
   33CHL1   C24 2430   7.209   1.731   8.278  0.5200 -0.1746  0.3339
   33CHL1  H24A 2431   7.115   1.678   8.301  1.1924 -0.7695  1.8187
   33CHL1  H24B 2432   7.292   1.660   8.297 -0.2440 -0.2480  4.1491
   33CHL1   C25 2433   7.223   1.843   8.382 -0.1445 -0.7976  0.3831
   33CHL1   H25 2434   7.136   1.910   8.369  0.4132 -0.2779 -0.8195
   33CHL1   C26 2435   7.222   1.787   8.529 -0.4893 -0.1126  0.2364
   33CHL1  H26A 2436   7.145   1.709   8.545 -0.0961 -1.2387 -2.7510
   33CHL1  H26B 2437   7.320   1.743   8.559  0.1859  0.6935 -0.7204
   33CHL1  H26C 2438   7.195   1.866   8.603  0.8834  0.5518  0.0697
   33CHL1   C27 2439   7.347   1.925   8.354  0.4702 -0.0393 -0.3437
   33CHL1  H27A 2440   7.439   1.885   8.402 -1.0798 -0.5589  2.3985
   33CHL1  H27B 2441   7.373   1.927   8.246  1.0018  0.9708 -0.2034
   33CHL1  H27C 2442   7.331   2.029   8.388 -0.3216 -0.1441 -0.3615
   34CHL1    C3 2443   1.647   6.153   7.093  0.6497  0.3187  1.0677
   34CHL1    H3 2444   1.577   6.238   7.110 -1.5306 -1.2329  0.2655
   34CHL1    O3 2445   1.674   6.148   6.955 -0.0498 -0.3364 -0.3646
   34CHL1   H3' 2446   1.761   6.109   6.947  0.7029  0.7201  1.7979
   34CHL1    C4 2447   1.771   6.173   7.182 -0.9663  0.6526  0.1128
   34CHL1   H4A 2448   1.843   6.098   7.143  1.7680  2.7667  0.8158
   34CHL1   H4B 2449   1.809   6.274   7.158  3.1463 -0.5059  0.9314
   34CHL1    C5 2450   1.747   6.145   7.329 -0.9549  0.5279 -0.2136
   34CHL1    C6 2451   1.794   6.239   7.415 -0.2915  0.0216  0.0132
   34CHL1    H6 2452   1.850   6.326   7.379 -2.2873  0.3323 -2.6298
   34CHL1    C7 2453   1.783   6.219   7.569  0.7136 -0.3250  0.4999
   34CHL1   H7A 2454   1.875   6.256   7.617 -0.6112 -0.7171  3.5487
   34CHL1   H7B 2455   1.703   6.286   7.607  1.6755  1.2390 -0.1535
   34CHL1    C8 2456   1.739   6.072   7.607  0.3359 -0.2908 -0.3298
   34CHL1    H8 2457   1.828   6.007   7.595  2.2066  2.0231  0.0331
   34CHL1   C14 2458   1.696   6.073   7.754  0.0799  0.0339 -0.2484
   34CHL1   H14 2459   1.613   6.148   7.753  0.3134  0.3084 -1.4645
   34CHL1   C15 2460   1.790   6.125   7.863  0.1587  0.3459 -0.5950
   34CHL1  H15A 2461   1.883   6.064   7.851  2.1822  3.4958 -2.3808
   34CHL1  H15B 2462   1.816   6.232   7.851  0.2255  0.2342 -1.4922
   34CHL1   C16 2463   1.720   6.090   7.996 -0.1253  0.0728  0.2627
   34CHL1  H16A 2464   1.785   6.041   8.072 -0.2030 -1.4295 -0.5967
   34CHL1  H16B 2465   1.670   6.176   8.044 -1.3370  1.2548 -2.8465
   34CHL1   C17 2466   1.612   5.987   7.951  0.1671 -0.4462 -0.5352
   34CHL1   H17 2467   1.510   6.031   7.958  0.6086  0.4622  0.4846
   34CHL1   C13 2468   1.635   5.946   7.804  0.0564 -0.8861  0.2129
   34CHL1   C18 2469   1.739   5.831   7.805 -0.5007  0.2872  0.6270
   34CHL1  H18A 2470   1.814   5.869   7.877 -0.2958 -0.3409  0.7431
   34CHL1  H18B 2471   1.699   5.732   7.835  1.0836 -0.5069  0.1980
   34CHL1  H18C 2472   1.788   5.817   7.706 -0.7060  1.6737  0.3034
   34CHL1   C12 2473   1.519   5.918   7.717  0.3261 -0.4415 -0.3633
   34CHL1  H12A 2474   1.462   5.830   7.754  0.8376  0.0502  1.7339
   34CHL1  H12B 2475   1.443   5.999   7.715  1.9925  1.2425  0.9846
   34CHL1   C11 2476   1.562   5.901   7.573  0.6551 -0.7655  0.0907
   34CHL1  H11A 2477   1.632   5.815   7.569  1.6758 -0.1081  2.2266
   34CHL1  H11B 2478   1.467   5.891   7.515 -0.6780  1.6870  1.6495
   34CHL1    C9 2479   1.623   6.033   7.522 -0.3826 -0.0425  0.0916
   34CHL1    H9 2480   1.551   6.116   7.538 -2.0445 -1.5169  0.5095
   34CHL1   C10 2481   1.658   6.023   7.368 -0.3558 -0.5244 -0.0220
   34CHL1   C19 2482   1.758   5.898   7.342 -0.2571 -0.0899  0.3632
   34CHL1  H19A 2483   1.839   5.894   7.417  2.8048 -0.4501 -2.6965
   34CHL1  H19B 2484   1.700   5.805   7.358  1.1329 -1.3355 -1.3620
   34CHL1  H19C 2485   1.815   5.895   7.247  0.8264 -1.6554  1.0248
   34CHL1    C1 2486   1.534   6.019   7.277 -0.2340  0.0616 -0.6530
   34CHL1   H1A 2487   1.467   5.937   7.311  0.9973 -0.3296  0.9445
   34CHL1   H1B 2488   1.480   6.110   7.311 -0.9098 -0.2586 -0.8304
   34CHL1    C2 2489   1.557   6.026   7.125  0.3028 -0.0742  0.0682
   34CHL1   H2A 2490   1.462   6.041   7.069 -0.5266 -1.8354  0.9295
   34CHL1   H2B 2491   1.603   5.934   7.083 -1.8757 -1.4783  0.6116
   34CHL1   C20 2492   1.596   5.872   8.058  0.4614 -0.4329 -0.0408
   34CHL1   H20 2493   1.689   5.813   8.069 -0.5630 -1.5911  3.7725
   34CHL1   C21 2494   1.484   5.778   8.016  0.3973  0.8464 -0.1428
   34CHL1  H21A 2495   1.449   5.708   8.095  1.0293  0.8549  0.1557
   34CHL1  H21B 2496   1.517   5.707   7.937 -0.8735 -1.3292  1.1871
   34CHL1  H21C 2497   1.396   5.834   7.979  0.6617  2.4574  1.5059
   34CHL1   C22 2498   1.566   5.929   8.201  0.3905 -0.0652  0.0755
   34CHL1  H22A 2499   1.648   6.002   8.219  0.9593 -0.4270 -1.0082
   34CHL1  H22B 2500   1.473   5.990   8.208  0.5554  0.2818 -0.7048
   34CHL1   C23 2501   1.572   5.830   8.311  0.1583 -0.0147  0.5268
   34CHL1  H23A 2502   1.490   5.757   8.299  0.3820 -0.3291  0.8859
   34CHL1  H23B 2503   1.666   5.771   8.312 -0.6323 -1.2988  1.4131
   34CHL1   C24 2504   1.545   5.899   8.459 -0.2401 -0.1820  0.1483
   34CHL1  H24A 2505   1.616   5.984   8.466 -0.8180  0.2489  0.9713
   34CHL1  H24B 2506   1.446   5.949   8.458  0.6408  1.6481 -0.2471
   34CHL1   C25 2507   1.567   5.827   8.588 -0.1071 -0.2019 -1.0120
   34CHL1   H25 2508   1.663   5.771   8.582  1.3105  1.9940  0.1160
   34CHL1   C26 2509   1.573   5.919   8.718 -0.1581  0.8011  0.0678
   34CHL1  H26A 2510   1.492   5.994   8.734  1.0773  1.8894  1.5213
   34CHL1  H26B 2511   1.574   5.851   8.805 -0.4159 -0.9194 -1.2301
   34CHL1  H26C 2512   1.657   5.992   8.714 -1.5958  2.5213  0.2427
   34CHL1   C27 2513   1.460   5.714   8.606 -0.7456 -0.5446  0.0851
   34CHL1  H27A 2514   1.471   5.644   8.520 -0.2042 -1.2623  0.7187
   34CHL1  H27B 2515   1.487   5.653   8.695 -2.1626 -1.3659 -0.0006
   34CHL1  H27C 2516   1.356   5.752   8.604 -0.9358 -0.7992 -4.0357
   35CHL1    C3 2517   5.637   0.565   7.355  0.1619 -0.7320 -0.5945
   35CHL1    H3 2518   5.740   0.540   7.387 -0.1856  1.6512  3.0855
   35CHL1    O3 2519   5.626   0.524   7.223 -0.1353  0.3620 -0.2587
   35CHL1   H3' 2520   5.539   0.485   7.224 -0.4771  1.1079  0.0486
   35CHL1    C4 2521   5.531   0.504   7.443  0.1518 -0.7590 -0.3633
   35CHL1   H4A 2522   5.430   0.533   7.409 -0.3803 -1.3058  0.6961
   35CHL1   H4B 2523   5.526   0.394   7.433 -1.2077 -0.7626  0.2253
   35CHL1    C5 2524   5.547   0.554   7.587  0.2508  0.6954  0.1277
   35CHL1    C6 2525   5.557   0.468   7.691 -0.4358  0.1793 -0.4764
   35CHL1    H6 2526   5.541   0.359   7.684 -1.1328  0.2094  0.4942
   35CHL1    C7 2527   5.580   0.514   7.829 -0.0030  0.3728  0.1151
   35CHL1   H7A 2528   5.520   0.454   7.901  0.7672  0.4904  0.8698
   35CHL1   H7B 2529   5.685   0.486   7.854 -0.1711 -0.0086  0.4043
   35CHL1    C8 2530   5.566   0.667   7.851  0.0438 -0.3756 -0.0869
   35CHL1    H8 2531   5.456   0.684   7.855  0.1188 -0.1390  2.2821
   35CHL1   C14 2532   5.615   0.710   7.992  0.6747 -0.1250  0.7845
   35CHL1   H14 2533   5.722   0.685   7.981 -0.1166 -4.0317  0.6065
   35CHL1   C15 2534   5.584   0.628   8.112 -0.6926  0.1861  0.0538
   35CHL1  H15A 2535   5.475   0.612   8.126 -1.0712 -0.0452 -2.6437
   35CHL1  H15B 2536   5.638   0.531   8.104 -1.5244 -0.2576 -0.2643
   35CHL1   C16 2537   5.636   0.717   8.224  0.1321  1.7816 -0.5595
   35CHL1  H16A 2538   5.544   0.735   8.284 -0.1231  0.0508 -0.3694
   35CHL1  H16B 2539   5.710   0.670   8.292  0.4096  1.7855 -0.8562
   35CHL1   C17 2540   5.664   0.854   8.165  0.0323  0.2638  0.4929
   35CHL1   H17 2541   5.774   0.840   8.153  0.0399 -0.2721  1.0902
   35CHL1   C13 2542   5.600   0.859   8.028 -0.7439  0.8671 -0.2053
   35CHL1   C18 2543   5.448   0.888   8.051 -0.3220  0.0252  0.4473
   35CHL1  H18A 2544   5.405   0.821   8.128  0.9819 -0.6444  0.6291
   35CHL1  H18B 2545   5.424   0.995   8.069  0.8496  0.3223  0.3709
   35CHL1  H18C 2546   5.381   0.849   7.972  0.9208 -1.0728 -0.0925
   35CHL1   C12 2547   5.665   0.936   7.915 -0.2988 -0.5886 -0.4329
   35CHL1  H12A 2548   5.664   1.044   7.939 -2.4065 -0.4148 -1.1312
   35CHL1  H12B 2549   5.770   0.899   7.914 -0.2763 -0.5392 -1.3210
   35CHL1   C11 2550   5.610   0.905   7.777  0.0666  0.1695 -1.2928
   35CHL1  H11A 2551   5.501   0.923   7.776  0.3789  2.5289 -3.3928
   35CHL1  H11B 2552   5.658   0.971   7.701 -0.9157  2.3053 -0.1378
   35CHL1    C9 2553   5.628   0.755   7.739  0.2252  0.0846 -0.2591
   35CHL1    H9 2554   5.737   0.734   7.734  0.5170  1.4878 -0.0261
   35CHL1   C10 2555   5.567   0.713   7.600 -1.0351  0.4870 -0.3783
   35CHL1   C19 2556   5.428   0.779   7.577 -0.4964 -0.8470  0.3332
   35CHL1  H19A 2557   5.364   0.759   7.666 -0.0449  1.6349  1.2933
   35CHL1  H19B 2558   5.438   0.889   7.566 -0.6432 -0.9526 -0.9945
   35CHL1  H19C 2559   5.388   0.737   7.482 -2.6310  2.0078 -0.1551
   35CHL1    C1 2560   5.669   0.765   7.488 -0.4880 -0.1689  0.2080
   35CHL1   H1A 2561   5.660   0.874   7.503 -1.6034 -0.0879 -0.8921
   35CHL1   H1B 2562   5.773   0.728   7.492 -0.1550  0.7530  0.0926
   35CHL1    C2 2563   5.635   0.718   7.356 -0.2410 -0.0309  0.3794
   35CHL1   H2A 2564   5.704   0.756   7.278 -0.1623 -0.5464  0.1962
   35CHL1   H2B 2565   5.535   0.754   7.322 -1.1654 -1.1895  1.7171
   35CHL1   C20 2566   5.643   0.962   8.264  0.0507 -0.5175 -0.3809
   35CHL1   H20 2567   5.537   0.963   8.298  0.4570  0.2170  0.9203
   35CHL1   C21 2568   5.658   1.108   8.214  0.0461 -0.5459  0.6321
   35CHL1  H21A 2569   5.764   1.118   8.184  0.7286 -1.3345  2.6303
   35CHL1  H21B 2570   5.638   1.178   8.297  2.1250  0.5507  0.2728
   35CHL1  H21C 2571   5.600   1.138   8.124  1.3861  0.2780  0.0203
   35CHL1   C22 2572   5.719   0.940   8.395  0.5225 -0.8362 -0.0698
   35CHL1  H22A 2573   5.728   0.831   8.415 -0.1407 -1.0170 -0.6769
   35CHL1  H22B 2574   5.822   0.978   8.380  0.9074 -2.4190 -1.8913
   35CHL1   C23 2575   5.648   0.996   8.511  0.8809  0.5462 -0.5870
   35CHL1  H23A 2576   5.654   1.107   8.501  2.5912  0.8371  2.3059
   35CHL1  H23B 2577   5.543   0.961   8.521  0.9128  0.9159  1.8521
   35CHL1   C24 2578   5.728   0.967   8.646  0.2317  0.4961  0.6704
   35CHL1  H24A 2579   5.734   0.857   8.661 -1.7040  0.3566  0.6502
   35CHL1  H24B 2580   5.830   1.010   8.641 -0.1006  1.4566  1.7786
   35CHL1   C25 2581   5.668   1.024   8.773 -0.0732  0.3501  0.2818
   35CHL1   H25 2582   5.650   1.132   8.756  1.2758  0.2461 -2.2934
   35CHL1   C26 2583   5.526   0.970   8.797 -0.3969 -0.4012 -0.1012
   35CHL1  H26A 2584   5.533   0.859   8.802 -2.8041 -0.6668 -1.0989
   35CHL1  H26B 2585   5.483   1.008   8.892  4.2256  0.3918  1.9624
   35CHL1  H26C 2586   5.448   0.991   8.720  0.2648  1.4159 -0.3259
   35CHL1   C27 2587   5.743   0.993   8.905  0.2279  0.8048  0.0081
   35CHL1  H27A 2588   5.691   1.033   8.994  1.2054 -2.8045  2.4121
   35CHL1  H27B 2589   5.849   1.025   8.899  0.0248  1.2820 -1.8532
   35CHL1  H27C 2590   5.735   0.885   8.928  0.6895  0.7650 -0.0269
   36CHL1    C3 2591   3.535   6.017   7.164 -0.5913 -0.1923  0.3433
   36CHL1    H3 2592   3.501   5.914   7.186  0.1413 -0.5205 -0.0459
   36CHL1    O3 2593   3.544   6.028   7.025  0.1425  0.5258  0.5671
   36CHL1   H3' 2594   3.610   5.963   7.001 -1.4013 -1.1289  0.5753
   36CHL1    C4 2595   3.456   6.130   7.238 -0.3167 -0.0592  0.2348
   36CHL1   H4A 2596   3.490   6.227   7.196  0.7723 -1.6333 -2.8507
   36CHL1   H4B 2597   3.353   6.128   7.197  0.6076 -1.5229 -2.2613
   36CHL1    C5 2598   3.456   6.113   7.386 -0.2885  0.7759  0.0419
   36CHL1    C6 2599   3.341   6.095   7.452 -0.7758  0.2881  0.3005
   36CHL1    H6 2600   3.243   6.097   7.403  0.2902 -0.6736 -2.0193
   36CHL1    C7 2601   3.338   6.083   7.600  0.1311  0.1593 -0.1563
   36CHL1   H7A 2602   3.260   6.159   7.622  1.4435  1.7730 -0.8409
   36CHL1   H7B 2603   3.305   5.981   7.631  1.2847  0.2871  1.6592
   36CHL1    C8 2604   3.473   6.113   7.669  0.2201  0.0421 -0.5123
   36CHL1    H8 2605   3.492   6.222   7.672  0.4896 -0.0054 -0.3981
   36CHL1   C14 2606   3.478   6.057   7.814 -0.0775 -0.6407 -0.5173
   36CHL1   H14 2607   3.463   5.947   7.804 -1.4300 -0.7036  1.5239
   36CHL1   C15 2608   3.371   6.107   7.917 -0.1485  0.0792  0.5671
   36CHL1  H15A 2609   3.358   6.217   7.904 -0.3826 -0.1564 -1.7511
   36CHL1  H15B 2610   3.268   6.067   7.901  0.0839 -0.6918  0.9612
   36CHL1   C16 2611   3.419   6.061   8.050 -0.0658  0.9386 -0.2743
   36CHL1  H16A 2612   3.402   6.146   8.120 -3.2904  0.2780 -0.0975
   36CHL1  H16B 2613   3.357   5.980   8.094  0.2647 -0.9022 -2.9721
   36CHL1   C17 2614   3.566   6.018   8.029  0.1474  0.2174  0.4708
   36CHL1   H17 2615   3.545   5.910   8.012  0.7812  0.1602  0.0332
   36CHL1   C13 2616   3.607   6.077   7.891  0.3281 -0.6574  0.4356
   36CHL1   C18 2617   3.644   6.224   7.909 -0.1654 -0.2689 -0.5892
   36CHL1  H18A 2618   3.578   6.271   7.984 -0.8968 -0.7874 -0.8980
   36CHL1  H18B 2619   3.749   6.232   7.946 -1.1516  1.4516  2.1304
   36CHL1  H18C 2620   3.646   6.279   7.812 -1.2187  0.0659 -0.4334
   36CHL1   C12 2621   3.703   5.991   7.811  0.4334 -0.6739 -0.5454
   36CHL1  H12A 2622   3.801   5.980   7.862  0.6397 -3.8022 -1.3823
   36CHL1  H12B 2623   3.660   5.888   7.813 -1.2259 -0.0177  1.3082
   36CHL1   C11 2624   3.720   6.033   7.668  0.7617 -0.4048 -0.2940
   36CHL1  H11A 2625   3.774   6.130   7.662  0.3929 -0.2655 -2.8946
   36CHL1  H11B 2626   3.781   5.952   7.623  0.1588 -0.4573 -1.0431
   36CHL1    C9 2627   3.587   6.045   7.592  0.6657 -0.0022 -0.3132
   36CHL1    H9 2628   3.544   5.943   7.580 -4.4143  1.6412  1.3958
   36CHL1   C10 2629   3.601   6.102   7.444 -0.6859 -0.9122  0.2023
   36CHL1   C19 2630   3.674   6.248   7.445  0.9598  0.1137  1.0798
   36CHL1  H19A 2631   3.651   6.317   7.529  0.3291  0.3600  0.7133
   36CHL1  H19B 2632   3.785   6.237   7.448  1.4999  3.1882 -1.7807
   36CHL1  H19C 2633   3.649   6.303   7.352 -0.9519  0.9747  2.0563
   36CHL1    C1 2634   3.695   6.006   7.362  0.1029  0.3367 -0.0519
   36CHL1   H1A 2635   3.798   6.030   7.397  0.2319  1.3795 -1.0560
   36CHL1   H1B 2636   3.668   5.902   7.387 -1.5610  0.9537  0.8617
   36CHL1    C2 2637   3.682   6.034   7.212 -0.0193  0.0156  0.2756
   36CHL1   H2A 2638   3.747   5.961   7.159 -0.3895 -0.2816  0.2310
   36CHL1   H2B 2639   3.720   6.134   7.182 -2.0911  1.0976  1.0557
   36CHL1   C20 2640   3.654   6.029   8.153 -0.6425 -0.2894 -0.8747
   36CHL1   H20 2641   3.662   6.139   8.171  0.6183 -0.3678 -0.8279
   36CHL1   C21 2642   3.794   5.967   8.125 -0.5864 -0.2579 -0.4072
   36CHL1  H21A 2643   3.776   5.866   8.083 -0.7391  0.1436 -1.3249
   36CHL1  H21B 2644   3.854   5.944   8.215 -0.4432  1.0643 -0.1414
   36CHL1  H21C 2645   3.852   6.033   8.058  0.9556 -1.3130 -0.1446
   36CHL1   C22 2646   3.594   5.971   8.285  0.2412 -0.2933 -0.3018
   36CHL1  H22A 2647   3.494   6.013   8.311 -0.3770 -1.2110 -1.1213
   36CHL1  H22B 2648   3.590   5.860   8.275  2.0483 -0.5306  1.1941
   36CHL1   C23 2649   3.679   5.998   8.409  0.2054  0.4186 -0.2828
   36CHL1  H23A 2650   3.783   5.962   8.398  0.2516  0.6476 -0.6100
   36CHL1  H23B 2651   3.683   6.109   8.419  0.0202  0.2369  2.5345
   36CHL1   C24 2652   3.618   5.940   8.537 -0.6877 -0.1502 -0.1496
   36CHL1  H24A 2653   3.509   5.960   8.548 -0.5575  0.1012  0.7066
   36CHL1  H24B 2654   3.628   5.830   8.540  1.0377  0.0012  0.5214
   36CHL1   C25 2655   3.691   5.979   8.661 -0.2182 -0.4490  0.3507
   36CHL1   H25 2656   3.800   5.968   8.643  0.1352  2.7644  0.0019
   36CHL1   C26 2657   3.657   6.125   8.695 -0.3265  0.5714  0.5209
   36CHL1  H26A 2658   3.702   6.144   8.794 -1.8757  2.0726  0.9899
   36CHL1  H26B 2659   3.700   6.192   8.617 -1.3132  1.5583  0.7974
   36CHL1  H26C 2660   3.549   6.150   8.700 -0.5855 -0.4911  0.4954
   36CHL1   C27 2661   3.654   5.884   8.779  0.2511 -0.7352  0.0005
   36CHL1  H27A 2662   3.663   5.776   8.755  2.2155 -1.2514  2.6398
   36CHL1  H27B 2663   3.698   5.918   8.875 -1.1026  1.6908 -0.1500
   36CHL1  H27C 2664   3.545   5.890   8.802  0.3384  0.1085  0.2090
   37CHL1    C3 2665   0.649   4.625   6.965 -0.3251  0.5415  0.5770
   37CHL1    H3 2666   0.741   4.681   6.991  0.1258 -1.1512  2.8675
   37CHL1    O3 2667   0.653   4.561   6.837  0.0543  0.5799  0.1931
   37CHL1   H3' 2668   0.562   4.532   6.826  0.3634 -1.2628  1.9047
   37CHL1    C4 2669   0.624   4.515   7.074 -0.4599  0.6381 -0.5226
   37CHL1   H4A 2670   0.535   4.455   7.044 -1.2989  1.7436 -0.2952
   37CHL1   H4B 2671   0.708   4.442   7.071 -0.7902  0.2709 -1.0340
   37CHL1    C5 2672   0.616   4.576   7.210  1.0569 -0.3794  0.1701
   37CHL1    C6 2673   0.699   4.549   7.315  0.5737  0.0178 -0.5573
   37CHL1    H6 2674   0.773   4.473   7.289  0.1527  0.1402 -2.1906
   37CHL1    C7 2675   0.691   4.615   7.451  0.2860  0.0374 -0.1521
   37CHL1   H7A 2676   0.717   4.550   7.537 -0.4591 -1.5391 -1.0704
   37CHL1   H7B 2677   0.759   4.702   7.465 -0.6941  0.3632  3.3114
   37CHL1    C8 2678   0.550   4.672   7.472  0.0737 -0.0348  0.0677
   37CHL1    H8 2679   0.470   4.596   7.485 -0.1083 -0.6096 -3.5929
   37CHL1   C14 2680   0.550   4.761   7.596  0.2841  0.2373  0.3397
   37CHL1   H14 2681   0.626   4.839   7.573  0.5566 -0.3075 -0.6495
   37CHL1   C15 2682   0.593   4.704   7.736  0.5890  0.6737  0.1249
   37CHL1  H15A 2683   0.556   4.601   7.755  2.4478  0.0706  0.6717
   37CHL1  H15B 2684   0.701   4.681   7.727  0.7069  0.6462  1.4628
   37CHL1   C16 2685   0.536   4.805   7.837 -0.5312  0.1271  0.1616
   37CHL1  H16A 2686   0.462   4.757   7.905 -1.1394  0.4539 -0.2633
   37CHL1  H16B 2687   0.628   4.851   7.879 -0.7061  0.6031  0.0277
   37CHL1   C17 2688   0.462   4.910   7.753 -0.7249  1.1537 -0.9921
   37CHL1   H17 2689   0.542   4.979   7.719  1.4941 -1.0120 -0.4243
   37CHL1   C13 2690   0.416   4.835   7.625 -0.8276 -0.6350  0.5722
   37CHL1   C18 2691   0.294   4.740   7.646 -0.0064  0.0395 -0.0007
   37CHL1  H18A 2692   0.295   4.663   7.565  1.3172 -1.3424  1.2478
   37CHL1  H18B 2693   0.297   4.681   7.740 -0.4228 -2.2792 -1.3623
   37CHL1  H18C 2694   0.195   4.788   7.640  0.6542  1.2760 -1.9549
   37CHL1   C12 2695   0.393   4.928   7.510  0.0336 -0.1932 -0.2174
   37CHL1  H12A 2696   0.300   4.986   7.527  1.9790  2.6945  1.4268
   37CHL1  H12B 2697   0.479   4.997   7.516  0.3499 -0.5466 -0.7244
   37CHL1   C11 2698   0.382   4.843   7.384  0.2309 -0.1223 -0.3342
   37CHL1  H11A 2699   0.289   4.782   7.386  0.5742 -0.6423  1.6091
   37CHL1  H11B 2700   0.371   4.912   7.298 -0.9823  0.3634  0.1944
   37CHL1    C9 2701   0.510   4.760   7.351  0.6103  0.6520 -0.0898
   37CHL1    H9 2702   0.593   4.834   7.343  1.5266 -0.2933  0.3391
   37CHL1   C10 2703   0.502   4.685   7.214  0.1199  0.7889  0.1850
   37CHL1   C19 2704   0.367   4.613   7.195  0.4068  0.0597  1.0033
   37CHL1  H19A 2705   0.353   4.564   7.096 -0.7201 -0.2223  1.2931
   37CHL1  H19B 2706   0.355   4.533   7.271 -1.6285  2.1032  2.9934
   37CHL1  H19C 2707   0.285   4.688   7.192 -1.1638 -1.6210  0.8883
   37CHL1    C1 2708   0.522   4.784   7.091  0.0057  0.0975 -0.0590
   37CHL1   H1A 2709   0.443   4.862   7.086 -0.4606 -0.4301 -1.4202
   37CHL1   H1B 2710   0.614   4.841   7.117 -0.4199 -0.5737  3.3714
   37CHL1    C2 2711   0.534   4.721   6.955  0.4213 -0.3562  0.0093
   37CHL1   H2A 2712   0.554   4.803   6.882 -1.7386  3.3214  3.1443
   37CHL1   H2B 2713   0.434   4.681   6.927 -1.1408  2.4119  1.2032
   37CHL1   C20 2714   0.358   4.995   7.826 -0.2674 -0.4820  0.8284
   37CHL1   H20 2715   0.297   5.038   7.744  2.1549 -0.2468 -0.9415
   37CHL1   C21 2716   0.435   5.108   7.895  1.0321  0.1127  0.4619
   37CHL1  H21A 2717   0.367   5.186   7.937 -1.3023 -1.1415 -0.7815
   37CHL1  H21B 2718   0.489   5.169   7.819  0.8282 -1.1083 -0.6933
   37CHL1  H21C 2719   0.509   5.055   7.959 -1.0428 -1.9763  1.3082
   37CHL1   C22 2720   0.265   4.923   7.918  0.3520  0.6482 -0.2475
   37CHL1  H22A 2721   0.211   4.840   7.867  2.2973  0.1259 -1.5562
   37CHL1  H22B 2722   0.327   4.866   7.991  1.7674  0.6582 -1.3962
   37CHL1   C23 2723   0.165   5.012   7.992  0.5188  0.4223 -0.3043
   37CHL1  H23A 2724   0.221   5.081   8.059  2.8281 -1.0220 -0.5993
   37CHL1  H23B 2725   0.110   5.077   7.921  1.5796  0.2097 -1.3578
   37CHL1   C24 2726   0.064   4.933   8.074 -0.5204  0.0820 -0.0111
   37CHL1  H24A 2727   0.005   4.871   8.003  0.0293  1.1747 -1.4684
   37CHL1  H24B 2728   0.114   4.857   8.139 -3.3210 -1.9181  0.0029
   37CHL1   C25 2729  -0.044   5.016   8.139 -0.0939  0.0466  0.0115
   37CHL1   H25 2730  -0.111   5.056   8.060  0.0884 -1.4676 -0.9571
   37CHL1   C26 2731  -0.137   4.923   8.220  0.7625 -0.3656 -0.2178
   37CHL1  H26A 2732  -0.184   4.842   8.160  0.8248 -0.0708 -0.6704
   37CHL1  H26B 2733  -0.071   4.868   8.290 -0.1575  0.3244  1.2507
   37CHL1  H26C 2734  -0.211   4.984   8.276  0.3492  2.3546 -3.3574
   37CHL1   C27 2735   0.011   5.131   8.236 -0.0791  0.2223  0.1351
   37CHL1  H27A 2736   0.080   5.088   8.311 -0.5196  1.2076  1.1298
   37CHL1  H27B 2737   0.060   5.211   8.176  0.6327 -0.1302  0.2434
   37CHL1  H27C 2738  -0.078   5.179   8.282  0.2601  0.6768  0.3274
   38CHL1    C3 2739   3.164   2.948   6.966 -0.0455  0.3427 -0.7130
   38CHL1    H3 2740   3.195   2.842   6.978 -0.2440  0.2910 -0.6548
   38CHL1    O3 2741   3.173   2.988   6.829 -0.3365  0.0106 -0.3659
   38CHL1   H3' 2742   3.269   2.979   6.819  0.1860  2.1397  1.8894
   38CHL1    C4 2743   3.017   2.951   7.003  0.1013  0.5162  0.5627
   38CHL1   H4A 2744   2.970   3.048   6.977 -0.2899  0.5049  1.1962
   38CHL1   H4B 2745   2.977   2.881   6.926  0.4653  2.0405 -1.0820
   38CHL1    C5 2746   2.987   2.919   7.144  0.1120  0.4372 -0.2995
   38CHL1    C6 2747   2.889   2.828   7.177  0.2495  0.0586 -0.5825
   38CHL1    H6 2748   2.837   2.775   7.096 -0.9982  0.3296  0.0302
   38CHL1    C7 2749   2.852   2.793   7.320 -0.1949  0.2638 -0.2090
   38CHL1   H7A 2750   2.741   2.802   7.329 -0.1490 -0.3797  1.2631
   38CHL1   H7B 2751   2.881   2.690   7.349  0.7801  0.3756 -0.7552
   38CHL1    C8 2752   2.920   2.881   7.425 -0.0747  0.1730  0.5279
   38CHL1    H8 2753   2.851   2.968   7.431 -1.1246 -0.6196  0.2410
   38CHL1   C14 2754   2.919   2.814   7.558 -0.3758  0.7304 -0.0404
   38CHL1   H14 2755   2.991   2.732   7.540  0.5078  1.1413  1.4305
   38CHL1   C15 2756   2.788   2.755   7.620  0.4293 -0.3279  0.4196
   38CHL1  H15A 2757   2.705   2.826   7.601  0.4287 -0.5271 -0.3610
   38CHL1  H15B 2758   2.755   2.659   7.574 -0.5078 -0.6478  1.6885
   38CHL1   C16 2759   2.810   2.733   7.771  0.2895 -0.0073  0.0088
   38CHL1  H16A 2760   2.724   2.774   7.830  1.1725 -0.1853  1.4692
   38CHL1  H16B 2761   2.833   2.628   7.799  1.1751  0.3252  0.5647
   38CHL1   C17 2762   2.953   2.800   7.799  0.0310  0.3479  0.6235
   38CHL1   H17 2763   3.022   2.716   7.777  0.3718  0.9613 -0.7871
   38CHL1   C13 2764   2.977   2.889   7.678 -0.4741  0.2381  0.1531
   38CHL1   C18 2765   2.903   3.023   7.691  1.2844  0.1991  0.0545
   38CHL1  H18A 2766   2.909   3.082   7.597  0.2682  1.5575  0.8006
   38CHL1  H18B 2767   2.796   3.008   7.715  2.1439 -2.4003  2.9596
   38CHL1  H18C 2768   2.945   3.081   7.777 -1.2635  0.3602  1.2751
   38CHL1   C12 2769   3.127   2.900   7.643 -0.3778 -0.1514 -0.1484
   38CHL1  H12A 2770   3.186   2.961   7.714  1.7340 -0.7558 -1.2987
   38CHL1  H12B 2771   3.172   2.799   7.640 -0.1466 -0.0295 -1.5509
   38CHL1   C11 2772   3.144   2.978   7.506  0.0139  0.6885  0.1659
   38CHL1  H11A 2773   3.127   3.088   7.510 -2.2887  0.4090 -0.3086
   38CHL1  H11B 2774   3.254   2.971   7.493  0.0932  2.0869 -0.0589
   38CHL1    C9 2775   3.067   2.916   7.387 -0.3138 -0.0048  0.4868
   38CHL1    H9 2776   3.118   2.820   7.363  1.3064  0.9747 -0.1647
   38CHL1   C10 2777   3.078   2.988   7.247 -0.3326 -0.0556 -0.3566
   38CHL1   C19 2778   3.014   3.128   7.267  0.6609 -0.1446 -0.7967
   38CHL1  H19A 2779   3.050   3.191   7.351 -2.7313  1.3354 -0.2930
   38CHL1  H19B 2780   3.041   3.193   7.181  1.5688  3.0958  1.7621
   38CHL1  H19C 2781   2.905   3.133   7.284  1.1550 -0.4008  3.6860
   38CHL1    C1 2782   3.227   3.000   7.205  1.3604 -0.2288 -0.7908
   38CHL1   H1A 2783   3.279   3.067   7.277 -1.5178 -0.7827  2.0200
   38CHL1   H1B 2784   3.279   2.902   7.216  2.5163  0.3428 -1.0313
   38CHL1    C2 2785   3.247   3.038   7.064 -0.4407 -0.5464 -0.2513
   38CHL1   H2A 2786   3.356   3.033   7.040 -0.8694  0.1045 -2.6380
   38CHL1   H2B 2787   3.214   3.143   7.049 -0.5173 -0.4095  0.8342
   38CHL1   C20 2788   2.984   2.852   7.943 -0.2636 -0.1032  0.3386
   38CHL1   H20 2789   3.067   2.925   7.936 -1.7267  1.6133  0.2401
   38CHL1   C21 2790   3.032   2.732   8.027  0.2680  0.0822  0.0600
   38CHL1  H21A 2791   2.968   2.641   8.015 -1.6479  1.2442  0.9048
   38CHL1  H21B 2792   3.034   2.755   8.135  2.3906 -0.5055  0.1872
   38CHL1  H21C 2793   3.133   2.692   8.003  1.0258  3.0497 -2.2344
   38CHL1   C22 2794   2.858   2.916   8.016 -0.1286 -0.5269  0.4676
   38CHL1  H22A 2795   2.810   2.992   7.952  0.5459  2.6534  3.4474
   38CHL1  H22B 2796   2.783   2.839   8.046 -2.6190  1.5776 -0.0267
   38CHL1   C23 2797   2.900   3.002   8.133 -0.0125  0.4470 -0.0141
   38CHL1  H23A 2798   2.979   2.941   8.182  1.1514  1.1770 -0.8904
   38CHL1  H23B 2799   2.956   3.093   8.101  0.4997  0.5043  1.0129
   38CHL1   C24 2800   2.794   3.039   8.235  0.0003  0.0274 -0.0831
   38CHL1  H24A 2801   2.716   2.960   8.242  0.3585 -0.4125 -0.8335
   38CHL1  H24B 2802   2.840   3.059   8.334 -1.5052 -0.2096  0.6852
   38CHL1   C25 2803   2.712   3.158   8.183  0.2489 -1.1247 -0.4181
   38CHL1   H25 2804   2.673   3.150   8.080 -0.2025  2.0491 -0.6060
   38CHL1   C26 2805   2.589   3.183   8.272  1.0712  0.3855  0.0623
   38CHL1  H26A 2806   2.540   3.084   8.281  1.8021  0.1233  1.4806
   38CHL1  H26B 2807   2.626   3.203   8.375 -2.9195 -0.7182  1.9024
   38CHL1  H26C 2808   2.535   3.272   8.233  2.5718  0.6885 -1.4290
   38CHL1   C27 2809   2.798   3.278   8.168 -0.1593  0.1608  0.0242
   38CHL1  H27A 2810   2.857   3.266   8.075 -0.6274  0.6843 -0.3486
   38CHL1  H27B 2811   2.745   3.375   8.153 -2.0500 -0.9296 -0.6959
   38CHL1  H27C 2812   2.868   3.282   8.254 -1.4159  0.7846  1.0512
   39CHL1    C3 2813   4.591   5.212   7.087  0.0576 -0.2376 -0.0705
   39CHL1    H3 2814   4.490   5.173   7.113  1.2830 -2.8345  1.1926
   39CHL1    O3 2815   4.585   5.300   6.975  0.1306 -0.1902  1.3355
   39CHL1   H3' 2816   4.669   5.347   6.980 -0.0327  0.4541 -0.7973
   39CHL1    C4 2817   4.626   5.288   7.209  0.2222 -0.6856 -0.2606
   39CHL1   H4A 2818   4.722   5.341   7.194  0.4271 -0.6882  0.9091
   39CHL1   H4B 2819   4.549   5.366   7.228  0.4117 -0.8600  1.4037
   39CHL1    C5 2820   4.645   5.207   7.333  0.1188  0.3504  0.2289
   39CHL1    C6 2821   4.586   5.230   7.455  0.1255 -0.0064  0.3558
   39CHL1    H6 2822   4.519   5.316   7.473 -0.5316 -0.6517  1.0591
   39CHL1    C7 2823   4.608   5.148   7.580  0.8137  1.3571 -0.8144
   39CHL1   H7A 2824   4.606   5.220   7.665 -0.5407  1.9749 -1.3303
   39CHL1   H7B 2825   4.513   5.092   7.589 -0.6998  3.9656  1.1334
   39CHL1    C8 2826   4.733   5.057   7.575 -0.1325 -0.2656  0.6975
   39CHL1    H8 2827   4.822   5.123   7.585  0.7089 -1.2864  0.1877
   39CHL1   C14 2828   4.725   4.954   7.684 -0.1202 -0.9870 -0.5821
   39CHL1   H14 2829   4.630   4.898   7.672 -0.2671 -0.9262  0.2210
   39CHL1   C15 2830   4.711   5.014   7.828 -0.1836  0.1873  0.4031
   39CHL1  H15A 2831   4.771   5.108   7.833 -2.1951  1.5742 -0.0307
   39CHL1  H15B 2832   4.606   5.034   7.858  0.4405  2.0404  1.5371
   39CHL1   C16 2833   4.760   4.900   7.922 -0.7134  0.6012  0.4522
   39CHL1  H16A 2834   4.851   4.939   7.972 -1.0301 -0.6075  2.0441
   39CHL1  H16B 2835   4.681   4.879   7.997 -2.1593  1.0619 -0.8954
   39CHL1   C17 2836   4.810   4.785   7.825  0.4261  0.1523 -0.1604
   39CHL1   H17 2837   4.723   4.719   7.806 -0.8652  1.4138  1.0250
   39CHL1   C13 2838   4.838   4.851   7.695  0.1724  0.4067 -0.5858
   39CHL1   C18 2839   4.973   4.920   7.708 -0.3818  0.2403  0.0696
   39CHL1  H18A 2840   4.990   4.974   7.804  1.7721  0.3148 -0.3160
   39CHL1  H18B 2841   5.063   4.865   7.674 -1.5724 -0.5475 -2.0110
   39CHL1  H18C 2842   4.977   5.002   7.634 -3.2479  0.7294  0.3207
   39CHL1   C12 2843   4.837   4.774   7.559  0.0779 -0.6515 -0.5594
   39CHL1  H12A 2844   4.912   4.693   7.556  1.6620  0.7006  0.8072
   39CHL1  H12B 2845   4.741   4.719   7.546  0.7914 -1.5900 -2.0844
   39CHL1   C11 2846   4.850   4.871   7.433  0.5602 -1.4593 -0.5847
   39CHL1  H11A 2847   4.955   4.908   7.443 -0.3534  0.7096  2.4754
   39CHL1  H11B 2848   4.837   4.824   7.333 -0.3504 -1.5181 -0.4476
   39CHL1    C9 2849   4.741   4.984   7.437  0.2518 -0.1338 -0.2635
   39CHL1    H9 2850   4.640   4.937   7.439  0.3433 -0.3236 -0.1980
   39CHL1   C10 2851   4.739   5.084   7.317  0.1291 -0.1735  0.2502
   39CHL1   C19 2852   4.892   5.132   7.296 -1.3222  0.0058 -0.1163
   39CHL1  H19A 2853   4.956   5.044   7.273 -2.2232 -0.5504 -0.5621
   39CHL1  H19B 2854   4.901   5.203   7.211 -1.8491 -1.9630 -1.9063
   39CHL1  H19C 2855   4.926   5.177   7.392  1.5384 -1.4760 -0.3389
   39CHL1    C1 2856   4.692   5.007   7.191 -0.4599 -1.3572 -0.1460
   39CHL1   H1A 2857   4.771   4.935   7.160  0.3718 -0.9934  1.0515
   39CHL1   H1B 2858   4.604   4.942   7.212 -1.0304 -0.3512  0.6800
   39CHL1    C2 2859   4.683   5.099   7.064 -0.5015 -0.6686 -0.0258
   39CHL1   H2A 2860   4.648   5.036   6.980  0.0909  1.2908 -1.8066
   39CHL1   H2B 2861   4.780   5.149   7.042 -2.1125  2.0525 -1.5388
   39CHL1   C20 2862   4.921   4.703   7.886 -0.4649  0.1335  1.0238
   39CHL1   H20 2863   5.009   4.766   7.910 -0.8216  0.7383  0.7583
   39CHL1   C21 2864   4.959   4.579   7.800  0.4403 -0.4735  0.3276
   39CHL1  H21A 2865   4.871   4.526   7.757  0.4075  0.2396 -0.5074
   39CHL1  H21B 2866   5.017   4.512   7.866  0.4331 -0.1447  0.6663
   39CHL1  H21C 2867   5.028   4.620   7.723  2.5479 -1.4723  1.6196
   39CHL1   C22 2868   4.876   4.651   8.024  0.3430  0.5877 -0.5067
   39CHL1  H22A 2869   4.952   4.586   8.074 -0.1743 -0.1449 -0.6534
   39CHL1  H22B 2870   4.857   4.729   8.101  0.1590 -1.6711  1.8903
   39CHL1   C23 2871   4.751   4.556   8.018 -0.0118 -0.3741 -0.2231
   39CHL1  H23A 2872   4.657   4.615   8.011 -0.3836 -1.0612 -1.2575
   39CHL1  H23B 2873   4.769   4.478   7.940 -2.4574  1.4121 -2.7726
   39CHL1   C24 2874   4.724   4.470   8.147 -0.6311  0.4512 -0.5799
   39CHL1  H24A 2875   4.643   4.399   8.121  0.9394 -1.1743 -1.3300
   39CHL1  H24B 2876   4.804   4.395   8.162 -1.4731 -0.2787  0.3196
   39CHL1   C25 2877   4.671   4.542   8.274 -0.3262 -0.8927  0.0025
   39CHL1   H25 2878   4.743   4.623   8.296 -1.4453  0.3684 -0.8184
   39CHL1   C26 2879   4.533   4.603   8.243  0.1830  0.3429 -0.1958
   39CHL1  H26A 2880   4.470   4.519   8.205 -0.7823  0.2189  1.5801
   39CHL1  H26B 2881   4.485   4.640   8.336  1.0779 -1.3788  0.9982
   39CHL1  H26C 2882   4.553   4.683   8.169  0.7727  0.1113 -0.2929
   39CHL1   C27 2883   4.667   4.451   8.391  0.3757  0.0924  0.0979
   39CHL1  H27A 2884   4.591   4.372   8.371 -0.4219 -0.0062  3.0539
   39CHL1  H27B 2885   4.765   4.399   8.402  0.7821  1.1093  1.5082
   39CHL1  H27C 2886   4.633   4.501   8.484  0.3977  0.3747 -0.0449
   40CHL1    C3 2887   6.161   1.256   7.154  0.4042 -0.1891 -0.3013
   40CHL1    H3 2888   6.269   1.235   7.139  0.7377  1.6488 -0.7353
   40CHL1    O3 2889   6.083   1.163   7.078 -0.0699 -0.1807  0.0068
   40CHL1   H3' 2890   5.997   1.200   7.098  0.0353 -0.4090  0.8979
   40CHL1    C4 2891   6.102   1.253   7.296  0.3933  0.5265  0.2250
   40CHL1   H4A 2892   5.997   1.290   7.288  0.3293  0.1787 -0.6922
   40CHL1   H4B 2893   6.091   1.150   7.335  2.8685 -0.3612 -1.2237
   40CHL1    C5 2894   6.190   1.343   7.379  0.1949  0.0655 -0.0023
   40CHL1    C6 2895   6.268   1.295   7.475 -0.1035  0.0178  0.3326
   40CHL1    H6 2896   6.262   1.188   7.499 -1.0235 -0.0368 -0.0790
   40CHL1    C7 2897   6.348   1.377   7.567 -0.1719 -0.0069 -0.5646
   40CHL1   H7A 2898   6.330   1.327   7.665 -2.2778  0.0543 -0.8718
   40CHL1   H7B 2899   6.454   1.354   7.541  0.4261  2.8846 -1.0651
   40CHL1    C8 2900   6.306   1.531   7.571 -0.5118  0.1677  0.3657
   40CHL1    H8 2901   6.202   1.527   7.610 -0.6334  0.5875  0.0885
   40CHL1   C14 2902   6.402   1.616   7.653 -0.8524  0.5539 -0.0216
   40CHL1   H14 2903   6.495   1.605   7.594 -1.4698 -0.1942 -0.8962
   40CHL1   C15 2904   6.435   1.575   7.800  0.7383 -0.3313 -0.0765
   40CHL1  H15A 2905   6.339   1.546   7.848  0.8977 -0.8217 -0.0554
   40CHL1  H15B 2906   6.511   1.495   7.801  0.9913 -0.0880  0.7482
   40CHL1   C16 2907   6.482   1.702   7.871  0.4271  0.2991  0.0968
   40CHL1  H16A 2908   6.421   1.714   7.964  1.1099  0.5878  0.5095
   40CHL1  H16B 2909   6.590   1.693   7.897  0.7619 -0.1513 -1.3864
   40CHL1   C17 2910   6.472   1.813   7.767 -0.0326  0.5686 -0.3259
   40CHL1   H17 2911   6.570   1.817   7.714 -0.7035 -1.0226 -1.7846
   40CHL1   C13 2912   6.361   1.762   7.664  0.3376 -0.2278 -0.2716
   40CHL1   C18 2913   6.218   1.783   7.723  0.5071  0.1749 -0.6465
   40CHL1  H18A 2914   6.148   1.727   7.658  1.3717 -0.3503 -1.1435
   40CHL1  H18B 2915   6.210   1.740   7.825  1.0105 -1.7275 -1.3793
   40CHL1  H18C 2916   6.205   1.894   7.723 -0.1826  0.1157  1.0088
   40CHL1   C12 2917   6.373   1.815   7.513 -0.1332  0.1200  0.2623
   40CHL1  H12A 2918   6.345   1.922   7.502  0.0141  0.1941  0.5996
   40CHL1  H12B 2919   6.479   1.818   7.482 -1.2958  3.5003 -4.6019
   40CHL1   C11 2920   6.291   1.728   7.418  0.2148 -0.5693 -1.0823
   40CHL1  H11A 2921   6.188   1.765   7.433  0.6496  1.0841 -1.9276
   40CHL1  H11B 2922   6.320   1.767   7.318  0.8833  0.7916 -0.3874
   40CHL1    C9 2923   6.298   1.571   7.427 -1.0988 -0.2531 -0.5162
   40CHL1    H9 2924   6.402   1.544   7.398 -0.8128 -0.4125  0.6102
   40CHL1   C10 2925   6.190   1.494   7.344  0.5683  0.2631 -0.2997
   40CHL1   C19 2926   6.045   1.550   7.372  0.8051 -0.6598 -0.0723
   40CHL1  H19A 2927   6.038   1.553   7.483  4.1580  0.8119  0.2176
   40CHL1  H19B 2928   6.027   1.654   7.338  1.2961  0.1514  1.9940
   40CHL1  H19C 2929   5.972   1.488   7.316  0.3467  2.0112 -2.7144
   40CHL1    C1 2930   6.214   1.504   7.189  0.2200 -0.9266  0.6876
   40CHL1   H1A 2931   6.176   1.604   7.160  4.0002  0.3933 -0.2757
   40CHL1   H1B 2932   6.322   1.494   7.164 -0.1249  1.8369 -2.5252
   40CHL1    C2 2933   6.143   1.398   7.106 -0.0393 -0.1391 -0.4566
   40CHL1   H2A 2934   6.193   1.382   7.008 -1.1572 -1.9609 -0.7786
   40CHL1   H2B 2935   6.035   1.424   7.102  0.1185  0.7313  0.3644
   40CHL1   C20 2936   6.450   1.949   7.827 -0.3149 -0.9008 -0.0702
   40CHL1   H20 2937   6.344   1.953   7.858  0.3981  0.2794  2.4339
   40CHL1   C21 2938   6.473   2.059   7.717 -0.5140  0.0417  0.0498
   40CHL1  H21A 2939   6.578   2.065   7.681 -0.1392  0.5571  1.2089
   40CHL1  H21B 2940   6.446   2.157   7.762  0.3040 -0.2235  1.1544
   40CHL1  H21C 2941   6.396   2.059   7.637 -1.4675  1.8254  0.9203
   40CHL1   C22 2942   6.540   1.983   7.947  0.0116  0.2703  0.5587
   40CHL1  H22A 2943   6.537   1.900   8.020  1.1125 -1.9672 -1.7820
   40CHL1  H22B 2944   6.648   1.984   7.923 -0.3275  0.0056 -1.1623
   40CHL1   C23 2945   6.495   2.115   8.014  0.8545 -0.0115 -0.2974
   40CHL1  H23A 2946   6.478   2.206   7.951 -1.9461 -0.2913 -0.0473
   40CHL1  H23B 2947   6.390   2.100   8.047  0.9635 -0.1773 -0.0286
   40CHL1   C24 2948   6.573   2.158   8.137  0.2332 -0.2081 -0.2312
   40CHL1  H24A 2949   6.679   2.173   8.106  0.2096 -2.0597 -1.3895
   40CHL1  H24B 2950   6.539   2.255   8.179  0.7088 -0.3524  0.5184
   40CHL1   C25 2951   6.563   2.065   8.261 -0.4836  0.7283 -1.0457
   40CHL1   H25 2952   6.511   1.971   8.233  1.2053 -0.8093  0.7041
   40CHL1   C26 2953   6.704   2.043   8.318  0.2222  0.2196 -0.4333
   40CHL1  H26A 2954   6.771   2.009   8.237  0.0951  0.1559 -0.5114
   40CHL1  H26B 2955   6.741   2.141   8.356 -0.1865  1.5415 -3.1823
   40CHL1  H26C 2956   6.722   1.969   8.399  1.4921  0.3224 -0.6158
   40CHL1   C27 2957   6.477   2.135   8.368 -0.3402 -0.1547  0.2366
   40CHL1  H27A 2958   6.539   2.214   8.417  1.2082 -0.3136 -1.3378
   40CHL1  H27B 2959   6.393   2.192   8.322  2.8132  3.1078 -2.1218
   40CHL1  H27C 2960   6.440   2.064   8.444 -0.2457 -1.0436 -0.5226
   41CHL1    C3 2961   0.804   0.916   6.908  0.6986  0.6526  0.3121
   41CHL1    H3 2962   0.880   0.848   6.864  0.6705 -0.5810  2.0477
   41CHL1    O3 2963   0.749   0.991   6.801  0.5361 -0.7346 -0.1418
   41CHL1   H3' 2964   0.826   1.021   6.753 -0.2202  0.3513 -0.7361
   41CHL1    C4 2965   0.695   0.823   6.964  0.2650 -0.2302 -0.0394
   41CHL1   H4A 2966   0.605   0.881   6.992  0.8580  0.3228  0.7769
   41CHL1   H4B 2967   0.659   0.758   6.881  0.0446  0.5137 -0.5361
   41CHL1    C5 2968   0.732   0.766   7.090 -0.1551  0.1024  0.1976
   41CHL1    C6 2969   0.718   0.638   7.122  0.0412  0.6265 -0.1276
   41CHL1    H6 2970   0.677   0.569   7.048 -0.0922  0.8206 -0.2370
   41CHL1    C7 2971   0.735   0.575   7.255 -0.2801  0.0000 -0.0504
   41CHL1   H7A 2972   0.649   0.510   7.280 -1.4477  1.3927 -0.3001
   41CHL1   H7B 2973   0.818   0.506   7.228 -0.0726  1.3395 -3.3020
   41CHL1    C8 2974   0.770   0.674   7.361  0.0709 -0.2136 -0.1287
   41CHL1    H8 2975   0.672   0.713   7.394 -0.2502  0.0227 -1.2991
   41CHL1   C14 2976   0.840   0.597   7.483  0.3504 -0.0233 -0.3942
   41CHL1   H14 2977   0.936   0.560   7.442  0.5396  1.3818 -1.3027
   41CHL1   C15 2978   0.776   0.460   7.529 -0.4390 -0.0659 -0.6257
   41CHL1  H15A 2979   0.669   0.478   7.554 -0.2773  3.6048 -1.9733
   41CHL1  H15B 2980   0.797   0.377   7.458  3.0961  0.2152 -0.0972
   41CHL1   C16 2981   0.838   0.442   7.665  0.9304  0.1373 -0.5731
   41CHL1  H16A 2982   0.761   0.433   7.745  0.0736 -1.2068 -1.5005
   41CHL1  H16B 2983   0.916   0.363   7.669  1.8882  1.0779  3.1379
   41CHL1   C17 2984   0.912   0.585   7.705 -0.6384 -0.0110  0.2120
   41CHL1   H17 2985   1.020   0.569   7.682 -0.6923 -1.3282  0.7875
   41CHL1   C13 2986   0.864   0.689   7.601  0.4456 -0.0081 -0.9141
   41CHL1   C18 2987   0.732   0.760   7.652 -0.0035  0.5492  0.0407
   41CHL1  H18A 2988   0.697   0.834   7.577  0.1051 -1.0858 -1.7032
   41CHL1  H18B 2989   0.655   0.680   7.662 -0.5827  0.9492 -1.0350
   41CHL1  H18C 2990   0.745   0.808   7.752 -0.4944  1.5874 -0.3749
   41CHL1   C12 2991   0.963   0.790   7.547 -0.0062  0.6526 -0.2836
   41CHL1  H12A 2992   0.995   0.871   7.617  0.1486 -0.4499  0.9803
   41CHL1  H12B 2993   1.056   0.742   7.509 -0.4976 -1.0905  0.6047
   41CHL1   C11 2994   0.920   0.873   7.426 -0.7353 -0.7288  0.1464
   41CHL1  H11A 2995   0.854   0.959   7.447  1.7130  1.0572  0.9136
   41CHL1  H11B 2996   1.012   0.916   7.381 -1.7654  1.6644  0.1932
   41CHL1    C9 2997   0.861   0.782   7.307  0.0249 -0.3215  0.8214
   41CHL1    H9 2998   0.951   0.728   7.270 -0.4779 -0.9532  0.5129
   41CHL1   C10 2999   0.801   0.860   7.191 -0.3407 -0.2340 -0.2218
   41CHL1   C19 3000   0.701   0.959   7.246  0.0696 -0.6500 -0.7011
   41CHL1  H19A 3001   0.641   0.915   7.329  0.5767  1.6749  1.0099
   41CHL1  H19B 3002   0.752   1.051   7.280 -0.6651  0.2284 -1.9251
   41CHL1  H19C 3003   0.628   1.001   7.173 -0.7022  2.5210  1.6557
   41CHL1    C1 3004   0.910   0.946   7.124 -0.4316 -0.0089 -0.4717
   41CHL1   H1A 3005   0.960   1.010   7.200 -0.8210 -1.1853  0.7953
   41CHL1   H1B 3006   0.987   0.875   7.086 -0.8382 -0.7827  0.1306
   41CHL1    C2 3007   0.862   1.019   6.999 -0.4680 -0.4143  0.7878
   41CHL1   H2A 3008   0.946   1.071   6.948 -0.9893  1.7680  2.0082
   41CHL1   H2B 3009   0.793   1.103   7.024  0.4239  1.4299 -2.3375
   41CHL1   C20 3010   0.910   0.617   7.852 -0.5138  0.3094 -0.5754
   41CHL1   H20 3011   0.803   0.631   7.876 -0.6613 -0.0692 -1.0045
   41CHL1   C21 3012   0.995   0.749   7.877  0.1809  0.4089  0.1672
   41CHL1  H21A 3013   1.099   0.737   7.841  0.2695 -0.6822  0.7406
   41CHL1  H21B 3014   1.006   0.765   7.987  4.0930 -1.9941  0.3311
   41CHL1  H21C 3015   0.938   0.827   7.823 -0.4948 -1.0967 -1.3834
   41CHL1   C22 3016   0.972   0.502   7.938 -0.3039  0.0569  0.1998
   41CHL1  H22A 3017   0.902   0.415   7.938 -0.6702  0.3073  2.3717
   41CHL1  H22B 3018   1.067   0.468   7.891  0.1159  0.8124  0.4903
   41CHL1   C23 3019   0.995   0.534   8.085  0.0167  0.1362  0.5101
   41CHL1  H23A 3020   1.066   0.619   8.098  0.9052 -0.6124  0.6259
   41CHL1  H23B 3021   0.898   0.565   8.130  0.7282  0.5606  1.8058
   41CHL1   C24 3022   1.043   0.410   8.155 -0.1389 -0.8285  0.8973
   41CHL1  H24A 3023   0.979   0.322   8.130 -0.6314 -0.0176 -0.8644
   41CHL1  H24B 3024   1.144   0.378   8.119  0.0274 -1.1884  1.6698
   41CHL1   C25 3025   1.045   0.423   8.303 -1.0809  0.0400  0.1213
   41CHL1   H25 3026   0.937   0.422   8.332 -1.6749  0.1127 -1.9466
   41CHL1   C26 3027   1.119   0.301   8.366 -0.7788  0.0926 -0.0940
   41CHL1  H26A 3028   1.218   0.304   8.316 -1.8551 -0.4265 -2.3508
   41CHL1  H26B 3029   1.138   0.308   8.476  2.4810 -1.8413 -0.3881
   41CHL1  H26C 3030   1.078   0.201   8.342  0.4923 -0.2107 -1.0981
   41CHL1   C27 3031   1.107   0.548   8.354 -0.5241  0.0170 -1.2463
   41CHL1  H27A 3032   1.112   0.544   8.465 -1.6022  1.4393 -1.1125
   41CHL1  H27B 3033   1.212   0.560   8.318 -0.1116 -0.7105 -0.3293
   41CHL1  H27C 3034   1.054   0.640   8.322 -0.0306  1.3803  1.5185
   42CHL1    C3 3035   1.779   4.833   6.923 -0.3798  0.1184  0.2489
   42CHL1    H3 3036   1.758   4.942   6.933  0.4406  0.4102 -0.9568
   42CHL1    O3 3037   1.815   4.814   6.788 -0.4667 -0.0494  0.2585
   42CHL1   H3' 3038   1.834   4.720   6.780  1.1500  0.2638  0.0997
   42CHL1    C4 3039   1.894   4.800   7.025 -0.4238  0.0335  0.6119
   42CHL1   H4A 3040   1.926   4.697   6.997  0.5151  0.4452  0.1430
   42CHL1   H4B 3041   1.976   4.871   7.003 -0.7930  0.7582  1.5172
   42CHL1    C5 3042   1.856   4.794   7.163  0.0814 -0.0521 -0.6600
   42CHL1    C6 3043   1.925   4.858   7.256 -0.0074  0.4184 -0.1037
   42CHL1    H6 3044   2.014   4.912   7.218  0.2283  1.0370  1.2803
   42CHL1    C7 3045   1.897   4.859   7.399  0.1749 -0.2399 -0.5331
   42CHL1   H7A 3046   1.987   4.841   7.463  0.0313  2.4260  0.5405
   42CHL1   H7B 3047   1.848   4.953   7.433  0.2510 -1.0513  2.1166
   42CHL1    C8 3048   1.791   4.748   7.442  0.9159  0.1220  0.9589
   42CHL1    H8 3049   1.845   4.652   7.453  0.3208 -0.5626 -1.5018
   42CHL1   C14 3050   1.743   4.782   7.571  0.1864  0.6886 -0.6426
   42CHL1   H14 3051   1.693   4.880   7.562 -1.2091  0.0106 -0.5342
   42CHL1   C15 3052   1.848   4.806   7.685  0.7692 -0.0597 -0.1638
   42CHL1  H15A 3053   1.934   4.735   7.682  0.1162 -0.8306 -0.9395
   42CHL1  H15B 3054   1.891   4.907   7.673  0.8114 -0.0232  0.2620
   42CHL1   C16 3055   1.767   4.789   7.812  0.1988 -0.2246 -0.2317
   42CHL1  H16A 3056   1.806   4.710   7.879 -1.9489 -0.2895  1.0341
   42CHL1  H16B 3057   1.765   4.883   7.872  2.8078 -1.1379  1.4453
   42CHL1   C17 3058   1.623   4.746   7.767 -0.0135 -0.4935  0.2948
   42CHL1   H17 3059   1.563   4.837   7.751 -0.4522 -0.8492 -0.1097
   42CHL1   C13 3060   1.637   4.686   7.629 -0.2114  0.6385 -0.3645
   42CHL1   C18 3061   1.701   4.541   7.636  0.4818  0.1488  0.2126
   42CHL1  H18A 3062   1.792   4.536   7.699  1.1022  0.7996 -0.6042
   42CHL1  H18B 3063   1.626   4.470   7.677 -0.6455 -0.2030 -2.2646
   42CHL1  H18C 3064   1.733   4.510   7.534  0.0277 -0.1582  0.1570
   42CHL1   C12 3065   1.522   4.685   7.537 -0.5393  0.4140 -0.0494
   42CHL1  H12A 3066   1.446   4.617   7.581 -1.0133  1.2891  0.4913
   42CHL1  H12B 3067   1.474   4.784   7.526  0.4311  0.8366 -0.5767
   42CHL1   C11 3068   1.562   4.642   7.391 -0.1197 -0.0443  0.0279
   42CHL1  H11A 3069   1.606   4.540   7.393  3.4739  1.3791  1.3127
   42CHL1  H11B 3070   1.469   4.646   7.330 -0.1798  0.9732  0.1603
   42CHL1    C9 3071   1.676   4.742   7.345  0.1355 -0.2935  0.7858
   42CHL1    H9 3072   1.631   4.843   7.336  1.6227  0.4041  0.8195
   42CHL1   C10 3073   1.726   4.721   7.195  0.8132  0.5213  1.0017
   42CHL1   C19 3074   1.764   4.570   7.180  0.2482 -0.4309  0.3121
   42CHL1  H19A 3075   1.798   4.566   7.074 -0.4346  3.0312 -0.1352
   42CHL1  H19B 3076   1.852   4.544   7.242  1.1098 -0.6287 -0.9354
   42CHL1  H19C 3077   1.685   4.496   7.202  1.2440 -0.7505  3.1440
   42CHL1    C1 3078   1.610   4.762   7.098 -0.8296  0.6734  0.3703
   42CHL1   H1A 3079   1.523   4.693   7.103 -0.2634 -0.3233 -2.1717
   42CHL1   H1B 3080   1.585   4.869   7.117 -1.6171  0.5292  0.1608
   42CHL1    C2 3081   1.655   4.744   6.950  0.2640  0.2003  0.0623
   42CHL1   H2A 3082   1.573   4.760   6.877 -0.6381 -0.4433  0.9085
   42CHL1   H2B 3083   1.696   4.642   6.938  1.1593  0.7320 -1.9376
   42CHL1   C20 3084   1.542   4.675   7.878 -0.2251  0.1605 -0.6837
   42CHL1   H20 3085   1.438   4.665   7.840 -0.1010  0.7138 -1.1812
   42CHL1   C21 3086   1.541   4.785   7.992  0.1719 -0.2467  0.1185
   42CHL1  H21A 3087   1.473   4.742   8.069 -0.0354 -0.1468 -0.0083
   42CHL1  H21B 3088   1.510   4.884   7.951  2.5974  0.3672 -0.4050
   42CHL1  H21C 3089   1.640   4.790   8.042  0.2252 -1.0177  0.1063
   42CHL1   C22 3090   1.591   4.532   7.939  0.5713 -0.3778 -0.0515
   42CHL1  H22A 3091   1.605   4.443   7.875  1.7140  0.0016 -0.3390
   42CHL1  H22B 3092   1.693   4.542   7.981  1.8517 -0.5651 -2.8723
   42CHL1   C23 3093   1.491   4.482   8.045  0.3093 -0.2264 -0.0870
   42CHL1  H23A 3094   1.548   4.408   8.105  1.8851  0.7599 -0.3213
   42CHL1  H23B 3095   1.466   4.555   8.125 -2.4938  0.1377 -1.1900
   42CHL1   C24 3096   1.358   4.421   7.996 -0.9815 -0.1661 -0.3435
   42CHL1  H24A 3097   1.297   4.511   7.973  0.7358  1.0455 -0.3815
   42CHL1  H24B 3098   1.371   4.357   7.906 -0.3377  1.6606 -1.6050
   42CHL1   C25 3099   1.290   4.335   8.105 -0.2350 -0.0364  0.4315
   42CHL1   H25 3100   1.192   4.295   8.069 -0.2839 -0.6762  1.2263
   42CHL1   C26 3101   1.377   4.210   8.127 -0.3084 -0.4161  0.0142
   42CHL1  H26A 3102   1.398   4.154   8.034 -0.5275  0.0839 -0.3385
   42CHL1  H26B 3103   1.476   4.244   8.164 -0.4565 -1.0566  1.0362
   42CHL1  H26C 3104   1.337   4.145   8.208 -0.2954 -0.7731 -0.2660
   42CHL1   C27 3105   1.261   4.418   8.228 -0.4891 -0.0372  0.2908
   42CHL1  H27A 3106   1.198   4.507   8.208 -0.2068 -0.0650 -0.7894
   42CHL1  H27B 3107   1.350   4.467   8.273 -0.8707 -1.0567  2.2731
   42CHL1  H27C 3108   1.214   4.359   8.310 -3.7346  1.4485 -0.3633
   43CHL1    C3 3109   2.128   1.147   6.951  0.3057  1.1166  0.1243
   43CHL1    H3 3110   2.101   1.254   6.952 -0.6305  0.8876 -0.2045
   43CHL1    O3 3111   2.122   1.097   6.817 -0.4642 -0.3281 -0.1167
   43CHL1   H3' 3112   2.143   1.003   6.813 -1.4206 -0.5192 -1.0400
   43CHL1    C4 3113   2.265   1.119   7.003 -0.0484  0.0054 -0.4455
   43CHL1   H4A 3114   2.302   1.015   6.994  0.5657 -0.1674  2.8808
   43CHL1   H4B 3115   2.344   1.170   6.944 -0.2369 -0.0535 -0.7505
   43CHL1    C5 3116   2.271   1.153   7.154  0.2858  0.9519 -0.0544
   43CHL1    C6 3117   2.372   1.227   7.202 -0.1913 -0.1869 -0.3561
   43CHL1    H6 3118   2.450   1.269   7.137  0.7929  0.8532  1.4167
   43CHL1    C7 3119   2.388   1.245   7.354 -0.2943  0.0431  0.0137
   43CHL1   H7A 3120   2.492   1.255   7.390 -0.0568 -2.4172  0.1651
   43CHL1   H7B 3121   2.349   1.346   7.377 -0.5962 -0.3050  1.1098
   43CHL1    C8 3122   2.303   1.161   7.446  0.1410  0.1298  0.0774
   43CHL1    H8 3123   2.348   1.060   7.445 -0.2585 -0.0509 -0.6163
   43CHL1   C14 3124   2.305   1.214   7.591 -0.2881 -0.0300  0.3920
   43CHL1   H14 3125   2.270   1.319   7.599  2.0235  0.8542 -0.3367
   43CHL1   C15 3126   2.446   1.225   7.663 -0.3278  0.6540  0.8903
   43CHL1  H15A 3127   2.489   1.123   7.663 -2.0844 -0.1218 -0.1290
   43CHL1  H15B 3128   2.523   1.289   7.615 -1.2924  0.7787 -0.5511
   43CHL1   C16 3129   2.404   1.252   7.802  0.1019  0.2000  0.0146
   43CHL1  H16A 3130   2.473   1.203   7.875 -1.7136  0.4622  2.0217
   43CHL1  H16B 3131   2.401   1.361   7.819  0.6668  0.2156  0.0227
   43CHL1   C17 3132   2.253   1.199   7.820  0.0377  0.0207  0.0508
   43CHL1   H17 3133   2.182   1.284   7.832 -1.0145 -0.7819 -0.2421
   43CHL1   C13 3134   2.224   1.124   7.688  1.9453  0.0447 -0.3335
   43CHL1   C18 3135   2.272   0.973   7.698 -0.0002 -0.7739 -0.4210
   43CHL1  H18A 3136   2.292   0.931   7.597  0.3987 -2.7640  0.4307
   43CHL1  H18B 3137   2.372   0.975   7.747 -1.7519  1.5696  3.5254
   43CHL1  H18C 3138   2.203   0.906   7.753 -1.5911  1.2794  0.2057
   43CHL1   C12 3139   2.078   1.128   7.634 -0.5990 -0.3443 -0.0005
   43CHL1  H12A 3140   2.005   1.084   7.705  1.2223 -1.7843  1.0777
   43CHL1  H12B 3141   2.051   1.234   7.650 -1.0533 -0.5892  0.9544
   43CHL1   C11 3142   2.056   1.076   7.493  0.7710  1.0399  0.6887
   43CHL1  H11A 3143   2.060   0.965   7.485  0.5073  1.0470  0.4441
   43CHL1  H11B 3144   1.953   1.107   7.467  1.3165  2.6780  0.3635
   43CHL1    C9 3145   2.161   1.143   7.395  0.1036  0.2736  0.2503
   43CHL1    H9 3146   2.131   1.249   7.387  0.2686  0.4482  1.7092
   43CHL1   C10 3147   2.161   1.093   7.249  0.1050  0.0276  0.3426
   43CHL1   C19 3148   2.201   0.937   7.248 -0.2769  0.1971  0.3735
   43CHL1  H19A 3149   2.198   0.892   7.146 -0.3520 -0.1691  0.5374
   43CHL1  H19B 3150   2.304   0.916   7.284  0.3995 -2.4540 -2.6435
   43CHL1  H19C 3151   2.127   0.879   7.307 -0.0681 -0.8418 -0.3599
   43CHL1    C1 3152   2.027   1.122   7.179  0.3637 -0.3444 -0.1364
   43CHL1   H1A 3153   1.950   1.079   7.246 -0.3477  3.5787  1.8467
   43CHL1   H1B 3154   2.004   1.231   7.183 -1.5165 -0.7513  1.8551
   43CHL1    C2 3155   2.021   1.074   7.032  0.7950  0.1051  0.3406
   43CHL1   H2A 3156   1.918   1.086   6.993 -0.1321 -2.4242  1.7211
   43CHL1   H2B 3157   2.038   0.964   7.031 -0.6404 -0.1754  1.8326
   43CHL1   C20 3158   2.242   1.124   7.951  0.5761 -0.2911  0.1627
   43CHL1   H20 3159   2.321   1.046   7.957  2.0312  1.2024  1.7081
   43CHL1   C21 3160   2.100   1.070   7.979 -0.0843 -0.3292 -0.8391
   43CHL1  H21A 3161   2.036   1.160   7.990  1.8851  1.0761 -0.2694
   43CHL1  H21B 3162   2.109   1.008   8.070  2.0357 -1.4329 -1.7271
   43CHL1  H21C 3163   2.069   1.000   7.898 -0.4655  0.5515 -1.4792
   43CHL1   C22 3164   2.278   1.230   8.063  0.5032 -0.0994 -0.5314
   43CHL1  H22A 3165   2.353   1.308   8.036 -1.1342  1.9453  0.4824
   43CHL1  H22B 3166   2.187   1.285   8.096  1.8530  0.9352  1.7388
   43CHL1   C23 3167   2.339   1.155   8.184 -0.6536  0.3969 -0.7309
   43CHL1  H23A 3168   2.267   1.073   8.203  1.2489 -1.6981 -2.0236
   43CHL1  H23B 3169   2.439   1.112   8.161  0.2864  1.0539  1.7488
   43CHL1   C24 3170   2.344   1.238   8.316  0.2293 -0.7633  1.0731
   43CHL1  H24A 3171   2.432   1.306   8.318 -0.9487  0.8300  0.7234
   43CHL1  H24B 3172   2.249   1.294   8.327 -1.2113 -2.7819 -0.2876
   43CHL1   C25 3173   2.344   1.154   8.445 -0.6085  0.2807  0.7161
   43CHL1   H25 3174   2.413   1.067   8.445  0.8499  1.3963  0.7471
   43CHL1   C26 3175   2.389   1.241   8.568 -0.3446  0.0511  0.6609
   43CHL1  H26A 3176   2.352   1.191   8.660  0.8285 -0.8502  0.6768
   43CHL1  H26B 3177   2.500   1.241   8.574 -0.3725 -0.4157  1.2845
   43CHL1  H26C 3178   2.344   1.342   8.566 -0.5424 -0.0456 -0.4908
   43CHL1   C27 3179   2.209   1.088   8.480  0.7112 -0.2316 -0.0829
   43CHL1  H27A 3180   2.172   1.033   8.391  0.4205 -1.3488  0.7053
   43CHL1  H27B 3181   2.226   1.009   8.557 -0.4245  0.6089  1.0753
   43CHL1  H27C 3182   2.137   1.163   8.520  2.2141  0.4760  1.4116
   44CHL1    C3 3183   1.238   0.581   6.970 -0.6565  0.6031  0.0759
   44CHL1    H3 3184   1.327   0.645   6.988  0.5905 -0.8520 -0.7160
   44CHL1    O3 3185   1.180   0.620   6.846 -0.1305  0.2808  0.1840
   44CHL1   H3' 3186   1.096   0.573   6.841  0.0143 -0.0495  0.8426
   44CHL1    C4 3187   1.277   0.433   6.973  0.8809 -0.0601  0.9685
   44CHL1   H4A 3188   1.187   0.370   6.955  1.6121 -0.5776 -1.2268
   44CHL1   H4B 3189   1.351   0.405   6.895  2.8334 -0.1022  2.7266
   44CHL1    C5 3190   1.344   0.395   7.098  0.1347 -0.3530  0.0382
   44CHL1    C6 3191   1.464   0.333   7.102  0.1271  0.2317  0.2993
   44CHL1    H6 3192   1.504   0.294   7.007  0.1479  0.2431  0.3033
   44CHL1    C7 3193   1.539   0.302   7.234  0.0997  0.1045  0.1288
   44CHL1   H7A 3194   1.582   0.200   7.224 -0.2931  0.0528 -1.3247
   44CHL1   H7B 3195   1.622   0.375   7.246 -0.4741  0.7814  0.0317
   44CHL1    C8 3196   1.442   0.301   7.364 -0.3753  0.7404  0.2807
   44CHL1    H8 3197   1.372   0.215   7.363  0.7082 -0.1829  1.6974
   44CHL1   C14 3198   1.525   0.288   7.493 -0.3177 -0.5512 -0.3666
   44CHL1   H14 3199   1.588   0.379   7.489 -1.1824  0.0288 -1.4670
   44CHL1   C15 3200   1.621   0.168   7.508 -0.0365 -0.3212 -0.6261
   44CHL1  H15A 3201   1.569   0.072   7.490 -1.8632  0.3714  0.6671
   44CHL1  H15B 3202   1.708   0.179   7.439  1.1129 -0.9637  0.6776
   44CHL1   C16 3203   1.655   0.164   7.657 -0.3631 -0.2099  0.2039
   44CHL1  H16A 3204   1.638   0.062   7.698 -0.0541 -0.3094  0.0875
   44CHL1  H16B 3205   1.758   0.198   7.683  0.2747 -1.6742 -0.2670
   44CHL1   C17 3206   1.551   0.275   7.724  0.1706 -0.0639  0.2418
   44CHL1   H17 3207   1.597   0.376   7.720 -2.3830  1.1700 -0.3013
   44CHL1   C13 3208   1.444   0.293   7.619 -0.7116  0.1856  0.0530
   44CHL1   C18 3209   1.350   0.175   7.631  0.0651  0.3631 -0.0817
   44CHL1  H18A 3210   1.262   0.197   7.695  0.2072 -1.4969  0.8135
   44CHL1  H18B 3211   1.297   0.156   7.536 -0.2348 -0.6103  0.2672
   44CHL1  H18C 3212   1.391   0.077   7.663 -1.1065 -0.4280 -0.9494
   44CHL1   C12 3213   1.376   0.432   7.611  0.8795 -0.1915 -0.2526
   44CHL1  H12A 3214   1.320   0.463   7.702 -1.8663 -1.4031 -1.3918
   44CHL1  H12B 3215   1.469   0.492   7.607  1.4736 -1.1623 -2.8949
   44CHL1   C11 3216   1.280   0.443   7.491  0.5443 -0.3678  0.4568
   44CHL1  H11A 3217   1.198   0.369   7.508  2.2585 -3.3983 -3.0726
   44CHL1  H11B 3218   1.241   0.547   7.484  0.0684 -0.6011 -0.5386
   44CHL1    C9 3219   1.359   0.426   7.359 -0.0617 -0.3292  0.7256
   44CHL1    H9 3220   1.429   0.512   7.354 -0.2122 -0.1353  1.7060
   44CHL1   C10 3221   1.273   0.443   7.232  0.1740 -0.1285  0.9071
   44CHL1   C19 3222   1.149   0.353   7.243  0.7470  0.3219 -0.7318
   44CHL1  H19A 3223   1.090   0.362   7.149  0.7603  1.4774 -0.6416
   44CHL1  H19B 3224   1.173   0.248   7.268 -2.6072  0.0782  2.2611
   44CHL1  H19C 3225   1.078   0.386   7.322  1.0436 -0.1495 -0.2635
   44CHL1    C1 3226   1.237   0.594   7.216 -0.2095 -0.0995  0.0909
   44CHL1   H1A 3227   1.173   0.620   7.303  0.1215 -2.2999  1.0593
   44CHL1   H1B 3228   1.328   0.658   7.215 -0.6248  0.7044  3.2138
   44CHL1    C2 3229   1.156   0.628   7.091  0.3592  0.2716 -0.3094
   44CHL1   H2A 3230   1.146   0.737   7.072  0.2548  0.2043 -0.6487
   44CHL1   H2B 3231   1.056   0.582   7.090 -1.5508  3.9688 -2.2260
   44CHL1   C20 3232   1.512   0.236   7.869 -0.0344  0.1629 -0.0253
   44CHL1   H20 3233   1.458   0.141   7.888  0.1058  0.1115  0.1259
   44CHL1   C21 3234   1.406   0.337   7.921 -0.5474 -0.0560  0.2478
   44CHL1  H21A 3235   1.400   0.327   8.032 -0.3805  2.2829  0.5251
   44CHL1  H21B 3236   1.308   0.308   7.876  0.8530 -1.5982 -1.9927
   44CHL1  H21C 3237   1.433   0.439   7.887  0.1856 -0.5472 -0.6694
   44CHL1   C22 3238   1.639   0.232   7.953 -0.0069  0.2186  0.4885
   44CHL1  H22A 3239   1.708   0.157   7.909  2.0296  0.4322  3.0918
   44CHL1  H22B 3240   1.691   0.327   7.975  1.0490 -0.6011  1.7282
   44CHL1   C23 3241   1.609   0.157   8.086 -0.6132  0.3816  0.1293
   44CHL1  H23A 3242   1.513   0.191   8.129 -0.8677  0.2950 -0.3574
   44CHL1  H23B 3243   1.593   0.050   8.060  2.1932 -0.7095  2.3795
   44CHL1   C24 3244   1.724   0.152   8.186 -0.1547 -0.3405  0.4374
   44CHL1  H24A 3245   1.706   0.068   8.257 -0.0594 -0.5586  0.2056
   44CHL1  H24B 3246   1.810   0.124   8.122  1.0039  0.1350  1.7571
   44CHL1   C25 3247   1.756   0.278   8.266  0.1849  0.1208  0.0959
   44CHL1   H25 3248   1.739   0.360   8.193  0.6661  0.3721  0.2649
   44CHL1   C26 3249   1.647   0.292   8.377 -0.5924  0.2828  0.4233
   44CHL1  H26A 3250   1.636   0.395   8.418 -1.2520 -0.1553  1.3771
   44CHL1  H26B 3251   1.550   0.252   8.342  0.1766 -0.0062 -1.5071
   44CHL1  H26C 3252   1.676   0.237   8.470 -0.2647  1.6082  1.1419
   44CHL1   C27 3253   1.893   0.273   8.328 -0.1270 -0.3506 -1.3010
   44CHL1  H27A 3254   1.903   0.330   8.423 -1.5915 -0.9086 -0.7799
   44CHL1  H27B 3255   1.919   0.167   8.349  2.0409  0.2896 -0.4836
   44CHL1  H27C 3256   1.969   0.319   8.262  1.1875  1.1555  1.0864
   45CHL1    C3 3257   3.068   3.612   6.864  0.3769 -0.4136 -0.0316
   45CHL1    H3 3258   3.105   3.717   6.875 -1.6950  0.3509  0.0276
   45CHL1    O3 3259   3.110   3.558   6.741  0.0438 -0.2520 -0.1116
   45CHL1   H3' 3260   3.141   3.469   6.760  1.8318  0.6892  1.7973
   45CHL1    C4 3261   3.126   3.522   6.974 -0.0515  0.1540  0.6654
   45CHL1   H4A 3262   3.108   3.414   6.952 -0.8824 -0.0037  1.9917
   45CHL1   H4B 3263   3.234   3.540   6.956 -0.0285  0.2817  0.9166
   45CHL1    C5 3264   3.080   3.556   7.114  0.3661  0.3146 -0.2015
   45CHL1    C6 3265   3.163   3.594   7.211 -0.4103  0.1660  0.7170
   45CHL1    H6 3266   3.272   3.590   7.195  0.0053  1.2860  2.8983
   45CHL1    C7 3267   3.116   3.616   7.352  0.3202 -0.3109 -0.5177
   45CHL1   H7A 3268   3.188   3.580   7.428 -0.8916  0.1987  0.9325
   45CHL1   H7B 3269   3.100   3.725   7.363  1.1614  0.0053 -2.1696
   45CHL1    C8 3270   2.979   3.553   7.379  1.0975 -0.1211 -0.2556
   45CHL1    H8 3271   2.991   3.443   7.388  0.1031 -0.1349  1.3866
   45CHL1   C14 3272   2.921   3.605   7.509 -0.1059 -0.4088  0.8525
   45CHL1   H14 3273   2.902   3.714   7.494 -1.5603 -0.7499 -0.0530
   45CHL1   C15 3274   3.009   3.590   7.629 -0.0252 -0.7024  0.0162
   45CHL1  H15A 3275   3.060   3.492   7.637 -0.2607 -0.8508 -0.2726
   45CHL1  H15B 3276   3.092   3.663   7.621 -0.3211 -0.4388 -0.7494
   45CHL1   C16 3277   2.914   3.602   7.749 -0.3381 -0.0254 -0.6492
   45CHL1  H16A 3278   2.930   3.517   7.819 -1.0814  0.7300  0.4606
   45CHL1  H16B 3279   2.929   3.699   7.800 -2.7823 -0.1844  0.5330
   45CHL1   C17 3280   2.767   3.600   7.691  0.3392 -0.3588  0.2783
   45CHL1   H17 3281   2.740   3.707   7.681  1.3966 -0.0786  0.2765
   45CHL1   C13 3282   2.784   3.554   7.544  0.7338  0.3592 -0.4984
   45CHL1   C18 3283   2.779   3.401   7.548  0.1156 -0.2854  0.5908
   45CHL1  H18A 3284   2.671   3.377   7.562 -0.8235  2.8761 -0.3462
   45CHL1  H18B 3285   2.829   3.349   7.463 -0.1398 -1.6595  1.2412
   45CHL1  H18C 3286   2.839   3.358   7.631  0.4125 -1.5530 -0.2340
   45CHL1   C12 3287   2.680   3.613   7.440  0.0585  0.4160  0.3288
   45CHL1  H12A 3288   2.579   3.574   7.465  1.5641 -2.4222  2.6029
   45CHL1  H12B 3289   2.682   3.724   7.448  0.5287  0.4751 -0.5549
   45CHL1   C11 3290   2.729   3.572   7.303  0.4644 -0.8337  0.3340
   45CHL1  H11A 3291   2.714   3.462   7.305  1.5475 -0.9767  2.0775
   45CHL1  H11B 3292   2.664   3.601   7.217  0.8687 -0.0204  0.2938
   45CHL1    C9 3293   2.882   3.600   7.268  0.7821  0.2344 -0.3956
   45CHL1    H9 3294   2.890   3.710   7.253  1.3478  0.0452 -1.6275
   45CHL1   C10 3295   2.926   3.549   7.129  0.3894 -1.0874 -0.5600
   45CHL1   C19 3296   2.871   3.409   7.116 -0.4789  0.0140 -0.0288
   45CHL1  H19A 3297   2.911   3.358   7.025 -1.1247  0.7047 -0.7167
   45CHL1  H19B 3298   2.899   3.344   7.202 -1.0214 -0.3799 -0.1441
   45CHL1  H19C 3299   2.761   3.424   7.112 -0.2802  2.0845  0.9097
   45CHL1    C1 3300   2.865   3.645   7.018  0.3170 -0.1865 -0.1915
   45CHL1   H1A 3301   2.754   3.646   7.014  0.2909  2.8965 -0.6570
   45CHL1   H1B 3302   2.885   3.749   7.051 -1.0005  0.3163 -0.9018
   45CHL1    C2 3303   2.914   3.612   6.873 -0.8327  0.1465  0.5691
   45CHL1   H2A 3304   2.873   3.694   6.809  3.4517  1.6008 -0.6898
   45CHL1   H2B 3305   2.873   3.516   6.835  2.3076 -0.9905 -0.2900
   45CHL1   C20 3306   2.654   3.534   7.786 -0.3991 -0.3227 -0.0495
   45CHL1   H20 3307   2.672   3.425   7.775  2.2676 -0.1398  1.4671
   45CHL1   C21 3308   2.510   3.577   7.741 -0.3717 -0.1777  0.1527
   45CHL1  H21A 3309   2.440   3.573   7.827  0.1380 -3.6843  0.5406
   45CHL1  H21B 3310   2.467   3.507   7.667  0.2570  0.1281 -0.5137
   45CHL1  H21C 3311   2.503   3.682   7.706 -0.2766  0.1360  1.0391
   45CHL1   C22 3312   2.680   3.565   7.938 -0.0765  0.4780  0.8875
   45CHL1  H22A 3313   2.594   3.514   7.985 -0.1548 -0.5037 -0.2877
   45CHL1  H22B 3314   2.769   3.509   7.976 -0.6162  0.9813  3.0471
   45CHL1   C23 3315   2.699   3.715   7.977 -0.5619  0.0354  0.2152
   45CHL1  H23A 3316   2.783   3.761   7.921  1.0095 -2.3182  0.5220
   45CHL1  H23B 3317   2.614   3.767   7.928 -0.6240 -0.2037  0.0654
   45CHL1   C24 3318   2.703   3.746   8.122  0.1821  0.4252  0.0445
   45CHL1  H24A 3319   2.718   3.852   8.154  2.1008  0.3882 -0.6085
   45CHL1  H24B 3320   2.614   3.713   8.178  0.7949 -0.8588  0.2938
   45CHL1   C25 3321   2.832   3.687   8.188  0.2845  0.1557  0.2501
   45CHL1   H25 3322   2.843   3.580   8.162  2.0380 -0.0069  1.4752
   45CHL1   C26 3323   2.963   3.767   8.155  0.0453 -0.2035  0.0069
   45CHL1  H26A 3324   2.966   3.877   8.171 -0.5805 -0.0871 -0.6164
   45CHL1  H26B 3325   3.050   3.715   8.201 -0.1324 -0.3435  0.1891
   45CHL1  H26C 3326   2.984   3.749   8.047  3.0157  0.7870  0.3343
   45CHL1   C27 3327   2.825   3.689   8.342  0.0674  0.6517  0.0150
   45CHL1  H27A 3328   2.728   3.646   8.376  1.8137 -3.3181  0.6283
   45CHL1  H27B 3329   2.899   3.617   8.383  0.2720  1.4698  1.1046
   45CHL1  H27C 3330   2.843   3.789   8.385  1.6019  1.2737 -1.9195
   46CHL1    C3 3331   5.084   6.050   7.058  0.3209 -0.5221  0.6032
   46CHL1    H3 3332   5.029   6.144   7.079  0.6907 -0.0027 -0.6914
   46CHL1    O3 3333   5.085   6.022   6.917  0.8725  0.2293 -0.2227
   46CHL1   H3' 3334   5.176   5.996   6.903  0.3477 -0.3220 -3.1677
   46CHL1    C4 3335   5.229   6.070   7.119  0.4701 -0.1050 -0.0305
   46CHL1   H4A 3336   5.270   5.969   7.097  0.2168 -0.5367  1.3641
   46CHL1   H4B 3337   5.288   6.152   7.073  3.3703 -1.6035  0.7810
   46CHL1    C5 3338   5.233   6.085   7.266  0.9130  0.1704 -0.8765
   46CHL1    C6 3339   5.291   6.179   7.332 -0.3644  0.5030 -0.6723
   46CHL1    H6 3340   5.342   6.260   7.278  0.3775  1.7151  1.6985
   46CHL1    C7 3341   5.315   6.188   7.482 -0.1962 -0.1714  0.3335
   46CHL1   H7A 3342   5.424   6.197   7.502  0.5240 -2.5835 -1.8496
   46CHL1   H7B 3343   5.256   6.275   7.519 -0.9152 -0.4244 -0.1889
   46CHL1    C8 3344   5.281   6.061   7.569 -0.3507  0.2299 -0.1679
   46CHL1    H8 3345   5.375   6.002   7.571 -0.5494 -0.0999 -0.3187
   46CHL1   C14 3346   5.227   6.088   7.708 -0.3613 -0.9901 -0.9744
   46CHL1   H14 3347   5.132   6.142   7.690 -0.0063 -0.5378 -1.5513
   46CHL1   C15 3348   5.296   6.195   7.802 -0.4658  0.5847  0.2223
   46CHL1  H15A 3349   5.405   6.198   7.783 -0.4468  1.3042  0.3848
   46CHL1  H15B 3350   5.270   6.298   7.767  0.7072  0.5190 -0.9253
   46CHL1   C16 3351   5.240   6.167   7.943  0.5476 -0.1014 -0.0149
   46CHL1  H16A 3352   5.324   6.132   8.007 -0.7870 -0.6793  1.4888
   46CHL1  H16B 3353   5.207   6.260   7.994 -0.3230 -0.5184  0.2109
   46CHL1   C17 3354   5.146   6.045   7.934 -0.3198  0.2303 -0.5641
   46CHL1   H17 3355   5.044   6.087   7.920  0.5556  2.0269 -2.0128
   46CHL1   C13 3356   5.180   5.971   7.800 -0.3612 -0.5790 -0.0464
   46CHL1   C18 3357   5.304   5.887   7.821 -0.9683  0.5819  0.3651
   46CHL1  H18A 3358   5.268   5.793   7.868 -0.1657  0.1026  0.0331
   46CHL1  H18B 3359   5.344   5.871   7.719 -0.2507 -0.9699  0.8585
   46CHL1  H18C 3360   5.374   5.949   7.882 -1.6347  0.2111  1.5557
   46CHL1   C12 3361   5.071   5.888   7.724  0.5650  0.0580 -0.0243
   46CHL1  H12A 3362   5.070   5.793   7.781  0.8210  0.9243  1.4582
   46CHL1  H12B 3363   4.974   5.940   7.737  1.8336  3.0130 -1.4644
   46CHL1   C11 3364   5.120   5.865   7.581 -0.2201  1.3141  0.1485
   46CHL1  H11A 3365   5.202   5.791   7.575 -1.0555  0.4159 -0.4998
   46CHL1  H11B 3366   5.038   5.815   7.526 -0.2138  0.4063  0.9462
   46CHL1    C9 3367   5.159   5.988   7.500  0.2871 -0.0639  0.1822
   46CHL1    H9 3368   5.070   6.052   7.517 -0.6122 -1.0730 -0.6248
   46CHL1   C10 3369   5.165   5.969   7.341 -0.0077 -0.5525 -0.4641
   46CHL1   C19 3370   5.250   5.829   7.325  0.6823  0.4858 -0.0637
   46CHL1  H19A 3371   5.290   5.812   7.223 -0.1794 -1.1576 -0.1548
   46CHL1  H19B 3372   5.327   5.813   7.405 -0.3233 -1.1723  0.6308
   46CHL1  H19C 3373   5.182   5.743   7.342  1.1262 -0.4382 -2.5899
   46CHL1    C1 3374   5.024   5.956   7.290 -0.8097 -0.4988  0.8255
   46CHL1   H1A 3375   4.971   5.873   7.342 -1.0296 -0.6193  0.4166
   46CHL1   H1B 3376   4.967   6.050   7.305 -0.1599  0.0009  0.2213
   46CHL1    C2 3377   5.015   5.930   7.134  0.9077 -0.4082  0.5909
   46CHL1   H2A 3378   4.914   5.935   7.086  0.6915 -2.5178  0.7279
   46CHL1   H2B 3379   5.053   5.829   7.111  0.5231 -0.2320 -0.9195
   46CHL1   C20 3380   5.126   5.961   8.063  0.3912 -0.3943 -0.1730
   46CHL1   H20 3381   5.227   5.920   8.089  0.9728  0.5431 -0.8972
   46CHL1   C21 3382   5.033   5.847   8.037 -0.6210  0.7711  0.0082
   46CHL1  H21A 3383   5.089   5.757   8.003  1.9056  2.3345 -0.2024
   46CHL1  H21B 3384   4.946   5.873   7.973 -0.7601  1.2062  0.3758
   46CHL1  H21C 3385   4.983   5.813   8.130  0.5524 -1.0063  0.0487
   46CHL1   C22 3386   5.084   6.062   8.174  0.0376  0.8183 -0.2690
   46CHL1  H22A 3387   5.160   6.142   8.188  1.5340 -0.9032  2.3216
   46CHL1  H22B 3388   4.982   6.095   8.147 -1.2881 -2.1862  0.6502
   46CHL1   C23 3389   5.076   5.998   8.311  0.2276 -0.0630 -0.7208
   46CHL1  H23A 3390   5.019   5.903   8.313  1.6676 -0.9426 -0.1045
   46CHL1  H23B 3391   5.175   5.964   8.347 -0.4513  0.0310  1.3758
   46CHL1   C24 3392   5.014   6.098   8.415  0.3267 -0.0614 -0.5300
   46CHL1  H24A 3393   5.058   6.199   8.400  3.9333 -0.7544  3.2530
   46CHL1  H24B 3394   4.905   6.104   8.399 -0.1297 -2.6379  0.9491
   46CHL1   C25 3395   5.041   6.064   8.569  0.1844  0.5783  0.4636
   46CHL1   H25 3396   5.041   5.953   8.571  0.0261  0.5079 -1.6261
   46CHL1   C26 3397   5.172   6.118   8.628 -0.9436 -0.0746  0.2456
   46CHL1  H26A 3398   5.197   6.094   8.733  3.2805 -0.8933 -0.7562
   46CHL1  H26B 3399   5.263   6.091   8.571 -0.4632  2.4490 -0.3132
   46CHL1  H26C 3400   5.175   6.229   8.634  0.4632 -0.1520  1.8107
   46CHL1   C27 3401   4.926   6.113   8.655  0.4719 -0.4726 -0.0551
   46CHL1  H27A 3402   4.899   6.220   8.643  1.7193 -0.2485 -1.0681
   46CHL1  H27B 3403   4.834   6.056   8.628  0.1075 -0.5088  1.1912
   46CHL1  H27C 3404   4.941   6.085   8.761 -1.9505 -0.4390  0.3633
   47CHL1    C3 3405   1.983   0.389   6.793  0.2562  0.5092  0.5271
   47CHL1    H3 3406   1.921   0.480   6.779 -2.1303 -1.2192 -0.6816
   47CHL1    O3 3407   1.996   0.345   6.657  0.4955 -0.2980  0.7963
   47CHL1   H3' 3408   2.052   0.267   6.663  0.2537 -0.6290 -0.6893
   47CHL1    C4 3409   2.124   0.429   6.848 -0.2598  0.5384 -0.4588
   47CHL1   H4A 3410   2.203   0.355   6.825 -0.7024  0.3019 -1.2793
   47CHL1   H4B 3411   2.148   0.524   6.797  0.3321 -0.0791 -1.3490
   47CHL1    C5 3412   2.110   0.453   7.003  0.3606  0.1521 -0.2675
   47CHL1    C6 3413   2.155   0.565   7.059 -0.7458  0.4553 -0.2295
   47CHL1    H6 3414   2.206   0.643   7.000 -0.4220  0.7146  0.3829
   47CHL1    C7 3415   2.137   0.603   7.205 -0.3020 -0.2211 -0.6844
   47CHL1   H7A 3416   2.219   0.672   7.234 -0.7190  0.8889 -2.0435
   47CHL1   H7B 3417   2.049   0.669   7.212 -0.9320 -1.2330  2.1607
   47CHL1    C8 3418   2.118   0.482   7.293  0.0717  0.3331  0.9476
   47CHL1    H8 3419   2.216   0.431   7.283  1.6368  3.5724 -1.8013
   47CHL1   C14 3420   2.074   0.526   7.430  0.3191  0.4006  0.9271
   47CHL1   H14 3421   1.971   0.560   7.406 -0.0417 -1.9543 -1.4317
   47CHL1   C15 3422   2.164   0.636   7.487 -0.2009  0.1829  1.3109
   47CHL1  H15A 3423   2.266   0.594   7.478 -0.5882 -0.5458 -0.0268
   47CHL1  H15B 3424   2.152   0.735   7.438  0.2810 -0.8159 -0.9326
   47CHL1   C16 3425   2.122   0.641   7.631  0.1990 -0.5459  0.1490
   47CHL1  H16A 3426   2.205   0.661   7.702 -0.0158  2.1151 -0.2547
   47CHL1  H16B 3427   2.042   0.715   7.652 -1.3420 -2.1605  0.2359
   47CHL1   C17 3428   2.039   0.507   7.658  0.2818  0.4256 -0.2086
   47CHL1   H17 3429   1.932   0.537   7.654  0.5900  1.4414 -1.5981
   47CHL1   C13 3430   2.070   0.420   7.533  0.0963 -0.3483 -0.1872
   47CHL1   C18 3431   2.212   0.343   7.547 -0.9833  0.1493  0.0465
   47CHL1  H18A 3432   2.205   0.236   7.577 -2.0961  0.7313  2.0862
   47CHL1  H18B 3433   2.271   0.343   7.453 -0.0162  2.4786  0.5892
   47CHL1  H18C 3434   2.271   0.384   7.632 -0.4866 -1.2915  0.4334
   47CHL1   C12 3435   1.957   0.312   7.483 -0.3760  0.1142 -0.4532
   47CHL1  H12A 3436   1.962   0.223   7.549  0.6509  0.2220 -0.3635
   47CHL1  H12B 3437   1.861   0.363   7.504 -0.3454 -0.7116  2.0545
   47CHL1   C11 3438   1.989   0.267   7.339 -0.4123 -0.1475  0.8927
   47CHL1  H11A 3439   2.079   0.203   7.329 -0.5553 -0.0525 -1.6246
   47CHL1  H11B 3440   1.905   0.199   7.312  1.7560 -2.1283 -1.2920
   47CHL1    C9 3441   2.009   0.384   7.239  0.1031  0.9713  0.3047
   47CHL1    H9 3442   1.910   0.435   7.244 -1.0011 -1.1583  2.9021
   47CHL1   C10 3443   2.034   0.347   7.090  0.0533  0.9084 -0.0098
   47CHL1   C19 3444   2.106   0.211   7.091  0.0856  0.8802  0.5953
   47CHL1  H19A 3445   2.202   0.201   7.147  0.6673  2.9023  0.0464
   47CHL1  H19B 3446   2.043   0.130   7.134 -1.3955 -0.2207 -3.2315
   47CHL1  H19C 3447   2.115   0.177   6.985  0.9615  0.5943  0.7468
   47CHL1    C1 3448   1.894   0.320   7.024 -0.3502 -0.6134 -0.1877
   47CHL1   H1A 3449   1.834   0.244   7.078  1.6709 -0.3308  2.7039
   47CHL1   H1B 3450   1.834   0.412   7.038 -0.4509 -0.7047 -0.0211
   47CHL1    C2 3451   1.910   0.282   6.877  1.3454  0.1069 -0.5836
   47CHL1   H2A 3452   1.813   0.279   6.824  0.1600 -1.6353  1.4897
   47CHL1   H2B 3453   1.946   0.179   6.855  0.9149  0.0966 -1.2536
   47CHL1   C20 3454   2.053   0.454   7.801 -0.9286  0.1400 -0.2785
   47CHL1   H20 3455   2.159   0.438   7.830 -0.1512  1.0340 -2.4512
   47CHL1   C21 3456   1.986   0.323   7.838  0.6902  0.4479 -0.3208
   47CHL1  H21A 3457   2.032   0.234   7.790 -4.5937 -1.6630 -2.2015
   47CHL1  H21B 3458   1.882   0.329   7.801  0.5723  0.0050 -0.0650
   47CHL1  H21C 3459   1.986   0.302   7.947 -1.7622  0.1436 -0.3350
   47CHL1   C22 3460   1.997   0.558   7.898  0.2400 -1.0321  0.2517
   47CHL1  H22A 3461   1.995   0.658   7.849  0.5223 -0.8880  0.5320
   47CHL1  H22B 3462   1.896   0.517   7.919  0.2580 -0.9717  0.4550
   47CHL1   C23 3463   2.077   0.574   8.025  0.3397 -0.1303  0.4751
   47CHL1  H23A 3464   2.096   0.471   8.060  1.3197  0.0421  0.4912
   47CHL1  H23B 3465   2.173   0.622   7.994  0.8306 -2.8458 -2.8313
   47CHL1   C24 3466   2.006   0.654   8.132  0.1265 -0.4054  0.4419
   47CHL1  H24A 3467   1.966   0.755   8.107 -0.2309 -0.3121  1.3346
   47CHL1  H24B 3468   1.923   0.585   8.158 -0.9538 -0.6142 -3.0598
   47CHL1   C25 3469   2.091   0.670   8.263  0.0147  0.2525  0.4200
   47CHL1   H25 3470   2.129   0.570   8.290 -0.1992 -0.1012 -0.5620
   47CHL1   C26 3471   2.214   0.760   8.234 -0.1533  0.4747 -0.1461
   47CHL1  H26A 3472   2.178   0.853   8.185 -0.7224 -0.1014 -0.8368
   47CHL1  H26B 3473   2.279   0.790   8.319  1.1430  0.8180 -1.2400
   47CHL1  H26C 3474   2.280   0.696   8.172  0.3603 -0.9131  1.7379
   47CHL1   C27 3475   2.007   0.727   8.373 -0.0324  0.4975  0.2928
   47CHL1  H27A 3476   1.917   0.663   8.380  0.0091  0.0044 -2.3705
   47CHL1  H27B 3477   2.062   0.738   8.469  1.2756  0.9789 -0.4854
   47CHL1  H27C 3478   1.966   0.828   8.351  0.3221  0.4603 -0.5845
   48CHL1    C3 3479   6.400   3.475   6.774  0.1777  0.2283  0.3660
   48CHL1    H3 3480   6.476   3.400   6.804 -0.8755 -1.9778 -2.0867
   48CHL1    O3 3481   6.400   3.473   6.630  0.0395  0.2917  0.2141
   48CHL1   H3' 3482   6.363   3.555   6.598  4.4549  2.3660 -0.2468
   48CHL1    C4 3483   6.267   3.437   6.831  0.1372  0.0352  0.4268
   48CHL1   H4A 3484   6.193   3.491   6.768  2.2097  1.1050 -1.2120
   48CHL1   H4B 3485   6.250   3.330   6.805  0.6152 -0.8881  3.5305
   48CHL1    C5 3486   6.234   3.463   6.977 -0.3404  0.9029 -0.4392
   48CHL1    C6 3487   6.194   3.367   7.062  0.4394 -0.0051 -0.0204
   48CHL1    H6 3488   6.165   3.268   7.025  0.4577  0.6149 -1.7896
   48CHL1    C7 3489   6.162   3.386   7.209  0.0653 -0.7498  0.4587
   48CHL1   H7A 3490   6.062   3.343   7.229 -0.3076 -1.6966 -2.7638
   48CHL1   H7B 3491   6.235   3.324   7.265 -2.8745 -3.0848  1.9802
   48CHL1    C8 3492   6.174   3.532   7.258 -0.4139  0.1941 -0.0141
   48CHL1    H8 3493   6.089   3.591   7.218 -2.2051 -2.0271  0.3185
   48CHL1   C14 3494   6.184   3.542   7.407 -0.1685  0.4576  0.3365
   48CHL1   H14 3495   6.279   3.494   7.439  0.4610  1.3960 -0.0885
   48CHL1   C15 3496   6.079   3.460   7.491 -0.3499 -0.1372  0.2643
   48CHL1  H15A 3497   5.984   3.461   7.434  0.2833  0.1005 -0.8111
   48CHL1  H15B 3498   6.106   3.353   7.507  0.9030  0.2419  0.8040
   48CHL1   C16 3499   6.081   3.537   7.624 -0.5544 -0.4306 -0.9978
   48CHL1  H16A 3500   5.979   3.574   7.651 -0.7742 -0.4339 -1.7974
   48CHL1  H16B 3501   6.100   3.471   7.711 -2.7318 -0.0164 -0.1473
   48CHL1   C17 3502   6.178   3.656   7.618 -0.4280 -0.1421 -0.0769
   48CHL1   H17 3503   6.271   3.607   7.654 -0.7393 -1.6529 -1.2228
   48CHL1   C13 3504   6.184   3.687   7.462  0.2408  0.4708  0.2145
   48CHL1   C18 3505   6.065   3.769   7.421 -0.1735  0.1115 -0.0976
   48CHL1  H18A 3506   6.079   3.860   7.483  2.0210 -2.4338  3.5174
   48CHL1  H18B 3507   6.054   3.796   7.314  0.3816  2.5009  0.3901
   48CHL1  H18C 3508   5.974   3.711   7.446  0.1273 -0.7718 -0.9858
   48CHL1   C12 3509   6.309   3.747   7.407 -0.2740 -0.3994  0.7619
   48CHL1  H12A 3510   6.312   3.856   7.426  1.7772 -0.3167  0.1611
   48CHL1  H12B 3511   6.402   3.704   7.449  0.7605  0.3726 -0.6802
   48CHL1   C11 3512   6.328   3.742   7.247  0.0400  0.4400  0.1861
   48CHL1  H11A 3513   6.280   3.830   7.200  0.3078  1.2298  1.3502
   48CHL1  H11B 3514   6.437   3.750   7.225 -0.0500 -0.3127 -0.5813
   48CHL1    C9 3515   6.286   3.608   7.188 -0.3444 -0.3549  0.1412
   48CHL1    H9 3516   6.369   3.539   7.214 -0.1634 -0.1506  0.1085
   48CHL1   C10 3517   6.279   3.604   7.027  0.0872 -0.0968  0.0602
   48CHL1   C19 3518   6.173   3.707   6.978  0.1086 -0.7819  1.0085
   48CHL1  H19A 3519   6.205   3.808   7.011 -2.1393 -0.1949  1.5528
   48CHL1  H19B 3520   6.159   3.722   6.869 -2.2362 -0.2891  1.3331
   48CHL1  H19C 3521   6.072   3.690   7.022 -0.2841 -1.5557 -0.1413
   48CHL1    C1 3522   6.421   3.642   6.966  0.2323  0.3503 -0.1260
   48CHL1   H1A 3523   6.456   3.746   6.986  2.5211 -0.0916 -1.4460
   48CHL1   H1B 3524   6.502   3.576   7.004 -1.3679 -1.0277  0.9738
   48CHL1    C2 3525   6.431   3.620   6.817  0.3067 -0.6018 -0.4048
   48CHL1   H2A 3526   6.528   3.661   6.780 -1.2237  3.2441 -0.6097
   48CHL1   H2B 3527   6.347   3.678   6.773  0.5698 -0.2540 -0.4575
   48CHL1   C20 3528   6.138   3.764   7.724  0.1892 -0.1867  0.6869
   48CHL1   H20 3529   6.037   3.804   7.705  0.4194 -0.6922 -2.0519
   48CHL1   C21 3530   6.244   3.876   7.720  0.1320  0.0750  0.4064
   48CHL1  H21A 3531   6.344   3.829   7.716  0.4700  0.8595 -1.6037
   48CHL1  H21B 3532   6.237   3.946   7.806 -1.2570  2.1429 -1.2774
   48CHL1  H21C 3533   6.228   3.936   7.627  1.6972  1.4804  0.9871
   48CHL1   C22 3534   6.131   3.703   7.867  0.4783  0.6165 -0.5555
   48CHL1  H22A 3535   6.044   3.634   7.867  0.4727  0.6233 -0.5584
   48CHL1  H22B 3536   6.220   3.643   7.895  0.4601  0.6919 -0.3319
   48CHL1   C23 3537   6.096   3.808   7.980  0.1060  0.5296  0.2469
   48CHL1  H23A 3538   6.186   3.869   8.001  3.1256 -3.6421  0.6961
   48CHL1  H23B 3539   6.017   3.876   7.943 -2.3800 -0.9384  2.4973
   48CHL1   C24 3540   6.041   3.741   8.109 -0.4031 -0.2275  0.2263
   48CHL1  H24A 3541   6.013   3.819   8.184 -0.5178 -0.4217  0.3867
   48CHL1  H24B 3542   5.944   3.691   8.091 -1.2832  1.1302  0.9925
   48CHL1   C25 3543   6.132   3.632   8.168 -0.1518 -0.2101 -0.6050
   48CHL1   H25 3544   6.136   3.549   8.095 -1.3789  0.1272 -1.0901
   48CHL1   C26 3545   6.272   3.684   8.209  0.5910 -0.1149  0.6440
   48CHL1  H26A 3546   6.315   3.748   8.129  1.4458  2.7272  3.1703
   48CHL1  H26B 3547   6.273   3.729   8.311  1.3583  0.9309  0.1958
   48CHL1  H26C 3548   6.348   3.603   8.213  0.5284 -0.1648  0.8384
   48CHL1   C27 3549   6.069   3.578   8.294 -0.2313  0.1196 -0.7171
   48CHL1  H27A 3550   6.051   3.660   8.366  2.5979 -0.9354  1.3842
   48CHL1  H27B 3551   5.970   3.535   8.268 -1.3855  1.7556  0.7786
   48CHL1  H27C 3552   6.132   3.502   8.344  1.8828  0.3220 -2.8819
   49CHL1    C3 3553   4.907   4.508   6.805  0.0651  0.3347  0.3973
   49CHL1    H3 3554   4.924   4.405   6.766 -4.9411 -1.9888  3.2557
   49CHL1    O3 3555   4.929   4.600   6.700  0.2446  0.2056 -0.2202
   49CHL1   H3' 3556   5.018   4.587   6.666  1.2413 -1.2262  2.6420
   49CHL1    C4 3557   4.759   4.500   6.846  0.2199 -0.1339  0.5687
   49CHL1   H4A 3558   4.723   4.604   6.859 -1.7523 -0.7178  0.1987
   49CHL1   H4B 3559   4.699   4.465   6.759 -1.0811  1.5775  0.7133
   49CHL1    C5 3560   4.729   4.433   6.975 -0.0996  0.5507  0.2105
   49CHL1    C6 3561   4.636   4.336   6.994 -0.3874  0.2753  0.7735
   49CHL1    H6 3562   4.575   4.306   6.908  1.2435  1.3434 -0.8174
   49CHL1    C7 3563   4.615   4.269   7.127  0.1163  0.1227  0.5320
   49CHL1   H7A 3564   4.510   4.238   7.148  0.0457  2.4735  4.5041
   49CHL1   H7B 3565   4.673   4.175   7.134  3.0413  1.9125  1.9328
   49CHL1    C8 3566   4.672   4.343   7.248  0.5387  0.1364  0.8752
   49CHL1    H8 3567   4.611   4.434   7.268 -0.6796 -0.2484 -0.8673
   49CHL1   C14 3568   4.681   4.246   7.369  0.5764  0.5009 -0.2324
   49CHL1   H14 3569   4.762   4.177   7.339 -0.6346 -1.0845 -0.0118
   49CHL1   C15 3570   4.558   4.165   7.411  0.3002  0.2343 -0.5940
   49CHL1  H15A 3571   4.465   4.224   7.400 -0.3153 -0.4688  0.5344
   49CHL1  H15B 3572   4.541   4.067   7.361 -2.3771  0.0725  0.4538
   49CHL1   C16 3573   4.589   4.132   7.559  0.0005 -0.2007  0.1879
   49CHL1  H16A 3574   4.512   4.163   7.633 -1.2239 -0.2961 -1.0118
   49CHL1  H16B 3575   4.604   4.023   7.577  1.8916 -0.3374 -1.7580
   49CHL1   C17 3576   4.727   4.192   7.602 -0.6063  0.6092 -0.1026
   49CHL1   H17 3577   4.803   4.119   7.566 -2.4120 -1.7090  0.5335
   49CHL1   C13 3578   4.739   4.313   7.499 -0.5744  0.5373 -0.3045
   49CHL1   C18 3579   4.632   4.418   7.544 -0.1420 -0.5795  0.2509
   49CHL1  H18A 3580   4.658   4.456   7.645  0.2431 -0.1185 -0.0150
   49CHL1  H18B 3581   4.638   4.507   7.477  0.1972  1.2781  2.6248
   49CHL1  H18C 3582   4.527   4.381   7.550 -1.1810  2.1853  0.7539
   49CHL1   C12 3583   4.877   4.369   7.469 -0.0683 -0.2365 -0.7704
   49CHL1  H12A 3584   4.919   4.425   7.556 -3.0948  4.9373 -2.2537
   49CHL1  H12B 3585   4.948   4.287   7.443 -2.4028 -2.5323 -0.2409
   49CHL1   C11 3586   4.871   4.457   7.344  0.4396 -0.5981 -0.1504
   49CHL1  H11A 3587   4.809   4.547   7.361 -0.9379 -1.6374  0.5145
   49CHL1  H11B 3588   4.969   4.500   7.316 -0.1945  1.4855  0.6278
   49CHL1    C9 3589   4.810   4.395   7.217 -0.1159 -0.3476 -0.2890
   49CHL1    H9 3590   4.870   4.303   7.200 -1.3449 -0.9089 -1.8543
   49CHL1   C10 3591   4.817   4.487   7.089  0.7899 -0.3506  0.7315
   49CHL1   C19 3592   4.776   4.630   7.118 -0.3972 -0.2739 -0.2190
   49CHL1  H19A 3593   4.675   4.650   7.159  0.1455  0.4020  0.8379
   49CHL1  H19B 3594   4.838   4.684   7.192  1.5275 -1.3828 -0.9420
   49CHL1  H19C 3595   4.787   4.697   7.030  2.1062 -1.6807 -1.0916
   49CHL1    C1 3596   4.967   4.484   7.056  0.1926 -1.0474  0.8125
   49CHL1   H1A 3597   5.036   4.530   7.130  1.8343  0.4661 -1.5002
   49CHL1   H1B 3598   5.000   4.380   7.035 -1.0745 -1.6866  1.8796
   49CHL1    C2 3599   4.998   4.547   6.913 -0.3649 -0.5442 -0.6953
   49CHL1   H2A 3600   5.105   4.522   6.897  0.2292  1.2295  0.2319
   49CHL1   H2B 3601   4.985   4.657   6.924 -1.9983 -0.9140  1.8039
   49CHL1   C20 3602   4.763   4.218   7.749  0.4658 -0.3424 -0.0355
   49CHL1   H20 3603   4.727   4.319   7.777 -0.5480 -0.4083 -1.0385
   49CHL1   C21 3604   4.913   4.207   7.768 -0.5129  0.2430 -0.0683
   49CHL1  H21A 3605   4.951   4.105   7.745  0.6620  0.8249 -0.7940
   49CHL1  H21B 3606   4.938   4.236   7.872 -0.1796  0.8795 -0.3206
   49CHL1  H21C 3607   4.968   4.273   7.697  1.2074 -0.7592  0.2762
   49CHL1   C22 3608   4.696   4.113   7.844  0.4066 -0.0290  0.0717
   49CHL1  H22A 3609   4.585   4.128   7.848  0.1310 -1.9993  1.0460
   49CHL1  H22B 3610   4.709   4.011   7.804  3.1045 -0.7878  2.5513
   49CHL1   C23 3611   4.763   4.103   7.983  0.0849 -0.4424  0.4315
   49CHL1  H23A 3612   4.865   4.059   7.980  0.3108 -0.1140  2.0361
   49CHL1  H23B 3613   4.791   4.201   8.029 -1.4888  1.3064 -2.0988
   49CHL1   C24 3614   4.670   4.022   8.073  0.6730 -0.3047  0.1111
   49CHL1  H24A 3615   4.569   4.023   8.027  0.4162 -0.8342  0.6410
   49CHL1  H24B 3616   4.695   3.916   8.050  0.2766 -0.2936 -0.3840
   49CHL1   C25 3617   4.670   4.043   8.226 -0.4888  0.8356 -0.4158
   49CHL1   H25 3618   4.644   4.149   8.249 -1.7481  0.1138  1.8318
   49CHL1   C26 3619   4.573   3.953   8.301 -0.0284  0.0268  0.8704
   49CHL1  H26A 3620   4.568   3.985   8.407 -2.3273  1.1813  0.4694
   49CHL1  H26B 3621   4.474   3.960   8.251 -0.2631 -0.9307  1.1702
   49CHL1  H26C 3622   4.614   3.851   8.284 -1.0767  0.0104 -2.1375
   49CHL1   C27 3623   4.806   4.002   8.284  0.3478 -0.1298 -0.0183
   49CHL1  H27A 3624   4.891   4.042   8.225 -0.1386  0.8661 -0.0596
   49CHL1  H27B 3625   4.809   4.030   8.391 -0.5405 -2.6816  0.7462
   49CHL1  H27C 3626   4.814   3.892   8.293  0.1708 -0.1303  0.1229
   50CHL1    C3 3627   0.637   5.545   6.893 -0.1355  0.1557 -0.8827
   50CHL1    H3 3628   0.527   5.554   6.904 -0.5782 -3.4449 -1.1782
   50CHL1    O3 3629   0.674   5.512   6.762 -0.7784  0.0461 -0.1147
   50CHL1   H3' 3630   0.677   5.595   6.715 -0.2136  0.2816  0.3201
   50CHL1    C4 3631   0.701   5.673   6.945 -0.7852  0.1835 -0.5102
   50CHL1   H4A 3632   0.809   5.658   6.922 -1.2094 -1.3313 -1.6956
   50CHL1   H4B 3633   0.675   5.760   6.881 -3.7598 -1.7621 -2.2157
   50CHL1    C5 3634   0.686   5.698   7.093 -0.3252  0.8226  0.3510
   50CHL1    C6 3635   0.658   5.822   7.139  0.1011  0.4183  0.1019
   50CHL1    H6 3636   0.640   5.906   7.069 -2.2367  1.7167  2.1122
   50CHL1    C7 3637   0.648   5.847   7.283  0.0162 -1.0142 -0.7576
   50CHL1   H7A 3638   0.708   5.935   7.315 -0.5840 -1.0753  0.5731
   50CHL1   H7B 3639   0.545   5.883   7.304  0.9752  0.2681  2.1910
   50CHL1    C8 3640   0.684   5.742   7.384  0.1635 -0.6846 -0.5850
   50CHL1    H8 3641   0.794   5.747   7.397 -0.1538  0.0171  2.8166
   50CHL1   C14 3642   0.621   5.766   7.521 -0.0625 -0.0288 -0.2259
   50CHL1   H14 3643   0.513   5.751   7.504 -0.4063  1.0831  0.8389
   50CHL1   C15 3644   0.630   5.903   7.587 -0.0525 -0.4817  0.1311
   50CHL1  H15A 3645   0.734   5.941   7.586 -0.1579 -0.1865 -0.2241
   50CHL1  H15B 3646   0.555   5.977   7.550  0.1772 -1.1097 -1.7226
   50CHL1   C16 3647   0.596   5.864   7.730 -0.4681 -0.1183  0.0537
   50CHL1  H16A 3648   0.670   5.907   7.801 -0.7821 -0.3531  0.5273
   50CHL1  H16B 3649   0.490   5.891   7.747 -0.8541 -0.3321 -1.8136
   50CHL1   C17 3650   0.586   5.708   7.750  0.0323 -0.0539  0.6777
   50CHL1   H17 3651   0.480   5.674   7.745  0.1729 -0.4224  0.1659
   50CHL1   C13 3652   0.656   5.657   7.625  0.2737  0.5689 -0.5746
   50CHL1   C18 3653   0.815   5.655   7.658 -0.4359 -0.0128  0.1996
   50CHL1  H18A 3654   0.860   5.755   7.679  2.1017 -0.7353 -1.3807
   50CHL1  H18B 3655   0.847   5.587   7.740  0.2650 -0.8481 -0.7426
   50CHL1  H18C 3656   0.876   5.609   7.578 -0.9913  0.8973 -0.7786
   50CHL1   C12 3657   0.606   5.517   7.574 -0.5230  0.1916  0.2254
   50CHL1  H12A 3658   0.635   5.434   7.642  1.0050 -0.3378 -1.0272
   50CHL1  H12B 3659   0.495   5.513   7.579 -0.5498  1.3483  1.0408
   50CHL1   C11 3660   0.661   5.486   7.431 -0.2706 -0.5364 -0.1391
   50CHL1  H11A 3661   0.772   5.481   7.437 -0.2473 -1.4714 -1.0948
   50CHL1  H11B 3662   0.620   5.392   7.388  0.3326  0.0214 -2.0599
   50CHL1    C9 3663   0.648   5.604   7.326  0.2344  0.0106  0.3991
   50CHL1    H9 3664   0.538   5.617   7.315  0.1892 -1.2228 -1.0824
   50CHL1   C10 3665   0.704   5.572   7.180 -0.3786  0.0558  0.0592
   50CHL1   C19 3666   0.855   5.540   7.197  0.4496 -0.0046 -0.2810
   50CHL1  H19A 3667   0.902   5.520   7.099 -1.8642  1.6794 -1.8459
   50CHL1  H19B 3668   0.904   5.633   7.234 -1.3019 -1.4072  7.1500
   50CHL1  H19C 3669   0.870   5.457   7.269 -0.8499  0.0822  0.1179
   50CHL1    C1 3670   0.636   5.438   7.121 -1.0139  0.2455  0.1567
   50CHL1   H1A 3671   0.666   5.357   7.191 -0.7568  0.4995  0.3435
   50CHL1   H1B 3672   0.526   5.448   7.130 -1.0034  0.6647 -0.1643
   50CHL1    C2 3673   0.674   5.422   6.976  0.4051  0.3865 -0.4466
   50CHL1   H2A 3674   0.637   5.330   6.926  0.3337 -0.0906  0.4588
   50CHL1   H2B 3675   0.784   5.426   6.970  0.3322  1.0987 -1.5888
   50CHL1   C20 3676   0.631   5.667   7.892  0.0670 -0.1961  0.0082
   50CHL1   H20 3677   0.740   5.687   7.897  0.2533 -0.9240 -0.9779
   50CHL1   C21 3678   0.615   5.517   7.919 -0.6088  0.1108  0.1810
   50CHL1  H21A 3679   0.506   5.492   7.919 -0.5406 -0.4470  2.5528
   50CHL1  H21B 3680   0.659   5.487   8.017  2.6811  5.1252  0.5733
   50CHL1  H21C 3681   0.670   5.449   7.851 -1.2629  0.2075 -0.4640
   50CHL1   C22 3682   0.559   5.745   8.005  0.0497  1.1017  0.2710
   50CHL1  H22A 3683   0.574   5.855   8.000  1.3588  0.9879  1.1471
   50CHL1  H22B 3684   0.449   5.736   7.998  0.1138  0.6680 -0.2023
   50CHL1   C23 3685   0.602   5.697   8.143  0.1918  0.0874  0.0819
   50CHL1  H23A 3686   0.573   5.591   8.160 -0.4435 -0.0989 -1.8890
   50CHL1  H23B 3687   0.713   5.696   8.137  0.4658 -2.9455  2.8683
   50CHL1   C24 3688   0.553   5.782   8.259  0.5046 -0.1063  0.6107
   50CHL1  H24A 3689   0.596   5.884   8.262  0.1948  0.1423 -1.5756
   50CHL1  H24B 3690   0.442   5.792   8.264  0.5511 -0.0061  1.5833
   50CHL1   C25 3691   0.572   5.722   8.397  0.2290  0.5902  0.4475
   50CHL1   H25 3692   0.525   5.621   8.406  0.0727  0.7416  1.4698
   50CHL1   C26 3693   0.718   5.700   8.430 -0.1403 -0.0918  0.7557
   50CHL1  H26A 3694   0.786   5.663   8.351  0.3261  1.9076  0.1654
   50CHL1  H26B 3695   0.753   5.800   8.462 -1.1909  0.2356  0.9351
   50CHL1  H26C 3696   0.729   5.640   8.522 -0.6943  0.2166  1.0275
   50CHL1   C27 3697   0.498   5.802   8.506  0.0569 -0.0465  1.0883
   50CHL1  H27A 3698   0.543   5.785   8.606 -2.0451  0.3361  2.1736
   50CHL1  H27B 3699   0.479   5.907   8.475 -2.4494 -0.2586  1.7018
   50CHL1  H27C 3700   0.397   5.757   8.511  0.4858 -1.0938  0.5065
   51CHL1    C3 3701   2.706   4.910   7.018  0.3458  0.1197 -0.1925
   51CHL1    H3 3702   2.595   4.901   7.026  0.4770 -1.2668  0.3387
   51CHL1    O3 3703   2.739   4.940   6.882  0.7973 -0.3104 -0.5136
   51CHL1   H3' 3704   2.827   4.905   6.872  0.7253 -0.3965 -0.8377
   51CHL1    C4 3705   2.765   5.015   7.108 -0.0813 -0.0398 -0.5336
   51CHL1   H4A 3706   2.874   5.026   7.085  0.8818 -2.9729  2.0295
   51CHL1   H4B 3707   2.713   5.108   7.075  0.2008  0.3445  0.0806
   51CHL1    C5 3708   2.756   4.995   7.256 -0.0358 -0.4638 -0.1569
   51CHL1    C6 3709   2.697   5.085   7.334 -0.3884  0.8836 -0.2949
   51CHL1    H6 3710   2.664   5.179   7.287 -0.5393  0.8044 -0.3474
   51CHL1    C7 3711   2.690   5.063   7.485  0.1633  0.3899  0.2405
   51CHL1   H7A 3712   2.712   5.160   7.533 -1.6827  0.1434  1.7186
   51CHL1   H7B 3713   2.582   5.041   7.502 -0.6790  2.7161 -1.6147
   51CHL1    C8 3714   2.776   4.948   7.541 -0.2003 -0.3942 -0.1791
   51CHL1    H8 3715   2.883   4.977   7.552 -0.6673  0.8327  1.3303
   51CHL1   C14 3716   2.726   4.903   7.681  0.0882  0.9003 -0.2994
   51CHL1   H14 3717   2.627   4.856   7.660  1.5906 -1.5851 -2.2367
   51CHL1   C15 3718   2.711   5.015   7.788  0.4630 -0.2005  0.1148
   51CHL1  H15A 3719   2.807   5.071   7.797  1.6078 -2.1753  0.9636
   51CHL1  H15B 3720   2.629   5.089   7.781 -1.2124 -2.0168 -0.3905
   51CHL1   C16 3721   2.701   4.935   7.918 -0.0715 -0.0322  0.6598
   51CHL1  H16A 3722   2.785   4.972   7.982  0.7980 -0.7648 -0.0253
   51CHL1  H16B 3723   2.604   4.941   7.973  1.1909 -0.6387  3.1327
   51CHL1   C17 3724   2.741   4.785   7.885  0.2009  0.2325  0.0982
   51CHL1   H17 3725   2.645   4.731   7.872 -0.7732  1.8060  0.5117
   51CHL1   C13 3726   2.806   4.797   7.748  0.1832  0.1412  0.4638
   51CHL1   C18 3727   2.956   4.838   7.764 -0.6896  0.3186 -0.6299
   51CHL1  H18A 3728   3.009   4.864   7.670 -1.1041 -0.7026 -1.1641
   51CHL1  H18B 3729   2.954   4.926   7.832 -0.2192 -1.7819  2.2840
   51CHL1  H18C 3730   3.017   4.754   7.803  1.4300  1.7145 -0.7602
   51CHL1   C12 3731   2.793   4.675   7.656  0.2885 -0.1696  0.0458
   51CHL1  H12A 3732   2.854   4.592   7.698 -2.1224 -2.7603 -1.2319
   51CHL1  H12B 3733   2.686   4.645   7.667 -0.1024  1.2392  0.2962
   51CHL1   C11 3734   2.825   4.696   7.513 -0.1954 -0.1039 -1.1085
   51CHL1  H11A 3735   2.935   4.710   7.510 -0.2523  1.9432  2.0147
   51CHL1  H11B 3736   2.815   4.603   7.453  1.3112 -0.9088 -0.1936
   51CHL1    C9 3737   2.761   4.823   7.453 -0.0838 -0.7470 -0.2895
   51CHL1    H9 3738   2.650   4.817   7.447 -0.1303 -1.4126  0.7829
   51CHL1   C10 3739   2.806   4.856   7.309 -0.5116  0.1348  0.5590
   51CHL1   C19 3740   2.956   4.851   7.306 -0.0047  0.5768  0.7506
   51CHL1  H19A 3741   2.996   4.914   7.388  1.0477  1.9588 -0.7570
   51CHL1  H19B 3742   3.001   4.749   7.306  0.6910  0.8799  1.1607
   51CHL1  H19C 3743   2.990   4.902   7.213  2.4935 -0.1148  1.2303
   51CHL1    C1 3744   2.757   4.746   7.210 -0.2223  0.3393 -0.2570
   51CHL1   H1A 3745   2.800   4.646   7.232  0.5885  0.6963 -0.1837
   51CHL1   H1B 3746   2.651   4.723   7.234 -0.0884 -1.5137 -1.2211
   51CHL1    C2 3747   2.772   4.776   7.058 -0.3218  0.0166  0.7891
   51CHL1   H2A 3748   2.730   4.691   6.999 -0.5084  2.4208 -2.8486
   51CHL1   H2B 3749   2.880   4.774   7.033  0.5520  0.2574  4.1069
   51CHL1   C20 3750   2.827   4.710   7.989 -0.7061  0.3150  0.0259
   51CHL1   H20 3751   2.922   4.767   7.993 -0.7252  0.3385  0.1487
   51CHL1   C21 3752   2.873   4.566   7.955  0.6452  0.7437 -0.5808
   51CHL1  H21A 3753   2.788   4.501   7.923 -2.5167  3.1972  2.0371
   51CHL1  H21B 3754   2.925   4.528   8.045  0.0485 -1.1351 -0.9858
   51CHL1  H21C 3755   2.960   4.566   7.886  1.6374 -1.3314  0.5753
   51CHL1   C22 3756   2.760   4.713   8.126 -0.4254  0.2661 -0.0640
   51CHL1  H22A 3757   2.834   4.682   8.203 -1.5284  2.1821  1.8870
   51CHL1  H22B 3758   2.737   4.820   8.146  1.5740  1.3464 -2.9628
   51CHL1   C23 3759   2.630   4.631   8.149 -0.1091  0.6030 -1.0438
   51CHL1  H23A 3760   2.545   4.672   8.092 -0.8665 -3.5422 -3.3485
   51CHL1  H23B 3761   2.651   4.531   8.105  1.2225  1.2278 -1.9198
   51CHL1   C24 3762   2.598   4.619   8.302 -0.1002 -0.3492  0.5202
   51CHL1  H24A 3763   2.510   4.556   8.325  0.9428 -0.5621  4.7805
   51CHL1  H24B 3764   2.684   4.561   8.343 -0.7603 -1.9549 -0.2776
   51CHL1   C25 3765   2.578   4.755   8.378 -0.4199  0.9453 -0.2065
   51CHL1   H25 3766   2.668   4.817   8.357  0.7936  0.0993  2.1667
   51CHL1   C26 3767   2.454   4.834   8.334  0.4147 -0.4705 -0.7956
   51CHL1  H26A 3768   2.478   4.865   8.230  4.6528  1.5822  0.5369
   51CHL1  H26B 3769   2.367   4.766   8.344  1.9092 -2.2930  0.3950
   51CHL1  H26C 3770   2.431   4.920   8.400  0.8310 -1.8194  1.1805
   51CHL1   C27 3771   2.578   4.722   8.528 -0.4581  0.6551  0.8924
   51CHL1  H27A 3772   2.558   4.815   8.586  0.5418 -0.0743  2.4892
   51CHL1  H27B 3773   2.510   4.640   8.560 -0.9032  0.1297 -1.2608
   51CHL1  H27C 3774   2.684   4.696   8.545  0.3309  2.1472 -1.3093
   52CHL1    C3 3775   2.263   4.649   7.071 -0.7340 -0.2140 -0.2002
   52CHL1    H3 3776   2.170   4.704   7.093 -0.9168 -1.2213  1.8609
   52CHL1    O3 3777   2.308   4.633   6.934 -0.2795 -0.1052 -0.6329
   52CHL1   H3' 3778   2.394   4.592   6.943  0.2941  1.1233 -0.1863
   52CHL1    C4 3779   2.376   4.707   7.162  0.0498 -0.1678 -0.0348
   52CHL1   H4A 3780   2.472   4.654   7.143  0.4818  0.5725  0.0327
   52CHL1   H4B 3781   2.398   4.807   7.119  1.4998 -0.9029 -1.0770
   52CHL1    C5 3782   2.355   4.708   7.312 -0.1858  0.0185  0.5344
   52CHL1    C6 3783   2.363   4.825   7.380  0.5679  0.3340  0.3623
   52CHL1    H6 3784   2.394   4.917   7.328 -2.2601  1.3529  0.2788
   52CHL1    C7 3785   2.318   4.832   7.521  0.4499 -0.4000  1.1076
   52CHL1   H7A 3786   2.390   4.892   7.582  0.6602 -1.4792  1.9637
   52CHL1   H7B 3787   2.217   4.878   7.517  0.2020 -1.0098 -0.9898
   52CHL1    C8 3788   2.310   4.698   7.592 -0.2921  0.1421  0.0787
   52CHL1    H8 3789   2.412   4.658   7.607 -1.0844 -1.4956  1.4527
   52CHL1   C14 3790   2.239   4.705   7.731 -0.3199 -0.5384 -0.2093
   52CHL1   H14 3791   2.131   4.723   7.712  0.0925  2.3816 -0.2040
   52CHL1   C15 3792   2.276   4.817   7.829  0.0742  0.7561 -0.5546
   52CHL1  H15A 3793   2.382   4.848   7.823  0.8213 -1.5134  0.1468
   52CHL1  H15B 3794   2.213   4.904   7.798 -0.7110  0.0971 -0.8561
   52CHL1   C16 3795   2.233   4.764   7.964  0.3868  0.7325 -0.6485
   52CHL1  H16A 3796   2.331   4.757   8.015  0.0083  0.2543  0.0327
   52CHL1  H16B 3797   2.165   4.828   8.024 -2.1188 -2.7249  0.5317
   52CHL1   C17 3798   2.173   4.622   7.944  0.6816  0.1512  0.0856
   52CHL1   H17 3799   2.065   4.645   7.936  0.7564  0.7167  0.5972
   52CHL1   C13 3800   2.238   4.578   7.810 -0.1958  0.0184  0.0945
   52CHL1   C18 3801   2.378   4.524   7.836 -0.0410  0.1268 -0.2659
   52CHL1  H18A 3802   2.375   4.430   7.896 -0.9561 -1.0999 -2.1564
   52CHL1  H18B 3803   2.421   4.491   7.739  0.1841 -0.4128  0.0103
   52CHL1  H18C 3804   2.443   4.603   7.880 -0.0577  0.1377 -0.2609
   52CHL1   C12 3805   2.158   4.477   7.723  0.4444  0.0299 -0.1643
   52CHL1  H12A 3806   2.151   4.377   7.773  0.6961  0.1215  0.0570
   52CHL1  H12B 3807   2.051   4.507   7.721  0.3016 -0.5122 -0.9813
   52CHL1   C11 3808   2.219   4.457   7.589  0.1459 -0.3474  0.9674
   52CHL1  H11A 3809   2.326   4.428   7.599  0.6340  0.9982 -0.0812
   52CHL1  H11B 3810   2.170   4.368   7.544  1.0122 -0.8751  1.0301
   52CHL1    C9 3811   2.233   4.594   7.507 -0.3024  0.2797  0.1073
   52CHL1    H9 3812   2.134   4.638   7.487  0.5094  0.9676 -2.9326
   52CHL1   C10 3813   2.297   4.579   7.365  0.5080  0.1623  0.8230
   52CHL1   C19 3814   2.421   4.489   7.366 -0.6639 -0.6204  0.3847
   52CHL1  H19A 3815   2.497   4.527   7.438  1.7734 -0.0907 -2.2621
   52CHL1  H19B 3816   2.396   4.386   7.400  0.3044 -0.4807  1.5974
   52CHL1  H19C 3817   2.471   4.479   7.267 -1.9246 -2.5717 -0.1057
   52CHL1    C1 3818   2.185   4.519   7.276 -0.2086  0.6643  1.0158
   52CHL1   H1A 3819   2.169   4.414   7.309  0.9235  0.2133  0.1869
   52CHL1   H1B 3820   2.090   4.576   7.272  0.5668  1.9827  0.7247
   52CHL1    C2 3821   2.235   4.508   7.122 -0.7046  0.0948  0.3652
   52CHL1   H2A 3822   2.153   4.461   7.064 -0.4286  0.4915 -0.3541
   52CHL1   H2B 3823   2.323   4.440   7.115  0.7563  2.0825 -2.2243
   52CHL1   C20 3824   2.189   4.527   8.061  0.7935 -0.4426 -0.6300
   52CHL1   H20 3825   2.295   4.500   8.075  1.5226  2.6156  0.7735
   52CHL1   C21 3826   2.115   4.393   8.037  0.4678 -0.0792 -0.7669
   52CHL1  H21A 3827   2.163   4.335   7.956 -1.1135 -1.5555 -0.6987
   52CHL1  H21B 3828   2.007   4.407   8.015  0.5192  0.5211 -0.6573
   52CHL1  H21C 3829   2.132   4.328   8.125  0.6403  1.4128  0.3468
   52CHL1   C22 3830   2.137   4.586   8.202  0.2275 -0.0799  0.2580
   52CHL1  H22A 3831   2.145   4.504   8.277  2.2553  1.4611  1.8209
   52CHL1  H22B 3832   2.212   4.657   8.243 -1.9538  1.6690  1.4066
   52CHL1   C23 3833   1.996   4.647   8.217 -0.4228  0.0410 -0.0498
   52CHL1  H23A 3834   1.985   4.746   8.166  3.7948  1.3633  1.1671
   52CHL1  H23B 3835   1.923   4.575   8.175  2.0273 -1.3552 -2.2783
   52CHL1   C24 3836   1.962   4.670   8.365  0.4505 -0.3818 -0.2273
   52CHL1  H24A 3837   1.959   4.572   8.418 -0.7846 -0.4313 -0.3554
   52CHL1  H24B 3838   2.038   4.733   8.415  0.2701 -0.2052 -0.1801
   52CHL1   C25 3839   1.825   4.741   8.392 -0.4098  0.6224 -0.1934
   52CHL1   H25 3840   1.819   4.830   8.327  2.3446 -0.7722 -2.5962
   52CHL1   C26 3841   1.702   4.652   8.357 -0.1272  0.3663 -0.5933
   52CHL1  H26A 3842   1.614   4.705   8.398  1.1552  1.1000  1.3811
   52CHL1  H26B 3843   1.694   4.620   8.251 -1.3414 -1.5333  0.0143
   52CHL1  H26C 3844   1.708   4.554   8.411  0.0754  0.6734 -0.0450
   52CHL1   C27 3845   1.821   4.787   8.542 -0.1443 -0.0980  1.0381
   52CHL1  H27A 3846   1.732   4.850   8.562 -0.5913 -0.3510 -0.1055
   52CHL1  H27B 3847   1.827   4.703   8.615 -0.1220 -1.7587 -0.7943
   52CHL1  H27C 3848   1.906   4.855   8.567  0.9295 -1.3969  1.0463
   53CHL1    C3 3849   4.387   0.462   7.100 -0.2878  0.1658 -0.0592
   53CHL1    H3 3850   4.401   0.573   7.099  0.4789  0.1619 -3.8589
   53CHL1    O3 3851   4.394   0.412   6.971 -0.0676 -0.4499  0.0414
   53CHL1   H3' 3852   4.484   0.428   6.943 -0.7775  1.4573 -1.3967
   53CHL1    C4 3853   4.506   0.400   7.168  0.2970  0.3037  0.2332
   53CHL1   H4A 3854   4.520   0.294   7.137  1.9472  0.7637 -0.7212
   53CHL1   H4B 3855   4.603   0.438   7.130 -0.4631  0.9413 -1.1734
   53CHL1    C5 3856   4.501   0.407   7.318 -0.5233 -0.0389 -0.7809
   53CHL1    C6 3857   4.601   0.471   7.385  0.1226  0.3700 -0.2580
   53CHL1    H6 3858   4.689   0.513   7.334 -0.7477 -1.1883 -3.2660
   53CHL1    C7 3859   4.587   0.494   7.534 -0.4741 -0.5018 -0.0407
   53CHL1   H7A 3860   4.692   0.498   7.571  0.0704  0.4819 -1.5686
   53CHL1   H7B 3861   4.551   0.599   7.547  2.2285  0.4407  0.5598
   53CHL1    C8 3862   4.499   0.401   7.607 -0.7295 -0.1322 -0.1961
   53CHL1    H8 3863   4.538   0.297   7.603  1.1997  0.5619 -0.1079
   53CHL1   C14 3864   4.471   0.445   7.749 -0.4541  0.7032 -0.0547
   53CHL1   H14 3865   4.424   0.544   7.733  0.8090  1.0082 -2.2160
   53CHL1   C15 3866   4.594   0.460   7.845  0.2052 -0.4585  0.1036
   53CHL1  H15A 3867   4.668   0.381   7.822  0.1428  0.0117 -1.9079
   53CHL1  H15B 3868   4.641   0.561   7.835 -1.5402  0.4593  0.7038
   53CHL1   C16 3869   4.547   0.435   7.988 -0.2147  0.6038  0.0128
   53CHL1  H16A 3870   4.605   0.349   8.026 -0.6336  0.1335 -0.3974
   53CHL1  H16B 3871   4.560   0.521   8.058  2.4489  1.5227 -1.4737
   53CHL1   C17 3872   4.398   0.420   7.964  0.5900 -0.3601  0.2637
   53CHL1   H17 3873   4.360   0.523   7.949 -0.2040 -0.6819 -0.0013
   53CHL1   C13 3874   4.377   0.351   7.825  0.6530 -0.2346 -0.1588
   53CHL1   C18 3875   4.427   0.208   7.844 -0.8780  0.7883  0.3608
   53CHL1  H18A 3876   4.358   0.143   7.902  0.1929 -1.7239 -1.0126
   53CHL1  H18B 3877   4.432   0.153   7.747 -1.5314 -2.2459  1.9226
   53CHL1  H18C 3878   4.524   0.192   7.895 -1.3127 -0.6801  0.7617
   53CHL1   C12 3879   4.236   0.354   7.755 -0.5385 -0.3603  0.4090
   53CHL1  H12A 3880   4.157   0.296   7.807 -1.4970 -0.8823 -1.5176
   53CHL1  H12B 3881   4.199   0.458   7.766  1.6376  0.2136  3.7921
   53CHL1   C11 3882   4.251   0.317   7.603 -0.3642  0.4232  0.2304
   53CHL1  H11A 3883   4.252   0.208   7.582 -2.5784  0.8834 -3.1099
   53CHL1  H11B 3884   4.157   0.359   7.561  0.1543  1.3573 -0.0389
   53CHL1    C9 3885   4.362   0.395   7.533  0.1382 -0.0900 -1.0262
   53CHL1    H9 3886   4.333   0.502   7.529 -2.2976 -0.7304 -3.2719
   53CHL1   C10 3887   4.372   0.360   7.384 -0.8214 -0.3412  0.7466
   53CHL1   C19 3888   4.377   0.207   7.367 -0.5141  0.5966  0.5567
   53CHL1  H19A 3889   4.372   0.172   7.261  0.6535 -1.0532  1.0039
   53CHL1  H19B 3890   4.451   0.146   7.422 -0.6315 -1.0108 -0.9321
   53CHL1  H19C 3891   4.279   0.165   7.400  1.5931 -3.1498  2.7144
   53CHL1    C1 3892   4.249   0.417   7.310 -0.2888  0.0506 -0.4552
   53CHL1   H1A 3893   4.161   0.353   7.337  0.6614 -0.3578  1.9163
   53CHL1   H1B 3894   4.223   0.514   7.357 -1.0210 -1.7953  3.3314
   53CHL1    C2 3895   4.254   0.421   7.156 -0.0620 -0.1895  0.2325
   53CHL1   H2A 3896   4.174   0.480   7.107  0.2046 -0.5161 -0.6185
   53CHL1   H2B 3897   4.230   0.316   7.131  2.6005 -1.0368  0.8802
   53CHL1   C20 3898   4.314   0.366   8.086 -0.2389 -0.3310  0.0929
   53CHL1   H20 3899   4.311   0.255   8.081 -4.0897 -0.2858 -2.4477
   53CHL1   C21 3900   4.166   0.419   8.089 -0.1433 -0.5052 -0.2503
   53CHL1  H21A 3901   4.104   0.370   8.167  0.1291  0.3318  0.5143
   53CHL1  H21B 3902   4.122   0.404   7.988 -1.8517  1.6054  0.1176
   53CHL1  H21C 3903   4.157   0.527   8.112 -0.0530  0.1504 -2.9145
   53CHL1   C22 3904   4.381   0.411   8.218  0.4153  0.5332  0.3658
   53CHL1  H22A 3905   4.487   0.375   8.220  0.0326 -0.6594  2.6602
   53CHL1  H22B 3906   4.385   0.520   8.236 -0.9603  0.6170  0.2356
   53CHL1   C23 3907   4.308   0.364   8.346  0.0481 -0.0217 -0.4485
   53CHL1  H23A 3908   4.205   0.406   8.349  0.1153  0.1659 -0.7041
   53CHL1  H23B 3909   4.301   0.254   8.336  0.3488  0.1525 -3.2309
   53CHL1   C24 3910   4.382   0.418   8.472 -0.1630  0.1592 -0.0229
   53CHL1  H24A 3911   4.460   0.341   8.491 -1.0237 -1.5993 -2.9956
   53CHL1  H24B 3912   4.437   0.512   8.447 -0.1070 -0.0432 -0.6942
   53CHL1   C25 3913   4.292   0.454   8.594 -0.2164  0.0687  0.6640
   53CHL1   H25 3914   4.213   0.526   8.565 -2.7050 -1.6098  2.8071
   53CHL1   C26 3915   4.227   0.327   8.640 -0.1078  0.7948 -0.5860
   53CHL1  H26A 3916   4.167   0.269   8.567  3.2070  0.0274 -2.9388
   53CHL1  H26B 3917   4.305   0.257   8.675 -2.6479 -0.8203  2.3465
   53CHL1  H26C 3918   4.160   0.350   8.726  0.6203  0.1694  0.1640
   53CHL1   C27 3919   4.388   0.518   8.698 -0.0659  0.3154 -0.3821
   53CHL1  H27A 3920   4.438   0.427   8.739 -0.8805 -0.6412 -1.4288
   53CHL1  H27B 3921   4.462   0.582   8.646  1.3461  0.1649  1.3351
   53CHL1  H27C 3922   4.339   0.581   8.775 -0.0318 -0.5771  0.3936
   54CHL1    C3 3923   2.969   1.847   7.157 -0.2627 -0.6629  0.0361
   54CHL1    H3 3924   2.862   1.872   7.175 -0.2633 -1.3409  1.0448
   54CHL1    O3 3925   2.989   1.872   7.018 -0.9608  0.5613 -1.0044
   54CHL1   H3' 3926   2.917   1.823   6.978 -1.2007  0.3783 -0.3589
   54CHL1    C4 3927   3.070   1.938   7.235  0.4013 -0.2734  0.8985
   54CHL1   H4A 3928   3.171   1.926   7.189 -0.1956  0.6582 -0.7401
   54CHL1   H4B 3929   3.034   2.039   7.206 -0.6968 -1.5599 -2.8519
   54CHL1    C5 3930   3.070   1.922   7.384  0.0480  0.4933  0.5125
   54CHL1    C6 3931   3.033   2.020   7.471  0.2535  0.4802  0.9693
   54CHL1    H6 3932   3.020   2.122   7.431  1.2520 -0.1358 -1.0702
   54CHL1    C7 3933   3.027   1.996   7.625  0.3116  0.6888  0.1279
   54CHL1   H7A 3934   3.058   2.083   7.685 -1.9918  0.0237  2.4512
   54CHL1   H7B 3935   2.923   1.976   7.658  0.5899  0.9702  1.2005
   54CHL1    C8 3936   3.095   1.865   7.672 -0.0685 -0.1557  0.0327
   54CHL1    H8 3937   3.205   1.883   7.670  0.3452 -2.3874 -0.3227
   54CHL1   C14 3938   3.055   1.835   7.814  0.0559  0.5292  0.3388
   54CHL1   H14 3939   2.946   1.816   7.826 -0.1341  2.2668  1.8059
   54CHL1   C15 3940   3.089   1.951   7.904  0.3302  0.1814 -0.6340
   54CHL1  H15A 3941   3.181   1.996   7.862  0.5714  1.1690  0.8621
   54CHL1  H15B 3942   3.003   2.021   7.906  0.1915  0.0389 -1.3488
   54CHL1   C16 3943   3.107   1.878   8.045 -0.8480 -1.1801 -0.3740
   54CHL1  H16A 3944   3.205   1.910   8.088 -1.8656 -1.1521  2.0849
   54CHL1  H16B 3945   3.028   1.921   8.111 -0.4791 -1.8082  0.4994
   54CHL1   C17 3946   3.094   1.727   8.021  0.1288  0.2956 -0.5937
   54CHL1   H17 3947   2.988   1.695   8.026  0.2639  0.0178  1.7957
   54CHL1   C13 3948   3.126   1.703   7.866  0.5180  0.6809  0.0503
   54CHL1   C18 3949   3.282   1.719   7.847  0.6011  0.7895 -0.5101
   54CHL1  H18A 3950   3.316   1.807   7.907 -0.7912  1.8027 -1.1708
   54CHL1  H18B 3951   3.326   1.620   7.872 -0.1000 -0.0388 -2.4124
   54CHL1  H18C 3952   3.323   1.739   7.746 -0.9008  0.8104 -1.1386
   54CHL1   C12 3953   3.062   1.585   7.789 -0.3033 -0.1370  0.6444
   54CHL1  H12A 3954   3.103   1.486   7.820  3.1030  1.0944  0.4510
   54CHL1  H12B 3955   2.953   1.594   7.807 -0.4881  2.6992 -1.2246
   54CHL1   C11 3956   3.083   1.605   7.642  0.2182 -1.1561  0.3630
   54CHL1  H11A 3957   3.194   1.601   7.640  0.2417 -0.3629 -0.0360
   54CHL1  H11B 3958   3.041   1.521   7.582  0.3206 -0.9532  0.0040
   54CHL1    C9 3959   3.045   1.750   7.584 -0.0309  0.0629 -0.1135
   54CHL1    H9 3960   2.934   1.749   7.575 -0.1189  2.6285 -0.0814
   54CHL1   C10 3961   3.086   1.780   7.435  0.4702  0.1618  0.7677
   54CHL1   C19 3962   3.244   1.760   7.412  0.5310 -0.7084  0.4532
   54CHL1  H19A 3963   3.286   1.762   7.309 -0.1417 -1.4957  0.1527
   54CHL1  H19B 3964   3.302   1.829   7.478  0.8193  0.3974 -0.9025
   54CHL1  H19C 3965   3.269   1.656   7.443 -1.6151 -1.2265  0.5674
   54CHL1    C1 3966   3.007   1.678   7.348 -0.2389 -0.0762  0.0560
   54CHL1   H1A 3967   3.044   1.575   7.368 -1.6429 -0.5448  0.3705
   54CHL1   H1B 3968   2.898   1.687   7.370 -0.1964  1.0272 -0.1222
   54CHL1    C2 3969   3.008   1.707   7.194  0.0092  0.1889  0.3135
   54CHL1   H2A 3970   2.949   1.628   7.143  0.8027  0.9814 -1.9563
   54CHL1   H2B 3971   3.113   1.687   7.162 -0.5294 -0.1605 -1.2943
   54CHL1   C20 3972   3.178   1.654   8.125 -0.2714 -0.0162  0.4166
   54CHL1   H20 3973   3.279   1.699   8.115  0.0331 -0.5618  0.9314
   54CHL1   C21 3974   3.191   1.506   8.091  0.5159  0.5460 -0.7230
   54CHL1  H21A 3975   3.215   1.478   7.986  0.0621 -0.6341 -0.5254
   54CHL1  H21B 3976   3.097   1.456   8.120  0.9403 -0.7153 -1.4366
   54CHL1  H21C 3977   3.274   1.459   8.149 -1.1484 -0.5211  0.8802
   54CHL1   C22 3978   3.130   1.674   8.271 -0.3801 -0.1683 -0.0991
   54CHL1  H22A 3979   3.146   1.783   8.288 -1.4355  0.5568 -3.1733
   54CHL1  H22B 3980   3.025   1.640   8.280 -0.7320  0.8280 -0.2821
   54CHL1   C23 3981   3.212   1.593   8.383 -0.9145 -0.1236  0.7084
   54CHL1  H23A 3982   3.234   1.490   8.349 -1.7287 -0.1199  0.1416
   54CHL1  H23B 3983   3.311   1.637   8.406 -1.0659 -0.3474  1.8696
   54CHL1   C24 3984   3.138   1.589   8.527 -0.2774  0.2358 -0.2018
   54CHL1  H24A 3985   3.115   1.695   8.551 -2.9009 -0.0359 -1.1643
   54CHL1  H24B 3986   3.037   1.547   8.512 -0.2198 -0.6943  1.7095
   54CHL1   C25 3987   3.214   1.513   8.628  0.0784 -0.1968 -0.5534
   54CHL1   H25 3988   3.237   1.411   8.591  2.8281  0.6868 -1.5186
   54CHL1   C26 3989   3.342   1.582   8.680 -0.4815  0.5643 -0.6424
   54CHL1  H26A 3990   3.415   1.590   8.596  1.1673  2.3475  0.8602
   54CHL1  H26B 3991   3.329   1.685   8.721  0.8620  1.3224 -2.0270
   54CHL1  H26C 3992   3.388   1.517   8.757 -2.4543  1.6822  1.6166
   54CHL1   C27 3993   3.114   1.516   8.746  0.5463  0.1118 -0.0882
   54CHL1  H27A 3994   3.148   1.450   8.829 -0.4528  0.7045  0.8049
   54CHL1  H27B 3995   3.107   1.619   8.786  2.6255 -0.1124  1.0418
   54CHL1  H27C 3996   3.013   1.477   8.724  0.8112  0.0915 -1.3449
   55CHL1    C3 3997   3.702   3.359   7.293  0.1705  0.1009  0.5906
   55CHL1    H3 3998   3.697   3.248   7.299 -3.4243  0.1317  0.5652
   55CHL1    O3 3999   3.753   3.411   7.174 -0.0702  0.2842  0.2979
   55CHL1   H3' 4000   3.816   3.477   7.203  0.4888 -0.3210  0.4734
   55CHL1    C4 4001   3.558   3.414   7.308  0.3494  0.1992 -1.0063
   55CHL1   H4A 4002   3.549   3.522   7.286 -0.0137  0.7659  1.5686
   55CHL1   H4B 4003   3.498   3.360   7.231  0.4935  0.5051 -1.3326
   55CHL1    C5 4004   3.497   3.386   7.439 -0.8105 -0.1658  0.3049
   55CHL1    C6 4005   3.379   3.325   7.455 -0.7668  0.3169  0.4488
   55CHL1    H6 4006   3.323   3.299   7.364  1.6818 -1.0799 -0.7582
   55CHL1    C7 4007   3.297   3.317   7.577  0.0013  0.5889 -0.3540
   55CHL1   H7A 4008   3.190   3.347   7.575 -0.8771 -1.9401  1.9871
   55CHL1   H7B 4009   3.298   3.207   7.594  0.4721  0.3095 -2.0171
   55CHL1    C8 4010   3.359   3.393   7.694  0.4175 -0.0460 -0.0820
   55CHL1    H8 4011   3.330   3.499   7.674  0.1858  0.1838  1.3588
   55CHL1   C14 4012   3.321   3.340   7.833 -0.0869 -0.6671 -0.4120
   55CHL1   H14 4013   3.372   3.242   7.845  1.4097  0.2516  1.2479
   55CHL1   C15 4014   3.176   3.298   7.861 -0.0396  0.3281  0.3210
   55CHL1  H15A 4015   3.099   3.370   7.825 -1.7923 -1.6033  0.0530
   55CHL1  H15B 4016   3.150   3.202   7.812 -0.3364  0.8875 -0.6308
   55CHL1   C16 4017   3.168   3.293   8.013  0.8899 -0.5932 -0.8740
   55CHL1  H16A 4018   3.073   3.348   8.031 -0.2189 -2.2007 -1.5727
   55CHL1  H16B 4019   3.162   3.185   8.040 -3.7660 -0.7060 -1.4513
   55CHL1   C17 4020   3.290   3.359   8.071 -0.2614 -0.0473  0.1271
   55CHL1   H17 4021   3.362   3.276   8.085 -0.3422 -0.7248 -2.8082
   55CHL1   C13 4022   3.362   3.433   7.952  0.5115 -0.7045  0.0325
   55CHL1   C18 4023   3.290   3.572   7.930 -0.1662  0.1778  0.2891
   55CHL1  H18A 4024   3.318   3.642   8.011 -0.1433  0.2587  0.2113
   55CHL1  H18B 4025   3.311   3.614   7.830 -1.8632 -1.1478 -0.6988
   55CHL1  H18C 4026   3.180   3.555   7.929  0.2785 -3.5784  0.0836
   55CHL1   C12 4027   3.520   3.436   7.949 -0.4197 -0.9368 -0.2155
   55CHL1  H12A 4028   3.566   3.496   8.030 -1.1882 -0.2266 -0.2952
   55CHL1  H12B 4029   3.556   3.332   7.965 -1.3141 -1.1812  0.3189
   55CHL1   C11 4030   3.566   3.490   7.812  0.3234 -0.6356 -0.8661
   55CHL1  H11A 4031   3.546   3.599   7.812  0.1621 -0.6576 -2.0971
   55CHL1  H11B 4032   3.676   3.483   7.809  0.2960 -0.6513 -2.9081
   55CHL1    C9 4033   3.508   3.400   7.692 -0.3652 -0.2231 -0.4454
   55CHL1    H9 4034   3.542   3.297   7.716 -1.8873  0.1312  4.1611
   55CHL1   C10 4035   3.574   3.446   7.560  0.6081 -0.0388 -0.3840
   55CHL1   C19 4036   3.576   3.604   7.557 -0.0986  0.0419 -0.4764
   55CHL1  H19A 4037   3.481   3.654   7.583  0.7941  1.7927 -0.4306
   55CHL1  H19B 4038   3.649   3.636   7.634 -1.6308  0.4062  0.8591
   55CHL1  H19C 4039   3.601   3.635   7.453 -1.1525  1.0538 -0.4522
   55CHL1    C1 4040   3.713   3.389   7.550 -0.7691 -0.2763  0.2602
   55CHL1   H1A 4041   3.778   3.446   7.620 -1.9827  1.2364  0.2088
   55CHL1   H1B 4042   3.716   3.281   7.577  1.4761 -0.4288 -0.4233
   55CHL1    C2 4043   3.782   3.411   7.411  0.1547  0.0792 -0.1528
   55CHL1   H2A 4044   3.881   3.360   7.413  1.1044  1.8526  0.6693
   55CHL1   H2B 4045   3.796   3.520   7.396 -0.4159  0.2282  0.3686
   55CHL1   C20 4046   3.257   3.433   8.202  0.0486  0.8538  0.5374
   55CHL1   H20 4047   3.185   3.516   8.188 -0.3463  0.5877  0.9592
   55CHL1   C21 4048   3.386   3.476   8.271 -0.5061 -0.8119  0.4859
   55CHL1  H21A 4049   3.352   3.532   8.361  0.2619  0.9299 -0.2672
   55CHL1  H21B 4050   3.436   3.542   8.198 -1.1544 -1.4070 -0.5321
   55CHL1  H21C 4051   3.451   3.386   8.280 -1.3116 -1.6114 -1.1909
   55CHL1   C22 4052   3.182   3.329   8.292 -0.2157 -0.2781 -0.4439
   55CHL1  H22A 4053   3.092   3.284   8.244 -0.0073  0.8995 -1.9974
   55CHL1  H22B 4054   3.249   3.243   8.312  0.4541 -0.2516 -2.3569
   55CHL1   C23 4055   3.149   3.387   8.429 -0.2269 -0.7500 -0.1074
   55CHL1  H23A 4056   3.240   3.381   8.491 -0.7008 -0.1937  0.6576
   55CHL1  H23B 4057   3.131   3.495   8.413  1.7071  0.0089  2.2723
   55CHL1   C24 4058   3.038   3.320   8.497 -0.4803 -0.0843  0.6642
   55CHL1  H24A 4059   2.942   3.364   8.463 -0.1941  0.8652  1.0631
   55CHL1  H24B 4060   3.024   3.214   8.466 -0.3419 -0.4638  1.8336
   55CHL1   C25 4061   3.052   3.333   8.651  0.4474 -0.5230  0.3677
   55CHL1   H25 4062   3.097   3.433   8.669 -0.0586  0.1115 -1.6186
   55CHL1   C26 4063   2.919   3.329   8.734 -0.2332 -0.1925 -0.6010
   55CHL1  H26A 4064   2.887   3.434   8.754  1.4284  0.6012 -1.8869
   55CHL1  H26B 4065   2.844   3.282   8.667  1.2045 -1.1022 -1.6029
   55CHL1  H26C 4066   2.936   3.281   8.833  2.3883  1.3372 -0.2078
   55CHL1   C27 4067   3.157   3.231   8.707 -0.0112  0.0328  0.1423
   55CHL1  H27A 4068   3.258   3.240   8.663 -0.7091  0.6585 -1.4141
   55CHL1  H27B 4069   3.171   3.238   8.817 -0.4617  0.7495  0.1639
   55CHL1  H27C 4070   3.111   3.131   8.694  0.5280 -0.1175 -0.6657
   56CHL1    C3 4071   3.750   0.769   6.790  0.2356  0.2921  0.8029
   56CHL1    H3 4072   3.861   0.766   6.788  0.2022 -0.8524  0.1087
   56CHL1    O3 4073   3.698   0.775   6.658  0.5777 -0.5172 -0.1985
   56CHL1   H3' 4074   3.605   0.751   6.659  0.3015  0.4517 -0.6549
   56CHL1    C4 4075   3.708   0.644   6.867 -1.0323 -0.1392 -0.5863
   56CHL1   H4A 4076   3.597   0.637   6.856 -1.1707 -0.2276  0.7453
   56CHL1   H4B 4077   3.757   0.555   6.822  1.4579  0.6510  0.4298
   56CHL1    C5 4078   3.751   0.640   7.014 -0.7292  0.4022 -0.4501
   56CHL1    C6 4079   3.826   0.539   7.063 -0.6292  0.1199 -0.1241
   56CHL1    H6 4080   3.867   0.466   6.991  2.1178  2.1789 -0.8478
   56CHL1    C7 4081   3.869   0.537   7.202  0.1294  0.6582 -0.3968
   56CHL1   H7A 4082   3.849   0.438   7.248  0.3905  2.0054  2.8882
   56CHL1   H7B 4083   3.978   0.556   7.207 -0.0880  1.7307  0.5463
   56CHL1    C8 4084   3.789   0.630   7.301  0.2158 -1.0700 -0.3778
   56CHL1    H8 4085   3.685   0.592   7.311 -0.3552  0.7620  1.3020
   56CHL1   C14 4086   3.853   0.634   7.437  0.3284  0.7983  0.2208
   56CHL1   H14 4087   3.953   0.681   7.427  0.6482 -0.2647 -2.0292
   56CHL1   C15 4088   3.880   0.502   7.517 -0.0781 -0.4558 -0.1785
   56CHL1  H15A 4089   3.789   0.439   7.508 -0.7416  0.3308  0.8279
   56CHL1  H15B 4090   3.967   0.447   7.476 -2.0345 -2.5502 -1.7451
   56CHL1   C16 4091   3.896   0.554   7.661 -0.5830  0.3987 -0.4253
   56CHL1  H16A 4092   3.840   0.492   7.735 -1.0444  1.4616  0.1405
   56CHL1  H16B 4093   4.004   0.549   7.690 -0.4138  0.7218 -0.9836
   56CHL1   C17 4094   3.857   0.705   7.666  0.2512 -0.2928 -0.6192
   56CHL1   H17 4095   3.952   0.759   7.646 -0.2984  0.9956  0.0952
   56CHL1   C13 4096   3.773   0.725   7.534  0.5921  0.5632 -0.0878
   56CHL1   C18 4097   3.619   0.686   7.558 -0.0313 -0.0747  0.9880
   56CHL1  H18A 4098   3.603   0.576   7.553 -0.4276  0.0041  0.4174
   56CHL1  H18B 4099   3.585   0.726   7.655  2.2621  1.9350  1.0532
   56CHL1  H18C 4100   3.554   0.721   7.475  0.8790 -3.6378 -1.5223
   56CHL1   C12 4101   3.771   0.867   7.490  0.0217 -0.8533  1.2955
   56CHL1  H12A 4102   3.711   0.943   7.546  0.3812 -0.1808  0.7889
   56CHL1  H12B 4103   3.878   0.897   7.494  0.2186 -1.5625  1.3498
   56CHL1   C11 4104   3.724   0.885   7.336 -0.2304  0.0923  0.1798
   56CHL1  H11A 4105   3.616   0.866   7.350 -0.3339 -1.2830 -2.1181
   56CHL1  H11B 4106   3.728   0.991   7.303 -0.5735 -0.1496 -0.6584
   56CHL1    C9 4107   3.777   0.771   7.238  1.1719  0.0414  0.4567
   56CHL1    H9 4108   3.882   0.807   7.229  1.7489 -1.3061  1.5912
   56CHL1   C10 4109   3.698   0.762   7.103 -0.2783 -0.0950  0.5446
   56CHL1   C19 4110   3.552   0.749   7.133  0.3498  0.5904  0.1309
   56CHL1  H19A 4111   3.498   0.726   7.039  0.3897 -1.8884  0.6599
   56CHL1  H19B 4112   3.544   0.661   7.199  0.2419 -1.5548 -2.5715
   56CHL1  H19C 4113   3.499   0.835   7.180 -1.8291 -0.4248 -0.3547
   56CHL1    C1 4114   3.742   0.895   7.026  0.4718  0.4156 -0.0704
   56CHL1   H1A 4115   3.698   0.989   7.065 -3.1957 -0.1555 -2.3783
   56CHL1   H1B 4116   3.853   0.894   7.038  0.4367 -0.9765  0.3911
   56CHL1    C2 4117   3.704   0.893   6.873  1.0329  0.1127  0.2297
   56CHL1   H2A 4118   3.754   0.982   6.829  0.8488  0.7541  1.2747
   56CHL1   H2B 4119   3.595   0.910   6.860  1.1974  1.4988  0.5064
   56CHL1   C20 4120   3.802   0.750   7.804  0.4536 -0.3506  0.4241
   56CHL1   H20 4121   3.703   0.704   7.826 -1.4911  3.4597  0.4284
   56CHL1   C21 4122   3.769   0.902   7.797  0.0198  0.3696 -0.2628
   56CHL1  H21A 4123   3.845   0.960   7.740 -0.9468  2.9143  0.8894
   56CHL1  H21B 4124   3.773   0.950   7.897  0.3593 -1.9705  0.9322
   56CHL1  H21C 4125   3.669   0.910   7.750  0.7605 -0.1328 -2.0184
   56CHL1   C22 4126   3.897   0.721   7.924 -0.2793 -0.5802  0.2625
   56CHL1  H22A 4127   3.942   0.619   7.928 -2.3291 -1.4990  1.5310
   56CHL1  H22B 4128   3.978   0.796   7.914 -1.7410  0.9695 -0.6244
   56CHL1   C23 4129   3.819   0.730   8.060 -0.3083 -0.8161  0.2422
   56CHL1  H23A 4130   3.742   0.811   8.057 -0.0045 -0.5325 -0.1676
   56CHL1  H23B 4131   3.766   0.633   8.064 -0.2129 -0.9304 -0.9391
   56CHL1   C24 4132   3.905   0.739   8.185  0.0097 -0.1570  0.7469
   56CHL1  H24A 4133   3.973   0.652   8.180  0.4070  0.2004 -0.2273
   56CHL1  H24B 4134   3.965   0.833   8.176  0.4557 -0.5192 -0.1932
   56CHL1   C25 4135   3.842   0.722   8.324 -0.1784  0.0083  0.6850
   56CHL1   H25 4136   3.772   0.635   8.326  0.6385 -0.7392 -1.1602
   56CHL1   C26 4137   3.955   0.695   8.424 -0.1272  0.4897  0.5545
   56CHL1  H26A 4138   4.018   0.786   8.436 -1.3740  1.7255 -1.4925
   56CHL1  H26B 4139   4.019   0.613   8.387 -0.3748  0.6232 -0.1883
   56CHL1  H26C 4140   3.912   0.667   8.523  2.3888  0.0571  1.5963
   56CHL1   C27 4141   3.756   0.839   8.371  0.6117 -0.4188  0.1337
   56CHL1  H27A 4142   3.674   0.867   8.301  1.3795 -2.4019 -1.6725
   56CHL1  H27B 4143   3.718   0.812   8.471 -0.0013 -0.4914 -0.1129
   56CHL1  H27C 4144   3.829   0.922   8.390  1.0520 -1.3831  3.2060
   57SAPC     N 4145   4.741   5.106  10.785  0.4848 -0.3107  0.4264
   57SAPC   C12 4146   4.643   5.019  10.709  0.3501 -0.8859  0.0956
   57SAPC  H12A 4147   4.667   4.915  10.725  1.4566 -0.6261  0.1931
   57SAPC  H12B 4148   4.672   5.043  10.608  0.8414  4.3085  1.2012
   57SAPC   C13 4149   4.716   5.099  10.929 -0.2440 -0.3027 -0.3820
   57SAPC  H13A 4150   4.702   4.999  10.968  1.8072 -1.0408 -1.3877
   57SAPC  H13B 4151   4.798   5.137  10.988 -0.7596 -0.7227  0.6284
   57SAPC  H13C 4152   4.623   5.145  10.958 -0.5580  0.1583 -2.0358
   57SAPC   C14 4153   4.880   5.068  10.757  0.1036  0.3051  0.1526
   57SAPC  H14A 4154   4.951   5.137  10.801  0.8622  0.5095 -1.3292
   57SAPC  H14B 4155   4.902   4.972  10.802 -1.7067 -0.6224 -0.7964
   57SAPC  H14C 4156   4.903   5.056  10.652  0.8736 -1.4247  0.4883
   57SAPC   C15 4157   4.731   5.252  10.733 -0.6461  0.4044 -0.2706
   57SAPC  H15A 4158   4.734   5.263  10.625  1.0124  2.3890 -0.0926
   57SAPC  H15B 4159   4.638   5.296  10.766 -0.2271 -0.0760  1.6884
   57SAPC  H15C 4160   4.817   5.303  10.775 -0.4018  0.8335 -1.2540
   57SAPC   C11 4161   4.492   5.045  10.735  0.4711  0.1732  0.3320
   57SAPC  H11A 4162   4.430   5.000  10.655  1.0212  0.0176 -0.0157
   57SAPC  H11B 4163   4.467   5.152  10.723  0.7275  0.4048  1.7458
   57SAPC     P 4164   4.436   4.833  10.876 -0.2160  0.2630 -0.3385
   57SAPC   O13 4165   4.569   4.772  10.866  0.1116 -0.3409 -0.0615
   57SAPC   O14 4166   4.364   4.794  10.998  0.0962  0.3145  0.0691
   57SAPC   O12 4167   4.456   4.989  10.862 -0.2238 -0.3312 -0.2420
   57SAPC   O11 4168   4.350   4.795  10.750 -0.1370 -0.3456  0.3778
   57SAPC    C1 4169   4.398   4.699  10.655 -0.2832  1.1226  0.0889
   57SAPC    HA 4170   4.468   4.750  10.586 -1.4707  2.9815  0.1678
   57SAPC    HB 4171   4.437   4.605  10.698 -2.4766 -0.2470 -0.7251
   57SAPC    C2 4172   4.273   4.649  10.565  1.2874  0.0637  0.2162
   57SAPC    HS 4173   4.311   4.575  10.491  1.3785 -0.2694  0.5919
   57SAPC   O21 4174   4.217   4.766  10.496 -0.3987 -0.1234  0.8174
   57SAPC   C21 4175   4.281   4.815  10.392 -0.4187  0.3068  0.5995
   57SAPC   O22 4176   4.370   4.763  10.332  0.1566 -0.0710 -0.0778
   57SAPC   C22 4177   4.211   4.942  10.344 -0.3230 -0.5359  0.3138
   57SAPC   H2R 4178   4.100   4.939  10.339 -0.3373  1.2150 -2.2749
   57SAPC   H2S 4179   4.251   5.019  10.412 -1.6801  1.0983 -0.6465
   57SAPC    C3 4180   4.161   4.586  10.645  0.0206  0.3611 -0.8266
   57SAPC    HX 4181   4.134   4.665  10.718  0.2373 -0.1964 -0.1426
   57SAPC    HY 4182   4.196   4.499  10.704  1.4130  1.7751  0.5241
   57SAPC   O31 4183   4.046   4.540  10.570  0.6480  0.2900 -0.1260
   57SAPC   C31 4184   3.945   4.626  10.549 -0.4086  0.6931 -0.4305
   57SAPC   O32 4185   3.951   4.736  10.590 -0.3811 -0.5182 -0.3735
   57SAPC   C32 4186   3.837   4.567  10.468 -0.8161 -0.6255 -0.8332
   57SAPC   H2X 4187   3.762   4.534  10.543  0.8008  1.4376  1.8657
   57SAPC   H2Y 4188   3.872   4.474  10.420  0.3871 -1.4827  1.5296
   57SAPC   C23 4189   4.249   4.975  10.195  0.0788  0.2739 -0.1233
   57SAPC   H3R 4190   4.214   4.881  10.147  1.0657 -2.2434  3.6177
   57SAPC   H3S 4191   4.358   4.987  10.183 -0.1543  2.5380 -0.3483
   57SAPC   C24 4192   4.188   5.102  10.135 -0.2796  0.3098  0.5690
   57SAPC   H4R 4193   4.080   5.097  10.159 -0.2002  1.8038  1.3162
   57SAPC   H4S 4194   4.200   5.083  10.026  0.5096 -1.4293  0.9116
   57SAPC   C25 4195   4.260   5.225  10.178 -0.7581 -0.3628 -0.3848
   57SAPC   H5R 4196   4.267   5.241  10.287 -1.8259 -0.7337 -0.2538
   57SAPC   C26 4197   4.318   5.318  10.095  0.1917  0.4814 -0.2738
   57SAPC   H6R 4198   4.372   5.398  10.148  0.1762 -0.5982  1.4556
   57SAPC   C27 4199   4.321   5.319   9.946 -0.4977  0.1364  0.3924
   57SAPC   H7R 4200   4.331   5.427   9.921  1.2863 -0.0409  0.2515
   57SAPC   H7S 4201   4.226   5.276   9.908 -1.8206  1.1344  2.4022
   57SAPC   C28 4202   4.436   5.252   9.888  0.2766 -0.3865  0.6554
   57SAPC   H8R 4203   4.496   5.188   9.955  1.0271 -0.3762  0.0093
   57SAPC   C29 4204   4.450   5.231   9.754  0.6525  0.4210  0.0757
   57SAPC   H9R 4205   4.531   5.170   9.712 -1.7428 -2.4147 -0.7620
   57SAPC  C210 4206   4.355   5.288   9.657 -0.0300  0.5746 -0.2976
   57SAPC  H10R 4207   4.300   5.376   9.696 -0.4690 -0.6187  1.9640
   57SAPC  H10S 4208   4.288   5.204   9.629 -0.2556 -0.4293  2.8708
   57SAPC  C211 4209   4.420   5.336   9.529 -0.0739 -0.3825  0.5227
   57SAPC  H11R 4210   4.430   5.257   9.452  1.8791  0.5601 -0.2639
   57SAPC  C212 4211   4.472   5.458   9.500 -0.0154  0.0060  0.2454
   57SAPC  H12R 4212   4.506   5.482   9.398 -0.8191  0.5034  0.0847
   57SAPC  C213 4213   4.488   5.580   9.589  0.5376  0.1191  0.3824
   57SAPC  H13R 4214   4.597   5.604   9.596  1.0274 -2.0596  1.1781
   57SAPC  H13S 4215   4.449   5.542   9.686 -2.8865 -0.3030 -1.0162
   57SAPC  C214 4216   4.415   5.705   9.549 -0.4328 -0.2985 -0.4945
   57SAPC  H14R 4217   4.354   5.706   9.458 -1.7947  1.2381  0.3828
   57SAPC  C215 4218   4.392   5.813   9.628 -0.6293  0.5995 -0.1495
   57SAPC  H15R 4219   4.325   5.893   9.591 -1.5573  0.7182  1.6469
   57SAPC  C216 4220   4.455   5.844   9.768 -0.3547 -0.1827 -0.1053
   57SAPC  H16R 4221   4.539   5.776   9.795  1.2057  0.4012 -3.0528
   57SAPC  H16S 4222   4.379   5.834   9.848 -0.9484  0.3486 -0.6002
   57SAPC  C217 4223   4.520   5.981   9.755  0.5648  0.2949  0.8283
   57SAPC  H17R 4224   4.442   6.059   9.758  1.4666  1.2133  0.9123
   57SAPC  H17S 4225   4.567   5.994   9.655 -1.7976 -0.0409 -0.3867
   57SAPC  C218 4226   4.623   6.009   9.866 -0.4940  0.3865  0.3093
   57SAPC  H18R 4227   4.721   5.961   9.849  0.6450  1.9749  2.0851
   57SAPC  H18S 4228   4.584   5.962   9.959  3.9736 -1.0851  1.6560
   57SAPC  C219 4229   4.644   6.156   9.892 -0.1730  0.0716 -0.2939
   57SAPC  H19R 4230   4.553   6.195   9.943 -0.5143  0.0919 -0.9067
   57SAPC  H19S 4231   4.659   6.202   9.792 -1.1226 -0.4659 -0.6991
   57SAPC  C220 4232   4.778   6.180   9.978  1.1367  1.0911 -0.2044
   57SAPC  H20R 4233   4.867   6.145   9.922  1.1520 -0.5364  0.7620
   57SAPC  H20S 4234   4.772   6.120  10.072 -1.2996  0.0529 -0.9495
   57SAPC  H20T 4235   4.773   6.286  10.010 -1.3402  1.1666 -0.6113
   57SAPC   C33 4236   3.768   4.662  10.376  0.5547 -0.0044 -0.8291
   57SAPC   H3X 4237   3.739   4.752  10.434  1.8678  1.3912 -2.2336
   57SAPC   H3Y 4238   3.670   4.616  10.353  0.5666 -0.6855  0.3541
   57SAPC   C34 4239   3.846   4.704  10.251  0.0081 -0.2075  0.2750
   57SAPC   H4X 4240   3.846   4.610  10.193 -1.2310 -0.0432 -0.0199
   57SAPC   H4Y 4241   3.949   4.741  10.272 -0.4786  1.7993 -0.5866
   57SAPC   C35 4242   3.791   4.810  10.160  0.4057 -0.8287 -0.2857
   57SAPC   H5X 4243   3.755   4.886  10.232  0.4004 -2.7734  1.8670
   57SAPC   H5Y 4244   3.696   4.784  10.107  0.4606  0.1926 -0.9263
   57SAPC   C36 4245   3.885   4.868  10.059 -0.0205  0.9315  0.1726
   57SAPC   H6X 4246   3.970   4.917  10.112 -0.1008  1.7427 -0.4314
   57SAPC   H6Y 4247   3.829   4.956  10.020 -1.5160  0.2732  0.7738
   57SAPC   C37 4248   3.917   4.763   9.950 -0.0133  0.3381  0.4838
   57SAPC   H7X 4249   3.823   4.731   9.901 -0.4384 -1.9216  2.5740
   57SAPC   H7Y 4250   3.981   4.683   9.993  0.2514  1.1086  1.5913
   57SAPC   C38 4251   4.003   4.825   9.840  0.5603 -0.2942 -0.4473
   57SAPC   H8X 4252   4.056   4.747   9.782  0.7183  1.1001 -2.2657
   57SAPC   H8Y 4253   4.088   4.876   9.891  1.3720 -2.0665  0.0641
   57SAPC   C39 4254   3.939   4.898   9.718 -0.0401  0.8107 -0.0400
   57SAPC   H9X 4255   3.877   4.982   9.754  0.6353  0.8557  1.0727
   57SAPC   H9Y 4256   3.863   4.824   9.683 -0.8400  0.2288  2.6990
   57SAPC  C310 4257   4.043   4.940   9.615 -0.0933  0.0102  0.0225
   57SAPC  H10X 4258   4.095   4.846   9.587  1.0479  0.8722 -0.8382
   57SAPC  H10Y 4259   4.115   5.006   9.667  1.7647 -1.8724 -0.0323
   57SAPC  C311 4260   4.000   5.002   9.484  0.2215 -0.1012 -0.4773
   57SAPC  H11X 4261   3.972   5.108   9.501  1.1116  0.2697 -1.1992
   57SAPC  H11Y 4262   3.905   4.961   9.443  0.9036 -0.4798 -1.7336
   57SAPC  C312 4263   4.109   5.002   9.375 -0.5896 -0.0916 -0.2000
   57SAPC  H12X 4264   4.136   4.901   9.337  1.4288 -0.4139  1.8548
   57SAPC  H12Y 4265   4.205   5.034   9.420 -0.1959 -0.2980 -0.8918
   57SAPC  C313 4266   4.066   5.083   9.251 -0.0790  0.1829  0.4283
   57SAPC  H13X 4267   4.058   5.188   9.285  0.8143  0.0401  1.1036
   57SAPC  H13Y 4268   3.968   5.048   9.212  0.3545  0.1837 -0.7248
   57SAPC  C314 4269   4.170   5.074   9.134 -0.7506 -0.8651  0.1167
   57SAPC  H14X 4270   4.128   5.108   9.036 -0.7727  1.2408  0.8179
   57SAPC  H14Y 4271   4.190   4.966   9.114  0.4974 -0.2369 -2.5739
   57SAPC  C315 4272   4.296   5.145   9.170 -1.4313 -0.2614  1.3589
   57SAPC  H15X 4273   4.327   5.113   9.272 -1.1586  1.2674  1.7825
   57SAPC  H15Y 4274   4.281   5.255   9.178  0.7207  0.2945 -1.0387
   57SAPC  C316 4275   4.411   5.133   9.063 -0.1415  0.0032  0.4786
   57SAPC  H16X 4276   4.395   5.196   8.973  1.7699  1.9384  1.4132
   57SAPC  H16Y 4277   4.425   5.027   9.032 -2.5158 -0.2739  0.1876
   57SAPC  C317 4278   4.544   5.178   9.125  0.1397 -0.4160 -0.5902
   57SAPC  H17X 4279   4.628   5.134   9.068  0.1627 -2.9594  1.2261
   57SAPC  H17Y 4280   4.559   5.143   9.229 -0.6952  1.6050  0.2719
   57SAPC  C318 4281   4.574   5.333   9.148  0.0802 -0.2705 -0.2809
   57SAPC  H18X 4282   4.575   5.375   9.045 -0.6001  1.5730  0.4080
   57SAPC  H18Y 4283   4.678   5.350   9.182  0.5699  1.0458 -2.2456
   57SAPC  H18Z 4284   4.512   5.393   9.218 -0.8995  0.8168 -1.9949
   58SAPC     N 4285   4.748   3.523  10.950 -0.0533  0.2292  0.2953
   58SAPC   C12 4286   4.839   3.488  10.834  0.2417 -0.0767  0.4997
   58SAPC  H12A 4287   4.799   3.534  10.746  1.2336 -1.5125 -0.7527
   58SAPC  H12B 4288   4.835   3.381  10.818  0.7002 -0.4886  2.7060
   58SAPC   C13 4289   4.802   3.468  11.073  0.9058 -0.3202 -0.4988
   58SAPC  H13A 4290   4.903   3.496  11.097  0.6396  0.5357 -0.3503
   58SAPC  H13B 4291   4.744   3.503  11.157  1.5153 -1.8972  0.6168
   58SAPC  H13C 4292   4.797   3.361  11.084  0.5276 -0.2495  0.0645
   58SAPC   C14 4293   4.716   3.666  10.952  0.1182  0.3643 -0.1266
   58SAPC  H14A 4294   4.689   3.687  10.849 -2.7945 -2.2652 -0.0437
   58SAPC  H14B 4295   4.636   3.686  11.022 -0.2652  1.7188 -0.8970
   58SAPC  H14C 4296   4.798   3.733  10.975 -0.4163  0.8172  0.4871
   58SAPC   C15 4297   4.610   3.461  10.922 -0.2942  0.1354  0.0032
   58SAPC  H15A 4298   4.620   3.355  10.908  1.8414  0.4048 -0.8781
   58SAPC  H15B 4299   4.536   3.488  10.996 -1.2903 -1.5161 -0.3345
   58SAPC  H15C 4300   4.573   3.506  10.830 -0.7721 -1.6221 -0.6976
   58SAPC   C11 4301   4.990   3.527  10.838 -0.1051  0.3052 -0.2742
   58SAPC  H11A 4302   5.042   3.486  10.749 -0.5449  0.4614 -0.6031
   58SAPC  H11B 4303   5.030   3.472  10.926 -1.6375  2.7749  2.1753
   58SAPC     P 4304   4.986   3.759  10.732 -0.1084 -0.2292  0.1240
   58SAPC   O13 4305   4.835   3.773  10.703 -0.6289 -0.5458 -0.5425
   58SAPC   O14 4306   5.057   3.889  10.750  0.0041 -0.3786  0.1314
   58SAPC   O12 4307   5.011   3.670  10.860  0.4909  0.6209 -0.1660
   58SAPC   O11 4308   5.050   3.679  10.611  0.2071  0.2093 -0.7344
   58SAPC    C1 4309   5.190   3.673  10.593  0.0386  0.1538 -0.2622
   58SAPC    HA 4310   5.241   3.663  10.691  1.2997 -0.5918 -0.9726
   58SAPC    HB 4311   5.211   3.575  10.545  2.2519  1.3337 -1.8553
   58SAPC    C2 4312   5.245   3.786  10.505  0.3868  0.1259  0.7479
   58SAPC    HS 4313   5.202   3.880  10.548 -0.2070  1.2478 -2.0403
   58SAPC   O21 4314   5.207   3.759  10.364  0.3928 -0.0710 -0.3146
   58SAPC   C21 4315   5.109   3.830  10.313 -0.0334  0.0731  0.7667
   58SAPC   O22 4316   5.062   3.932  10.359 -0.0157 -0.2867 -0.2508
   58SAPC   C22 4317   5.066   3.763  10.180 -0.0711  0.2236 -0.1762
   58SAPC   H2R 4318   5.138   3.681  10.158  1.1113  1.8071 -2.6306
   58SAPC   H2S 4319   4.965   3.727  10.207  1.4468 -2.7941  2.0546
   58SAPC    C3 4320   5.400   3.796  10.508  0.0238  0.1015 -0.1637
   58SAPC    HX 4321   5.410   3.833  10.612  1.6371 -1.1147  0.1436
   58SAPC    HY 4322   5.435   3.883  10.448 -2.3361  1.6600  0.5964
   58SAPC   O31 4323   5.459   3.668  10.491 -0.1126  0.4620  0.2887
   58SAPC   C31 4324   5.494   3.645  10.365  0.4800  0.1007 -0.0775
   58SAPC   O32 4325   5.540   3.719  10.283  0.4720  0.2477 -0.0418
   58SAPC   C32 4326   5.454   3.506  10.338  0.1326  0.1653  0.4617
   58SAPC   H2X 4327   5.359   3.479  10.388 -0.6615  0.5253 -0.8184
   58SAPC   H2Y 4328   5.533   3.446  10.389 -0.8621 -2.5862 -1.0394
   58SAPC   C23 4329   5.054   3.861  10.061 -0.5844 -0.1247 -0.4884
   58SAPC   H3R 4330   4.975   3.937  10.074 -0.9579 -0.7879  1.4870
   58SAPC   H3S 4331   5.027   3.803   9.971 -2.0873 -0.2469  0.0222
   58SAPC   C24 4332   5.191   3.927  10.022  0.3101 -0.5998 -0.4570
   58SAPC   H4R 4333   5.208   4.010  10.093 -0.3612 -1.8860  1.2876
   58SAPC   H4S 4334   5.176   3.972   9.922  0.9320 -0.8451 -0.6731
   58SAPC   C25 4335   5.312   3.848  10.008  0.1853  0.0638  0.0340
   58SAPC   H5R 4336   5.367   3.837  10.103  0.5439  0.2290 -0.1501
   58SAPC   C26 4337   5.354   3.780   9.903  0.9600 -0.4593  0.0461
   58SAPC   H6R 4338   5.458   3.743   9.905  1.8641  1.9506  1.0663
   58SAPC   C27 4339   5.284   3.773   9.772 -0.0558 -0.0964  0.6904
   58SAPC   H7R 4340   5.201   3.846   9.762 -0.9742 -1.2126 -0.0997
   58SAPC   H7S 4341   5.230   3.677   9.776 -0.6448  0.2349  0.7239
   58SAPC   C28 4342   5.378   3.807   9.658 -0.0245  0.2612  0.0906
   58SAPC   H8R 4343   5.457   3.880   9.681 -1.0504  1.3726  0.1604
   58SAPC   C29 4344   5.371   3.759   9.536  0.2491 -0.2484  0.5917
   58SAPC   H9R 4345   5.446   3.799   9.466  1.3995  1.2368  2.5766
   58SAPC  C210 4346   5.262   3.670   9.480  0.5792 -0.2229 -0.2528
   58SAPC  H10R 4347   5.222   3.712   9.385 -2.1586  1.5162  1.5276
   58SAPC  H10S 4348   5.170   3.667   9.542 -1.1689 -1.4160 -2.7291
   58SAPC  C211 4349   5.330   3.534   9.471  0.6183 -0.7202 -0.0631
   58SAPC  H11R 4350   5.366   3.489   9.564 -1.1555 -0.5415  0.7403
   58SAPC  C212 4351   5.352   3.468   9.354 -1.0625  0.2794 -0.1625
   58SAPC  H12R 4352   5.408   3.373   9.363 -2.0106 -0.0920  3.2272
   58SAPC  C213 4353   5.299   3.511   9.216 -0.3650 -0.5172 -1.0189
   58SAPC  H13R 4354   5.349   3.606   9.186  0.2504 -0.5096 -0.0026
   58SAPC  H13S 4355   5.193   3.543   9.227  0.4525  2.2750 -0.4638
   58SAPC  C214 4356   5.316   3.411   9.113  0.3812 -0.0329  0.5561
   58SAPC  H14R 4357   5.319   3.302   9.129  0.9608 -0.3600 -1.4520
   58SAPC  C215 4358   5.321   3.447   8.985  0.1103  0.0418  0.7738
   58SAPC  H15R 4359   5.315   3.361   8.917 -0.7381 -0.0385  0.9368
   58SAPC  C216 4360   5.304   3.582   8.914  0.2997 -0.4290 -0.4157
   58SAPC  H16R 4361   5.280   3.665   8.984 -0.5305  1.3021 -2.6330
   58SAPC  H16S 4362   5.221   3.583   8.840  0.4951  0.7526 -0.6436
   58SAPC  C217 4363   5.429   3.634   8.836  0.2023 -0.3392  0.2175
   58SAPC  H17R 4364   5.430   3.582   8.738  2.8249  0.5703 -0.3305
   58SAPC  H17S 4365   5.511   3.599   8.903 -0.3587  2.0866  2.3231
   58SAPC  C218 4366   5.442   3.782   8.823 -0.8338  0.3546 -0.0625
   58SAPC  H18R 4367   5.350   3.841   8.805 -0.6408  0.1073 -2.0945
   58SAPC  H18S 4368   5.505   3.801   8.733 -2.0656 -0.2815 -1.1029
   58SAPC  C219 4369   5.506   3.833   8.955 -0.4927  0.6356 -0.1189
   58SAPC  H19R 4370   5.608   3.790   8.965 -0.4405  0.7829 -0.0208
   58SAPC  H19S 4371   5.435   3.803   9.034  0.4006 -2.0983 -0.2356
   58SAPC  C220 4372   5.535   3.984   8.949  0.9329 -0.0085  0.1013
   58SAPC  H20R 4373   5.449   4.047   8.917  0.1619 -0.7778  0.6397
   58SAPC  H20S 4374   5.611   4.001   8.870  1.4203  2.0227  0.9525
   58SAPC  H20T 4375   5.577   4.026   9.042  1.6776  3.3413 -1.5945
   58SAPC   C33 4376   5.448   3.467  10.189 -0.7338  0.1171  0.3481
   58SAPC   H3X 4377   5.551   3.483  10.148 -0.8494 -0.6527 -0.2592
   58SAPC   H3Y 4378   5.384   3.543  10.138 -2.6171  0.0752  2.5038
   58SAPC   C34 4379   5.391   3.332  10.177 -0.4719  0.3085  0.9493
   58SAPC   H4X 4380   5.291   3.335  10.225 -0.7125 -1.3480  0.6024
   58SAPC   H4Y 4381   5.444   3.258  10.241 -0.7951 -0.3879  0.4202
   58SAPC   C35 4382   5.367   3.270  10.037 -0.8677 -0.8783 -0.3309
   58SAPC   H5X 4383   5.318   3.171  10.050  0.5341 -1.6102 -0.3907
   58SAPC   H5Y 4384   5.463   3.234   9.995  0.8437  1.9598  0.8306
   58SAPC   C36 4385   5.297   3.367   9.940  0.4702  0.5512  0.2464
   58SAPC   H6X 4386   5.360   3.456   9.922  0.2661  0.1513 -3.0971
   58SAPC   H6Y 4387   5.199   3.402   9.980  1.0829  1.4894  0.9721
   58SAPC   C37 4388   5.266   3.301   9.806 -0.5258 -0.5587 -0.1757
   58SAPC   H7X 4389   5.227   3.376   9.734 -1.6781 -1.7539 -0.8465
   58SAPC   H7Y 4390   5.181   3.230   9.819  0.1256 -1.1264  1.0894
   58SAPC   C38 4391   5.385   3.229   9.746 -0.3399 -0.5102  0.1307
   58SAPC   H8X 4392   5.423   3.144   9.807  0.3017 -0.0375  0.4056
   58SAPC   H8Y 4393   5.474   3.289   9.716  0.1138 -1.5410 -0.6532
   58SAPC   C39 4394   5.346   3.171   9.606  0.6328  0.5160 -0.3190
   58SAPC   H9X 4395   5.294   3.245   9.541 -0.1059 -0.3421 -0.7197
   58SAPC   H9Y 4396   5.284   3.081   9.622  0.0091  1.0771  0.4981
   58SAPC  C310 4397   5.474   3.140   9.529 -0.2652 -0.8853  0.2845
   58SAPC  H10X 4398   5.545   3.100   9.604  0.0497 -1.7565 -0.4583
   58SAPC  H10Y 4399   5.518   3.237   9.498 -2.0957 -0.4235 -1.0233
   58SAPC  C311 4400   5.468   3.038   9.414 -0.2434 -0.0733 -0.0951
   58SAPC  H11X 4401   5.383   3.070   9.351  1.5125  4.4329 -0.5625
   58SAPC  H11Y 4402   5.449   2.948   9.478 -1.4587  1.9828  2.6691
   58SAPC  C312 4403   5.597   3.044   9.329 -0.1418  0.8693 -0.6832
   58SAPC  H12X 4404   5.674   3.016   9.404 -0.8095 -0.3885 -0.4361
   58SAPC  H12Y 4405   5.633   3.140   9.288  4.0516  0.0455  0.5228
   58SAPC  C313 4406   5.606   2.933   9.226 -0.0023 -0.1664 -0.2679
   58SAPC  H13X 4407   5.521   2.960   9.159 -2.0348 -1.6994  1.5215
   58SAPC  H13Y 4408   5.577   2.841   9.281 -2.1120  0.3947 -0.3545
   58SAPC  C314 4409   5.737   2.940   9.149 -0.6089 -1.1044 -0.1793
   58SAPC  H14X 4410   5.815   2.910   9.223 -1.9728 -0.5602  1.5367
   58SAPC  H14Y 4411   5.762   3.040   9.107 -2.8914 -0.3986 -0.0078
   58SAPC  C315 4412   5.735   2.847   9.035  0.3392 -0.4723  0.6446
   58SAPC  H15X 4413   5.627   2.834   9.014  0.5031  0.0257 -0.6376
   58SAPC  H15Y 4414   5.761   2.741   9.054 -0.3326 -0.4282  1.8841
   58SAPC  C316 4415   5.785   2.915   8.901  0.1337 -0.2159  0.0938
   58SAPC  H16X 4416   5.715   3.001   8.888 -0.0771 -0.1144  1.6848
   58SAPC  H16Y 4417   5.772   2.839   8.821  2.6128 -0.0495 -0.5537
   58SAPC  C317 4418   5.930   2.955   8.911  0.3144 -0.1855 -0.1003
   58SAPC  H17X 4419   5.991   2.870   8.949  1.1008  1.1543  1.8082
   58SAPC  H17Y 4420   5.954   3.037   8.982  1.1833 -0.4443 -0.0836
   58SAPC  C318 4421   5.986   3.011   8.780  0.0840  0.0809 -0.1165
   58SAPC  H18X 4422   5.919   3.094   8.751  0.6468  0.6239  0.1041
   58SAPC  H18Y 4423   5.991   2.936   8.698 -0.4026 -0.5459  0.4099
   58SAPC  H18Z 4424   6.093   3.040   8.791  0.4226 -1.2016  0.2752
   59SAPC     N 4425   0.803   6.073  11.340 -0.5081 -0.1415  0.0642
   59SAPC   C12 4426   0.853   6.085  11.194 -0.2974 -0.2491  0.8431
   59SAPC  H12A 4427   0.885   5.989  11.156  2.1600  0.0737  1.8576
   59SAPC  H12B 4428   0.948   6.137  11.187 -0.3896 -0.2368 -0.4932
   59SAPC   C13 4429   0.917   6.009  11.413 -0.1192  0.0610 -0.2870
   59SAPC  H13A 4430   0.928   5.906  11.382  1.0480 -0.2502  1.0642
   59SAPC  H13B 4431   1.008   6.065  11.396 -0.0831 -0.2432 -1.1599
   59SAPC  H13C 4432   0.903   6.007  11.520  1.5835 -1.3940 -0.0369
   59SAPC   C14 4433   0.766   6.202  11.398 -0.1456 -0.1942  0.8925
   59SAPC  H14A 4434   0.689   6.248  11.338 -0.2208 -1.1353  0.2497
   59SAPC  H14B 4435   0.731   6.200  11.500 -1.8568 -0.5438  0.3256
   59SAPC  H14C 4436   0.852   6.267  11.390 -0.8528  0.7534  0.8830
   59SAPC   C15 4437   0.679   5.981  11.352 -0.0949  0.1147  1.0155
   59SAPC  H15A 4438   0.710   5.878  11.349  2.2424  0.7581 -2.1014
   59SAPC  H15B 4439   0.617   5.991  11.440 -1.0953  1.4462  0.2001
   59SAPC  H15C 4440   0.615   6.001  11.267 -0.1859  2.2029  1.5370
   59SAPC   C11 4441   0.761   6.165  11.098  0.3141 -0.5170 -0.2714
   59SAPC  H11A 4442   0.801   6.178  10.995  0.7536 -0.1391 -0.0577
   59SAPC  H11B 4443   0.747   6.269  11.134 -0.3452 -0.2573 -1.2495
   59SAPC     P 4444   0.601   5.986  10.994  0.5083 -0.0907  0.0988
   59SAPC   O13 4445   0.725   5.923  10.958 -0.2568  0.3220 -0.6890
   59SAPC   O14 4446   0.506   5.894  11.054  0.3801  0.8236  0.2233
   59SAPC   O12 4447   0.629   6.113  11.086 -0.1561  0.1156  0.1108
   59SAPC   O11 4448   0.539   6.056  10.861 -0.6115  0.0337  0.5141
   59SAPC    C1 4449   0.578   6.190  10.822 -0.3730  0.1814 -0.4761
   59SAPC    HA 4450   0.552   6.264  10.901 -2.0126  1.0377 -1.7549
   59SAPC    HB 4451   0.687   6.193  10.799  0.2852  0.4858  2.3036
   59SAPC    C2 4452   0.493   6.234  10.704 -1.4150  0.9277  0.1568
   59SAPC    HS 4453   0.391   6.192  10.717 -0.6325 -0.4606  2.2365
   59SAPC   O21 4454   0.556   6.173  10.582 -0.6008  0.2461 -0.4118
   59SAPC   C21 4455   0.473   6.132  10.492 -0.0572  0.2507  0.2286
   59SAPC   O22 4456   0.352   6.133  10.495  0.1554 -0.4025 -0.7967
   59SAPC   C22 4457   0.550   6.066  10.378  0.5872 -0.4417 -0.2448
   59SAPC   H2R 4458   0.651   6.109  10.361  0.6175 -0.3540  0.1552
   59SAPC   H2S 4459   0.567   5.966  10.425  0.6079 -0.2511  0.1606
   59SAPC    C3 4460   0.488   6.384  10.680 -0.2950  0.2726  0.2071
   59SAPC    HX 4461   0.453   6.424  10.777 -1.9804 -1.9554  0.6191
   59SAPC    HY 4462   0.408   6.391  10.603 -0.2414 -0.4518  0.0725
   59SAPC   O31 4463   0.610   6.442  10.645  0.0680  0.0367  0.2229
   59SAPC   C31 4464   0.642   6.465  10.521 -0.7224 -0.4338  0.1173
   59SAPC   O32 4465   0.566   6.458  10.427 -0.0517 -0.1000  0.5063
   59SAPC   C32 4466   0.793   6.487  10.500  0.2353  0.1715  0.7329
   59SAPC   H2X 4467   0.857   6.402  10.531 -1.1152 -2.1123 -2.1874
   59SAPC   H2Y 4468   0.830   6.568  10.567  1.0155  2.5117 -2.2717
   59SAPC   C23 4469   0.467   6.054  10.243  0.5569  0.1891 -0.2981
   59SAPC   H3R 4470   0.361   6.026  10.265  1.1704 -2.1835 -0.1124
   59SAPC   H3S 4471   0.507   5.970  10.182 -0.4597 -0.3159 -0.2951
   59SAPC   C24 4472   0.463   6.184  10.165  0.0272  0.0872 -0.0088
   59SAPC   H4R 4473   0.569   6.220  10.165  0.2985 -0.6050  1.6619
   59SAPC   H4S 4474   0.401   6.258  10.219  1.0800  0.3823  0.8462
   59SAPC   C25 4475   0.402   6.163  10.027  0.2150 -0.3042 -0.5002
   59SAPC   H5R 4476   0.298   6.197  10.023  0.6509  1.4526  1.4003
   59SAPC   C26 4477   0.459   6.118   9.915 -0.7703  0.0640  0.3038
   59SAPC   H6R 4478   0.405   6.113   9.819  0.3017  0.2070 -0.3200
   59SAPC   C27 4479   0.600   6.059   9.917  0.7291 -0.1110  0.5934
   59SAPC   H7R 4480   0.654   6.065  10.014  2.3725  2.3100 -0.3877
   59SAPC   H7S 4481   0.665   6.113   9.845  2.1022 -2.3628  0.0407
   59SAPC   C28 4482   0.586   5.923   9.853  0.0388 -0.0046 -0.0800
   59SAPC   H8R 4483   0.561   5.837   9.917 -0.9446 -0.0791 -0.5480
   59SAPC   C29 4484   0.585   5.890   9.722  0.4566 -0.4540  0.2557
   59SAPC   H9R 4485   0.566   5.785   9.697 -2.1127  0.2548 -1.1223
   59SAPC  C210 4486   0.605   5.996   9.613 -0.0725  0.5211 -0.1039
   59SAPC  H10R 4487   0.569   6.095   9.649  1.3265  0.3227  2.0032
   59SAPC  H10S 4488   0.542   5.968   9.526  0.7417  0.1304 -0.5755
   59SAPC  C211 4489   0.743   5.996   9.569  0.2860 -0.4897  0.3015
   59SAPC  H11R 4490   0.817   6.014   9.649  2.4724 -1.1484 -1.4429
   59SAPC  C212 4491   0.802   5.958   9.452  0.4228 -0.5063 -0.4384
   59SAPC  H12R 4492   0.911   5.969   9.446  0.6960 -1.3879  1.9969
   59SAPC  C213 4493   0.733   5.910   9.327  0.3486 -0.0072  0.5590
   59SAPC  H13R 4494   0.644   5.973   9.305  0.9518  1.2487  1.6474
   59SAPC  H13S 4495   0.687   5.810   9.344 -0.3617  0.3140  0.5801
   59SAPC  C214 4496   0.817   5.904   9.200 -0.0131  0.0879 -0.6648
   59SAPC  H14R 4497   0.921   5.940   9.204 -0.4841  1.3709  1.7808
   59SAPC  C215 4498   0.774   5.870   9.078  0.4161  0.6615  0.2269
   59SAPC  H15R 4499   0.844   5.851   8.996  1.0005 -0.6165  1.0020
   59SAPC  C216 4500   0.633   5.840   9.044 -0.3878 -0.1140  0.3551
   59SAPC  H16R 4501   0.569   5.833   9.134  0.1801 -2.0816  0.6394
   59SAPC  H16S 4502   0.620   5.739   8.999 -0.2252 -0.6449  1.4827
   59SAPC  C217 4503   0.577   5.933   8.933  0.0171 -0.1246 -0.4102
   59SAPC  H17R 4504   0.638   5.919   8.842  2.1418  3.8151  0.1702
   59SAPC  H17S 4505   0.584   6.041   8.960  0.5546  0.0071 -1.0608
   59SAPC  C218 4506   0.435   5.891   8.885 -1.2003 -0.3375 -0.1573
   59SAPC  H18R 4507   0.365   5.886   8.971  0.2281 -0.5786  1.0277
   59SAPC  H18S 4508   0.437   5.792   8.833 -1.8014 -0.3012 -0.2536
   59SAPC  C219 4509   0.374   5.996   8.799  0.6424 -0.0576  0.9079
   59SAPC  H19R 4510   0.290   5.975   8.729  1.6431 -0.0846 -0.3270
   59SAPC  H19S 4511   0.456   6.026   8.730 -2.0359  2.1533 -1.6022
   59SAPC  C220 4512   0.335   6.115   8.880 -0.2694 -0.6727 -0.8791
   59SAPC  H20R 4513   0.282   6.083   8.973  0.4135  1.0601  0.1593
   59SAPC  H20S 4514   0.273   6.186   8.821 -0.8786  1.5288  2.1464
   59SAPC  H20T 4515   0.431   6.170   8.895  0.1268 -1.3795 -0.8122
   59SAPC   C33 4516   0.832   6.522  10.357 -0.6647 -0.1978  0.8070
   59SAPC   H3X 4517   0.939   6.550  10.359 -0.3587 -1.3242  0.8273
   59SAPC   H3Y 4518   0.785   6.613  10.314 -0.7057 -0.7544 -0.3944
   59SAPC   C34 4519   0.815   6.405  10.259  0.1170 -0.5710 -0.1314
   59SAPC   H4X 4520   0.707   6.390  10.239 -0.1130 -0.2361  0.8221
   59SAPC   H4Y 4521   0.853   6.309  10.300  2.8556  0.4930  0.0455
   59SAPC   C35 4522   0.877   6.448  10.128 -0.3392 -0.0485  0.1423
   59SAPC   H5X 4523   0.986   6.431  10.144 -0.5331 -0.6902  0.8833
   59SAPC   H5Y 4524   0.859   6.556  10.110  0.1121 -0.2370 -1.5895
   59SAPC   C36 4525   0.835   6.365  10.005  0.0602 -0.1385 -0.8007
   59SAPC   H6X 4526   0.724   6.363  10.017  0.0917 -0.1708 -0.5140
   59SAPC   H6Y 4527   0.878   6.263  10.001  0.3834  0.0241 -1.6838
   59SAPC   C37 4528   0.875   6.433   9.872  0.1617  0.2654  0.3389
   59SAPC   H7X 4529   0.985   6.453   9.867  0.3819 -0.9636  0.0214
   59SAPC   H7Y 4530   0.819   6.529   9.870 -1.1717 -0.4816 -1.2023
   59SAPC   C38 4531   0.829   6.353   9.752  0.2195  0.0677  0.4283
   59SAPC   H8X 4532   0.729   6.307   9.771  1.5033 -2.5990  1.1637
   59SAPC   H8Y 4533   0.899   6.269   9.732  0.9536  0.8901 -0.5260
   59SAPC   C39 4534   0.804   6.445   9.631 -0.0957 -0.0717 -0.0749
   59SAPC   H9X 4535   0.899   6.495   9.602 -1.1895  0.6078 -2.8195
   59SAPC   H9Y 4536   0.727   6.523   9.649 -1.5633 -1.6746  0.8925
   59SAPC  C310 4537   0.753   6.367   9.506  0.5212 -0.5775  0.5227
   59SAPC  H10X 4538   0.657   6.313   9.524  0.5414 -0.8827 -0.2404
   59SAPC  H10Y 4539   0.830   6.292   9.480  0.2647  0.3908 -3.7303
   59SAPC  C311 4540   0.730   6.464   9.390  0.4781 -0.4778 -0.3986
   59SAPC  H11X 4541   0.826   6.519   9.376  1.1799 -1.1690  1.4045
   59SAPC  H11Y 4542   0.651   6.532   9.427  1.0299 -1.2553  2.4334
   59SAPC  C312 4543   0.673   6.396   9.268 -0.0395  0.6528 -0.4218
   59SAPC  H12X 4544   0.579   6.350   9.305 -0.3349 -0.2480 -2.2020
   59SAPC  H12Y 4545   0.744   6.328   9.217  1.2181  2.0908 -0.6754
   59SAPC  C313 4546   0.636   6.497   9.154  0.4227 -0.2678 -0.1372
   59SAPC  H13X 4547   0.732   6.521   9.103  1.2354 -0.4540  1.2352
   59SAPC  H13Y 4548   0.591   6.587   9.201 -1.4738 -0.6802 -1.0929
   59SAPC  C314 4549   0.537   6.438   9.050  0.7292 -0.7741  0.3017
   59SAPC  H14X 4550   0.440   6.411   9.096  1.0378 -2.3655  0.0618
   59SAPC  H14Y 4551   0.571   6.344   9.001 -2.3323 -1.4044 -0.8084
   59SAPC  C315 4552   0.504   6.534   8.937 -0.3115 -0.5673  0.9099
   59SAPC  H15X 4553   0.608   6.559   8.905 -0.4974 -0.6572  0.2081
   59SAPC  H15Y 4554   0.453   6.626   8.973 -1.0301 -0.3925 -0.4933
   59SAPC  C316 4555   0.416   6.486   8.820 -0.6958  0.1419 -0.4826
   59SAPC  H16X 4556   0.319   6.452   8.864 -0.4290 -1.5217 -1.0953
   59SAPC  H16Y 4557   0.463   6.397   8.773 -0.6764 -0.7096  1.0497
   59SAPC  C317 4558   0.382   6.589   8.712 -0.4091 -0.4383  0.1060
   59SAPC  H17X 4559   0.468   6.644   8.669 -1.4520 -0.0570 -1.5657
   59SAPC  H17Y 4560   0.335   6.674   8.765  3.8805  1.7756  0.8320
   59SAPC  C318 4561   0.313   6.520   8.593  0.2766  0.0074  0.9584
   59SAPC  H18X 4562   0.303   6.597   8.514 -2.3950 -0.9636  0.2450
   59SAPC  H18Y 4563   0.208   6.496   8.620 -0.7807  0.7421 -2.1338
   59SAPC  H18Z 4564   0.362   6.427   8.558  0.1538 -0.3217  1.6435
   60SAPC     N 4565   3.186   5.614  10.807  0.0037  0.5782  0.3578
   60SAPC   C12 4566   3.319   5.560  10.863 -0.4281 -0.3490 -0.4486
   60SAPC  H12A 4567   3.378   5.644  10.897  0.5988 -0.6158 -1.4902
   60SAPC  H12B 4568   3.377   5.524  10.779 -0.7975  3.2051 -2.4145
   60SAPC   C13 4569   3.112   5.681  10.914 -0.2949 -0.5085  0.3252
   60SAPC  H13A 4570   3.163   5.772  10.943  3.0047 -1.8423 -0.8217
   60SAPC  H13B 4571   3.018   5.717  10.876 -0.7787 -2.2331 -0.2104
   60SAPC  H13C 4572   3.091   5.621  11.002 -1.0061 -0.4276  0.2195
   60SAPC   C14 4573   3.205   5.702  10.685 -0.0469  0.4567  0.3850
   60SAPC  H14A 4574   3.246   5.651  10.599 -0.8672  2.7704 -1.5199
   60SAPC  H14B 4575   3.108   5.740  10.654  0.2576 -0.5862 -2.1313
   60SAPC  H14C 4576   3.270   5.786  10.706 -0.2958  0.9150 -0.6182
   60SAPC   C15 4577   3.110   5.495  10.757  0.3951 -0.0565 -0.4698
   60SAPC  H15A 4578   3.005   5.516  10.739 -0.2485 -1.2403  1.5563
   60SAPC  H15B 4579   3.165   5.458  10.672 -0.6886 -0.4393 -1.0302
   60SAPC  H15C 4580   3.118   5.417  10.831 -1.4151  0.5782  0.4595
   60SAPC   C11 4581   3.310   5.458  10.976  0.2093  0.2672  0.0689
   60SAPC  H11A 4582   3.229   5.489  11.046  0.0504 -2.4341  1.1938
   60SAPC  H11B 4583   3.402   5.457  11.039  0.2070 -1.2482  0.0728
   60SAPC     P 4584   3.371   5.237  10.858  0.3834  0.3847  0.0335
   60SAPC   O13 4585   3.503   5.252  10.926  0.3948 -0.0397  0.4395
   60SAPC   O14 4586   3.312   5.098  10.850  0.3559 -0.6796 -0.5392
   60SAPC   O12 4587   3.268   5.331  10.925  0.5076 -0.3302 -0.3540
   60SAPC   O11 4588   3.386   5.296  10.710  0.4455 -0.1163 -0.1004
   60SAPC    C1 4589   3.507   5.257  10.644  0.2845  0.0190  0.2324
   60SAPC    HA 4590   3.598   5.266  10.708  0.5393  1.6799 -0.3061
   60SAPC    HB 4591   3.493   5.156  10.600  0.1413 -0.3364  1.0638
   60SAPC    C2 4592   3.542   5.355  10.521  0.4079 -0.6820 -0.8232
   60SAPC    HS 4593   3.544   5.462  10.549  2.5046 -1.0782  0.7657
   60SAPC   O21 4594   3.450   5.324  10.412 -0.2493 -0.3560  0.1756
   60SAPC   C21 4595   3.331   5.386  10.410  0.2283  0.1508  0.3303
   60SAPC   O22 4596   3.302   5.482  10.480 -0.3920  0.1023 -0.1714
   60SAPC   C22 4597   3.243   5.327  10.302 -0.5416  0.8144  0.7830
   60SAPC   H2R 4598   3.273   5.220  10.291 -2.4952  0.1681  1.3173
   60SAPC   H2S 4599   3.139   5.321  10.340 -1.0193 -1.1654 -0.6714
   60SAPC    C3 4600   3.690   5.327  10.479  0.0657 -0.1895 -0.4455
   60SAPC    HX 4601   3.704   5.217  10.469  1.3249  0.0920 -2.1706
   60SAPC    HY 4602   3.744   5.371  10.566 -0.7567 -1.6137  0.8497
   60SAPC   O31 4603   3.722   5.390  10.354  0.1859 -0.5077  0.6020
   60SAPC   C31 4604   3.854   5.373  10.311  0.2305  0.2336 -0.1819
   60SAPC   O32 4605   3.938   5.313  10.373 -0.2497 -0.7431 -0.4738
   60SAPC   C32 4606   3.865   5.430  10.165  1.0908 -0.7330 -0.5103
   60SAPC   H2X 4607   3.769   5.478  10.137  0.8099 -1.8434 -1.4784
   60SAPC   H2Y 4608   3.891   5.346  10.097 -0.6880 -3.0309  1.4923
   60SAPC   C23 4609   3.259   5.400  10.162  0.0727 -0.1854  0.2441
   60SAPC   H3R 4610   3.356   5.365  10.122  0.0851  0.2797 -0.1446
   60SAPC   H3S 4611   3.260   5.508  10.188  0.4048 -0.4439  1.3453
   60SAPC   C24 4612   3.139   5.368  10.068  0.3148  0.0289 -0.7223
   60SAPC   H4R 4613   3.041   5.400  10.107 -0.7969 -2.0801 -1.6346
   60SAPC   H4S 4614   3.119   5.260  10.052 -0.3865 -0.2744  1.8784
   60SAPC   C25 4615   3.156   5.441   9.943  0.0074  0.1202 -0.1719
   60SAPC   H5R 4616   3.169   5.550   9.952 -0.5139  0.3072 -1.4465
   60SAPC   C26 4617   3.148   5.381   9.817  0.7928 -0.4193  0.7062
   60SAPC   H6R 4618   3.172   5.446   9.732 -0.3913  0.2732  0.8687
   60SAPC   C27 4619   3.121   5.237   9.784  0.3075 -0.5225 -0.7953
   60SAPC   H7R 4620   3.025   5.228   9.728  0.2889 -1.2900 -0.6535
   60SAPC   H7S 4621   3.100   5.163   9.864 -0.3646 -1.6743 -1.9962
   60SAPC   C28 4622   3.238   5.181   9.707 -0.7005 -0.5914  0.4444
   60SAPC   H8R 4623   3.310   5.119   9.763  0.3003 -1.3282 -1.5684
   60SAPC   C29 4624   3.251   5.189   9.571  0.5948  0.2904  0.0936
   60SAPC   H9R 4625   3.350   5.164   9.529  0.4091  1.0805 -0.8352
   60SAPC  C210 4626   3.157   5.259   9.470 -0.0768 -0.1316 -0.4174
   60SAPC  H10R 4627   3.220   5.317   9.399  0.2460 -0.9049 -0.7688
   60SAPC  H10S 4628   3.098   5.334   9.528  0.0401  1.2163 -1.9457
   60SAPC  C211 4629   3.076   5.171   9.385  0.3439  0.1850 -0.1582
   60SAPC  H11R 4630   3.026   5.092   9.444  0.6606 -1.2778 -1.7542
   60SAPC  C212 4631   3.049   5.165   9.251  0.0546 -0.0774 -0.1332
   60SAPC  H12R 4632   2.986   5.080   9.223  1.3496 -0.2985 -2.6305
   60SAPC  C213 4633   3.106   5.249   9.141 -0.2350 -0.1159 -0.3620
   60SAPC  H13R 4634   3.203   5.292   9.174 -0.0014 -1.5311  0.9260
   60SAPC  H13S 4635   3.042   5.340   9.137  0.7852  0.6542  0.3849
   60SAPC  C214 4636   3.119   5.181   9.007  0.0731  0.2908  0.0489
   60SAPC  H14R 4637   3.198   5.107   8.984 -0.4679  0.1400 -1.4117
   60SAPC  C215 4638   3.032   5.197   8.905 -0.0702  0.1462 -0.7373
   60SAPC  H15R 4639   3.054   5.149   8.808  1.7337 -1.7527  0.5175
   60SAPC  C216 4640   2.904   5.276   8.923  0.1107  0.8903  0.9673
   60SAPC  H16R 4641   2.910   5.381   8.888 -1.9581  0.0585 -2.4057
   60SAPC  H16S 4642   2.856   5.261   9.022 -1.2198  0.4435  0.2911
   60SAPC  C217 4643   2.798   5.210   8.826  0.0175  0.7644 -0.2473
   60SAPC  H17R 4644   2.699   5.253   8.852  1.5398  3.3761  1.7345
   60SAPC  H17S 4645   2.804   5.102   8.854  0.3371  0.6864 -0.6105
   60SAPC  C218 4646   2.832   5.245   8.680  0.4989  0.4446  0.1576
   60SAPC  H18R 4647   2.932   5.204   8.656  0.1176 -0.2259 -0.3113
   60SAPC  H18S 4648   2.837   5.355   8.666  2.1408  0.2755 -0.8713
   60SAPC  C219 4649   2.724   5.179   8.589 -0.2402  0.1369 -0.0973
   60SAPC  H19R 4650   2.694   5.243   8.503  0.0592 -1.1634 -1.2165
   60SAPC  H19S 4651   2.634   5.155   8.650 -0.0557 -0.2993  0.0047
   60SAPC  C220 4652   2.784   5.056   8.529 -0.0840 -0.1313  0.3145
   60SAPC  H20R 4653   2.875   5.084   8.473  0.9702 -1.9716  0.9769
   60SAPC  H20S 4654   2.705   5.026   8.457 -0.4834  5.3214 -1.9843
   60SAPC  H20T 4655   2.814   4.979   8.604  0.7591 -1.0491 -0.9181
   60SAPC   C33 4656   3.975   5.540  10.158  0.0846 -0.0758 -0.0557
   60SAPC   H3X 4657   4.061   5.518  10.225  1.2468  0.1039 -1.4216
   60SAPC   H3Y 4658   3.939   5.644  10.174 -2.1160 -0.7859 -0.1299
   60SAPC   C34 4659   4.045   5.551  10.024 -0.2548 -0.1065  0.0417
   60SAPC   H4X 4660   4.080   5.449   9.994 -0.0015  0.1361 -0.5012
   60SAPC   H4Y 4661   4.127   5.626  10.019  1.1836 -1.6773 -1.6358
   60SAPC   C35 4662   3.960   5.590   9.907 -0.3083  0.5408  0.1280
   60SAPC   H5X 4663   3.932   5.696   9.920  0.9867  1.0718 -1.1264
   60SAPC   H5Y 4664   3.867   5.529   9.908  0.3041 -0.4172  1.2404
   60SAPC   C36 4665   4.038   5.587   9.773 -0.0143  0.4781  0.0445
   60SAPC   H6X 4666   4.069   5.483   9.748  0.2958  0.3831  0.8022
   60SAPC   H6Y 4667   4.130   5.649   9.764  0.1495  0.4406  1.3651
   60SAPC   C37 4668   3.944   5.651   9.664 -0.6209 -0.0205  0.6135
   60SAPC   H7X 4669   3.900   5.745   9.703 -1.1946 -0.3212  0.7003
   60SAPC   H7Y 4670   3.858   5.582   9.644 -1.0749 -0.8530  4.5937
   60SAPC   C38 4671   4.001   5.687   9.522 -0.8540  0.9313  0.9033
   60SAPC   H8X 4672   4.065   5.777   9.532 -0.3635  0.3915  3.2859
   60SAPC   H8Y 4673   3.919   5.722   9.455 -0.7147 -0.8530 -0.2709
   60SAPC   C39 4674   4.079   5.574   9.450 -0.4153 -0.6532  0.1928
   60SAPC   H9X 4675   3.999   5.501   9.426 -0.7646 -0.0819 -0.4103
   60SAPC   H9Y 4676   4.161   5.527   9.508 -0.8899 -1.8974 -0.1223
   60SAPC  C310 4677   4.123   5.628   9.306 -0.6766  0.4514 -0.0769
   60SAPC  H10X 4678   4.197   5.711   9.312  0.0340  0.0186 -2.1144
   60SAPC  H10Y 4679   4.037   5.679   9.256 -0.2913  0.4908 -0.7072
   60SAPC  C311 4680   4.182   5.525   9.209  0.0380  0.2854  0.1569
   60SAPC  H11X 4681   4.099   5.455   9.181  0.7139 -0.8848  1.0015
   60SAPC  H11Y 4682   4.266   5.473   9.260  1.5754  2.5154  0.0236
   60SAPC  C312 4683   4.232   5.599   9.089  0.4777  0.7245 -0.2046
   60SAPC  H12X 4684   4.322   5.657   9.118  0.2285  0.1809  1.8302
   60SAPC  H12Y 4685   4.149   5.669   9.063 -0.1327 -0.3969 -1.3822
   60SAPC  C313 4686   4.248   5.508   8.971 -0.3591  0.5602 -0.3963
   60SAPC  H13X 4687   4.150   5.459   8.950  1.1552 -2.7532 -0.4219
   60SAPC  H13Y 4688   4.313   5.418   8.985 -2.0368 -0.8809 -1.4406
   60SAPC  C314 4689   4.294   5.585   8.845  0.1280  0.2829  0.5783
   60SAPC  H14X 4690   4.220   5.665   8.825 -0.0208 -0.1149 -0.5252
   60SAPC  H14Y 4691   4.286   5.516   8.758  0.6577  2.4997 -1.3407
   60SAPC  C315 4692   4.440   5.627   8.849  0.2996 -0.2423 -0.3673
   60SAPC  H15X 4693   4.484   5.614   8.951  0.1759  0.2661 -0.2442
   60SAPC  H15Y 4694   4.434   5.735   8.821 -4.8411 -0.0686  0.5849
   60SAPC  C316 4695   4.538   5.552   8.757 -0.0432  0.1658 -0.2137
   60SAPC  H16X 4696   4.512   5.572   8.650 -4.2196 -1.2052  0.3670
   60SAPC  H16Y 4697   4.538   5.442   8.774  1.4903  0.0320 -0.8459
   60SAPC  C317 4698   4.683   5.606   8.774  0.5413 -0.7907 -0.1839
   60SAPC  H17X 4699   4.713   5.589   8.880  0.1571  1.6364  0.3609
   60SAPC  H17Y 4700   4.683   5.716   8.759  1.0197 -0.5150  1.5839
   60SAPC  C318 4701   4.798   5.544   8.687 -0.0720 -0.2512  1.1569
   60SAPC  H18X 4702   4.794   5.434   8.694  2.9705 -0.4751  0.8862
   60SAPC  H18Y 4703   4.896   5.571   8.733 -1.2920  0.7640  3.3154
   60SAPC  H18Z 4704   4.786   5.571   8.580  0.2833 -1.4916  0.7960
   61SAPC     N 4705   3.904   4.877  11.102 -0.2375  0.4812  0.9121
   61SAPC   C12 4706   3.831   4.826  10.980  0.2209 -0.2757  0.1408
   61SAPC  H12A 4707   3.843   4.909  10.912  0.8514  0.8962  1.6310
   61SAPC  H12B 4708   3.727   4.817  11.007  0.1426  2.0328  0.7886
   61SAPC   C13 4709   3.862   5.015  11.131 -0.3302  0.2294 -0.3712
   61SAPC  H13A 4710   3.881   5.087  11.052 -0.7418  0.2680 -0.4390
   61SAPC  H13B 4711   3.758   5.019  11.161 -0.2933 -0.1826 -0.1914
   61SAPC  H13C 4712   3.918   5.060  11.212 -2.1544 -0.9469  1.6259
   61SAPC   C14 4713   3.877   4.792  11.224 -0.7439  0.8679  0.6292
   61SAPC  H14A 4714   3.923   4.833  11.312  0.1067 -0.1894  0.6976
   61SAPC  H14B 4715   3.776   4.767  11.254 -0.0639 -2.4045  0.6214
   61SAPC  H14C 4716   3.935   4.702  11.208  2.5900  2.9096  0.2266
   61SAPC   C15 4717   4.049   4.872  11.074  0.2158  0.7050 -0.1425
   61SAPC  H15A 4718   4.069   4.928  10.984  0.1694  2.1985  0.7456
   61SAPC  H15B 4719   4.106   4.926  11.148  0.7962  0.0061 -0.0763
   61SAPC  H15C 4720   4.077   4.770  11.054 -1.4341  0.2974 -0.5692
   61SAPC   C11 4721   3.866   4.692  10.906  0.4126  0.1662  0.4481
   61SAPC  H11A 4722   3.965   4.716  10.861  0.7024  0.6955  1.3424
   61SAPC  H11B 4723   3.793   4.695  10.823  0.3216 -1.2018  0.4679
   61SAPC     P 4724   3.710   4.525  11.039 -0.2084 -0.0807 -0.1715
   61SAPC   O13 4725   3.734   4.406  11.132  0.4994  0.1538 -0.6711
   61SAPC   O14 4726   3.627   4.630  11.102  0.1289  0.1168  0.2186
   61SAPC   O12 4727   3.854   4.582  10.993 -0.8253 -0.5433 -0.0698
   61SAPC   O11 4728   3.659   4.469  10.907 -0.4845  0.3391  0.4768
   61SAPC    C1 4729   3.518   4.462  10.866 -0.4319  0.0789 -0.4430
   61SAPC    HA 4730   3.449   4.482  10.952  0.2012  1.7760 -0.2797
   61SAPC    HB 4731   3.504   4.541  10.789  0.8387 -1.1111 -1.9562
   61SAPC    C2 4732   3.478   4.325  10.801  0.0551 -0.3242  0.0824
   61SAPC    HS 4733   3.490   4.252  10.884 -0.4324  0.7777  1.1525
   61SAPC   O21 4734   3.582   4.287  10.701 -0.9002  0.1690 -0.1040
   61SAPC   C21 4735   3.570   4.162  10.645  0.1939 -0.0719 -0.9945
   61SAPC   O22 4736   3.481   4.083  10.676 -0.2816 -0.3712 -0.9654
   61SAPC   C22 4737   3.698   4.148  10.557  0.7209 -0.5248  0.1637
   61SAPC   H2R 4738   3.782   4.213  10.590  1.6649 -1.4190 -0.4205
   61SAPC   H2S 4739   3.728   4.041  10.568  1.0974 -0.3906  0.4853
   61SAPC    C3 4740   3.337   4.336  10.735  0.0321 -0.7643  0.1302
   61SAPC    HX 4741   3.276   4.352  10.826  0.2880  2.2596 -0.1340
   61SAPC    HY 4742   3.298   4.241  10.694  3.3584 -1.7925 -1.0363
   61SAPC   O31 4743   3.321   4.448  10.649 -0.0391  0.2495  0.0346
   61SAPC   C31 4744   3.315   4.411  10.516 -0.0923  0.3510 -0.1976
   61SAPC   O32 4745   3.337   4.296  10.484 -0.6103  0.5351  0.1038
   61SAPC   C32 4746   3.309   4.542  10.430 -0.3675 -0.4841  0.1540
   61SAPC   H2X 4747   3.403   4.596  10.452 -0.1756 -2.1296  4.2287
   61SAPC   H2Y 4748   3.224   4.598  10.476 -0.3915 -1.0357  0.7837
   61SAPC   C23 4749   3.660   4.160  10.403  0.0020  0.5600 -0.8457
   61SAPC   H3R 4750   3.757   4.162  10.349  0.3567 -1.1668 -0.3124
   61SAPC   H3S 4751   3.611   4.257  10.380 -1.0044  0.0082 -1.1396
   61SAPC   C24 4752   3.577   4.045  10.344 -0.3270  0.1920 -0.1769
   61SAPC   H4R 4753   3.495   4.015  10.412 -0.5529 -0.4139 -0.7187
   61SAPC   H4S 4754   3.642   3.955  10.333 -3.9647 -2.8748  1.4378
   61SAPC   C25 4755   3.510   4.066  10.208  0.3396  0.0775 -0.1431
   61SAPC   H5R 4756   3.439   4.150  10.208 -0.8568 -0.8914 -0.7544
   61SAPC   C26 4757   3.528   3.993  10.092  0.1115  0.3907 -0.1984
   61SAPC   H6R 4758   3.453   4.001  10.012 -2.8366 -0.7083  2.2539
   61SAPC   C27 4759   3.631   3.885  10.071  0.3478 -0.1936  0.2156
   61SAPC   H7R 4760   3.596   3.829   9.981 -0.5744 -2.2777  1.7720
   61SAPC   H7S 4761   3.637   3.805  10.149 -0.7818  0.5608  1.0985
   61SAPC   C28 4762   3.775   3.935  10.063 -0.2959 -0.4923  0.3787
   61SAPC   H8R 4763   3.812   3.979  10.157  0.7888 -1.5721  0.4791
   61SAPC   C29 4764   3.851   3.943   9.950 -0.8653  0.2200  0.4311
   61SAPC   H9R 4765   3.953   3.984   9.946 -0.6415 -0.3931 -0.3905
   61SAPC  C210 4766   3.809   3.901   9.818 -0.5207  0.9066  0.0452
   61SAPC  H10R 4767   3.839   3.963   9.730 -1.3318 -0.2254 -1.0562
   61SAPC  H10S 4768   3.698   3.905   9.808 -0.5994 -0.7564  0.0278
   61SAPC  C211 4769   3.846   3.754   9.793  0.5534 -0.0597  0.2045
   61SAPC  H11R 4770   3.888   3.702   9.881 -0.8960 -0.4281  0.7034
   61SAPC  C212 4771   3.822   3.676   9.683 -0.4422 -0.1711 -0.4376
   61SAPC  H12R 4772   3.858   3.573   9.669  0.8294 -0.2772  2.7391
   61SAPC  C213 4773   3.760   3.732   9.557  0.3137 -0.1195 -0.1184
   61SAPC  H13R 4774   3.781   3.840   9.543  0.1604 -0.0731  0.0054
   61SAPC  H13S 4775   3.650   3.717   9.565  0.2798  0.4009  0.4661
   61SAPC  C214 4776   3.811   3.660   9.428  0.4653 -0.0042 -0.2310
   61SAPC  H14R 4777   3.814   3.551   9.441  1.6436  0.1348  0.8724
   61SAPC  C215 4778   3.854   3.710   9.315  0.2790  0.3304  0.3202
   61SAPC  H15R 4779   3.895   3.639   9.241 -0.2994 -1.3069  1.5152
   61SAPC  C216 4780   3.874   3.858   9.272 -0.4673  0.2423  0.6033
   61SAPC  H16R 4781   3.799   3.918   9.327  0.2192  0.1951  1.6108
   61SAPC  H16S 4782   3.853   3.881   9.165 -0.5784 -0.2213  0.5246
   61SAPC  C217 4783   4.014   3.903   9.307  0.0235 -0.2827  0.2015
   61SAPC  H17R 4784   4.093   3.831   9.276  3.3945  1.7305  3.1836
   61SAPC  H17S 4785   4.017   3.915   9.418 -1.7080  2.5389  0.0435
   61SAPC  C218 4786   4.053   4.040   9.243  0.0948  0.4949  0.4729
   61SAPC  H18R 4787   3.996   4.123   9.288 -0.1948  0.8257 -0.4826
   61SAPC  H18S 4788   4.035   4.035   9.133  0.5916  0.8303  0.3731
   61SAPC  C219 4789   4.203   4.065   9.248 -0.0157  0.0688  0.1206
   61SAPC  H19R 4790   4.258   4.001   9.176  2.0669  0.5277  1.2283
   61SAPC  H19S 4791   4.242   4.038   9.348 -0.8755  2.0176  1.0420
   61SAPC  C220 4792   4.236   4.207   9.208  0.2942 -0.0969  0.1832
   61SAPC  H20R 4793   4.170   4.277   9.263  0.4132  0.4633 -0.3811
   61SAPC  H20S 4794   4.203   4.215   9.103 -1.9190 -0.4203  0.8055
   61SAPC  H20T 4795   4.345   4.232   9.213  0.2651  0.0078  0.2980
   61SAPC   C33 4796   3.294   4.524  10.281  0.0298  0.0782 -0.0795
   61SAPC   H3X 4797   3.199   4.475  10.249  1.3963  0.2258 -5.2730
   61SAPC   H3Y 4798   3.371   4.452  10.247 -0.2973 -0.7968  0.9488
   61SAPC   C34 4799   3.310   4.644  10.196  0.1597 -0.5579  0.2944
   61SAPC   H4X 4800   3.399   4.705  10.224  1.6433 -2.2452 -0.5031
   61SAPC   H4Y 4801   3.233   4.721  10.218  1.6003  1.8479 -2.3941
   61SAPC   C35 4802   3.308   4.617  10.044 -0.4029 -0.2205 -0.0677
   61SAPC   H5X 4803   3.204   4.601  10.010 -0.4895 -0.7254  0.4204
   61SAPC   H5Y 4804   3.373   4.532  10.016 -1.7894 -1.2723 -0.1775
   61SAPC   C36 4805   3.364   4.731   9.968 -0.5628 -0.4729  0.3158
   61SAPC   H6X 4806   3.468   4.739  10.008 -0.6879 -0.5855  0.6638
   61SAPC   H6Y 4807   3.310   4.826   9.986 -1.9464 -1.2726  0.4908
   61SAPC   C37 4808   3.373   4.702   9.813 -0.5502  0.2759 -0.5500
   61SAPC   H7X 4809   3.269   4.692   9.775 -0.9962 -0.0332  0.6886
   61SAPC   H7Y 4810   3.419   4.602   9.796  0.7211  1.2021 -3.1271
   61SAPC   C38 4811   3.442   4.814   9.734 -0.1984  0.0782 -0.0999
   61SAPC   H8X 4812   3.538   4.848   9.777  0.2986 -0.1101 -1.0384
   61SAPC   H8Y 4813   3.361   4.890   9.731 -1.7328 -1.5093 -1.4666
   61SAPC   C39 4814   3.462   4.778   9.584 -0.0096 -0.9320 -0.7030
   61SAPC   H9X 4815   3.374   4.724   9.543 -1.1032  1.2267 -1.3564
   61SAPC   H9Y 4816   3.554   4.716   9.576  0.0466 -1.3996  2.3286
   61SAPC  C310 4817   3.467   4.904   9.498  0.0129  0.6835  0.1778
   61SAPC  H10X 4818   3.545   4.974   9.536 -0.3085  2.3143 -1.9875
   61SAPC  H10Y 4819   3.366   4.949   9.509  1.1890  2.7971  4.8842
   61SAPC  C311 4820   3.507   4.865   9.357 -0.0763 -0.0487  0.0009
   61SAPC  H11X 4821   3.453   4.771   9.333  1.1875  0.0141 -3.7424
   61SAPC  H11Y 4822   3.617   4.846   9.360  0.0241  0.3821 -0.7130
   61SAPC  C312 4823   3.488   4.981   9.250  0.6003 -0.0509 -0.0123
   61SAPC  H12X 4824   3.559   5.062   9.277 -0.4467  0.3393  1.7805
   61SAPC  H12Y 4825   3.385   5.020   9.262  0.9346  0.4909  1.3335
   61SAPC  C313 4826   3.514   4.930   9.109  0.0010 -0.3390 -0.3034
   61SAPC  H13X 4827   3.614   4.884   9.119 -0.4401 -1.3245 -0.3452
   61SAPC  H13Y 4828   3.500   5.011   9.034 -2.2931  0.0023  0.3937
   61SAPC  C314 4829   3.405   4.830   9.064 -0.2128 -0.0068 -0.5010
   61SAPC  H14X 4830   3.310   4.886   9.058 -0.3675 -0.1599  0.4818
   61SAPC  H14Y 4831   3.385   4.749   9.137 -3.7358 -1.7542 -3.1185
   61SAPC  C315 4832   3.449   4.756   8.934  0.1483  0.5043 -0.5238
   61SAPC  H15X 4833   3.388   4.663   8.939  1.2438 -0.2171  3.0044
   61SAPC  H15Y 4834   3.556   4.732   8.955  0.1585 -0.0877 -1.1950
   61SAPC  C316 4835   3.433   4.849   8.818 -0.3655  1.0196  0.0742
   61SAPC  H16X 4836   3.484   4.798   8.735 -2.0003  1.5121 -1.3045
   61SAPC  H16Y 4837   3.495   4.940   8.834  1.8191 -0.4298  0.2777
   61SAPC  C317 4838   3.287   4.879   8.768 -0.0603 -0.5151  0.0188
   61SAPC  H17X 4839   3.222   4.910   8.853 -0.0746  0.6694 -0.4045
   61SAPC  H17Y 4840   3.249   4.784   8.725 -1.0086 -0.8867  1.5935
   61SAPC  C318 4841   3.273   4.985   8.655 -0.4048  0.4199  0.0132
   61SAPC  H18X 4842   3.169   5.013   8.628 -1.3801 -2.5456  0.4257
   61SAPC  H18Y 4843   3.320   4.943   8.563 -1.3826 -1.2100  0.2298
   61SAPC  H18Z 4844   3.329   5.078   8.680  0.3126  0.5476 -1.9208
   62SAPC     N 4845   1.828   3.905  10.862  0.1394  0.4123 -0.4220
   62SAPC   C12 4846   1.756   3.949  10.743  0.2294  0.2905  0.6535
   62SAPC  H12A 4847   1.685   3.875  10.710 -0.6077  1.3524 -0.0311
   62SAPC  H12B 4848   1.817   3.963  10.654 -0.7919 -0.4536 -0.1918
   62SAPC   C13 4849   1.860   3.761  10.863 -0.2046 -0.0461  0.2518
   62SAPC  H13A 4850   1.892   3.729  10.764 -0.8124  0.8165 -0.2317
   62SAPC  H13B 4851   1.936   3.759  10.940  0.3044  0.4036 -0.2319
   62SAPC  H13C 4852   1.776   3.704  10.900  0.0918  0.7833  2.3324
   62SAPC   C14 4853   1.951   3.981  10.868 -0.3332 -0.2694 -0.3737
   62SAPC  H14A 4854   1.932   4.085  10.891  0.8343 -0.4012  1.3540
   62SAPC  H14B 4855   2.013   3.959  10.954  0.6875 -0.9033 -1.2461
   62SAPC  H14C 4856   2.003   3.989  10.774 -0.1323  0.8243 -0.1885
   62SAPC   C15 4857   1.765   3.941  10.991  0.6931 -0.3940  0.1256
   62SAPC  H15A 4858   1.737   4.045  10.991 -1.3448 -0.7933 -2.6497
   62SAPC  H15B 4859   1.669   3.891  10.999 -0.3902  1.4834 -0.5257
   62SAPC  H15C 4860   1.828   3.925  11.077  2.7209  1.3277 -0.9629
   62SAPC   C11 4861   1.672   4.080  10.760 -0.4588  0.5090  0.0746
   62SAPC  H11A 4862   1.595   4.068  10.840 -0.2180 -1.9759  0.0233
   62SAPC  H11B 4863   1.624   4.091  10.660  2.3535 -0.1838 -1.4497
   62SAPC     P 4864   1.839   4.274  10.681  0.4127 -0.5971  0.0444
   62SAPC   O13 4865   1.751   4.336  10.580  0.4222  0.4173  0.6646
   62SAPC   O14 4866   1.922   4.369  10.755  0.0436  0.4684 -0.4500
   62SAPC   O12 4867   1.756   4.195  10.783 -0.0177  0.1752  0.1165
   62SAPC   O11 4868   1.938   4.172  10.612  0.3641  0.1399  0.1556
   62SAPC    C1 4869   1.928   4.143  10.478  0.6320  0.2037 -0.1629
   62SAPC    HA 4870   1.939   4.033  10.462 -0.6210  0.2382 -1.4858
   62SAPC    HB 4871   1.831   4.170  10.432  0.4867 -0.6369 -0.3745
   62SAPC    C2 4872   2.034   4.216  10.387 -0.2526  0.2648  0.8375
   62SAPC    HS 4873   2.020   4.167  10.289 -0.6524 -1.1278  1.5712
   62SAPC   O21 4874   2.165   4.198  10.439 -0.0191  0.4715  0.2876
   62SAPC   C21 4875   2.213   4.077  10.415  0.1227 -0.9131 -0.0573
   62SAPC   O22 4876   2.156   3.988  10.354  0.6769 -0.5602 -0.0509
   62SAPC   C22 4877   2.342   4.061  10.481  0.5639 -1.0167 -0.0534
   62SAPC   H2R 4878   2.385   4.150  10.531 -1.1334 -1.0190  1.5107
   62SAPC   H2S 4879   2.327   3.978  10.553 -2.8982 -0.9007 -0.4681
   62SAPC    C3 4880   2.006   4.367  10.361  0.1701 -0.0671  0.3854
   62SAPC    HX 4881   2.029   4.427  10.451  0.6120  0.9055 -0.3704
   62SAPC    HY 4882   1.896   4.373  10.346  0.0200 -1.8276  0.5119
   62SAPC   O31 4883   2.077   4.402  10.237 -0.2097 -0.1653 -0.3863
   62SAPC   C31 4884   2.053   4.526  10.204  1.0300  0.2169  0.5736
   62SAPC   O32 4885   1.964   4.594  10.254  0.1215 -0.1736  0.1473
   62SAPC   C32 4886   2.132   4.559  10.080  0.8169  0.3245 -0.3318
   62SAPC   H2X 4887   2.225   4.498  10.078 -0.3935 -1.6373  0.3640
   62SAPC   H2Y 4888   2.157   4.667  10.089 -0.0517  0.5473 -0.4997
   62SAPC   C23 4889   2.448   4.012  10.383  0.5334  0.2649  0.5343
   62SAPC   H3R 4890   2.404   3.941  10.311 -0.0024 -1.4273  2.4206
   62SAPC   H3S 4891   2.518   3.952  10.445 -1.4143 -2.0284  0.6625
   62SAPC   C24 4892   2.517   4.126  10.315 -0.2118 -0.3179  0.4545
   62SAPC   H4R 4893   2.595   4.084  10.249 -0.5907  1.2908 -1.0883
   62SAPC   H4S 4894   2.565   4.184  10.397  0.5119 -0.4723  0.1463
   62SAPC   C25 4895   2.421   4.219  10.241  0.2397  0.1207  0.1544
   62SAPC   H5R 4896   2.375   4.300  10.301  1.3201  1.9467 -1.3579
   62SAPC   C26 4897   2.387   4.206  10.111  0.1981 -0.0570  0.0602
   62SAPC   H6R 4898   2.323   4.279  10.059  0.6842 -1.9181 -3.4701
   62SAPC   C27 4899   2.427   4.091  10.018 -0.2061  0.0574  0.1787
   62SAPC   H7R 4900   2.404   3.996  10.072  2.0688  0.8098  2.6993
   62SAPC   H7S 4901   2.538   4.086  10.028 -0.2406 -1.9685  0.0965
   62SAPC   C28 4902   2.382   4.102   9.877  0.0778 -0.3113  0.7982
   62SAPC   H8R 4903   2.289   4.048   9.851 -0.3576  0.7966 -0.0513
   62SAPC   C29 4904   2.428   4.189   9.787  0.2042 -0.0435 -0.1530
   62SAPC   H9R 4905   2.389   4.172   9.685  1.0117 -1.1834 -0.3051
   62SAPC  C210 4906   2.534   4.296   9.802  0.0301  1.2203  0.3604
   62SAPC  H10R 4907   2.631   4.262   9.761 -1.0199 -0.5652 -0.7888
   62SAPC  H10S 4908   2.557   4.312   9.910 -1.6365 -1.2087  1.1684
   62SAPC  C211 4909   2.472   4.427   9.755 -0.1638  1.1033  0.1805
   62SAPC  H11R 4910   2.397   4.467   9.826  0.1581  0.8541  0.6668
   62SAPC  C212 4911   2.484   4.488   9.635 -0.3278 -0.2380 -0.0757
   62SAPC  H12R 4912   2.427   4.579   9.612 -2.6322 -1.8451 -1.0739
   62SAPC  C213 4913   2.556   4.430   9.512 -0.8531  0.0474  0.2413
   62SAPC  H13R 4914   2.647   4.379   9.549 -0.8137 -0.3063 -0.3228
   62SAPC  H13S 4915   2.595   4.512   9.448  0.3594 -1.1885 -0.6839
   62SAPC  C214 4916   2.471   4.332   9.434 -0.0126 -1.1745  0.6806
   62SAPC  H14R 4917   2.376   4.298   9.479 -1.4280  2.3835  0.7611
   62SAPC  C215 4918   2.510   4.276   9.320 -0.7318 -0.0806  0.6364
   62SAPC  H15R 4919   2.442   4.201   9.277  0.2352 -1.0334  0.7547
   62SAPC  C216 4920   2.644   4.304   9.248  0.0051 -0.3575 -0.4195
   62SAPC  H16R 4921   2.679   4.213   9.197  1.1262  0.4209 -1.0851
   62SAPC  H16S 4922   2.716   4.308   9.332 -0.5961  1.8167  0.0813
   62SAPC  C217 4923   2.661   4.428   9.158  0.4184  0.0662 -0.7758
   62SAPC  H17R 4924   2.769   4.446   9.139  0.4756 -1.6062 -2.2764
   62SAPC  H17S 4925   2.610   4.516   9.202  2.1714  0.2453  1.0348
   62SAPC  C218 4926   2.590   4.422   9.016  0.8304  0.3697 -0.2263
   62SAPC  H18R 4927   2.568   4.523   8.975  0.0915  0.6729  0.8824
   62SAPC  H18S 4928   2.486   4.386   9.032  1.3089 -0.2536  1.8360
   62SAPC  C219 4929   2.653   4.336   8.912 -0.0260  0.3001 -0.1857
   62SAPC  H19R 4930   2.623   4.230   8.925 -1.8578  0.6005 -1.5349
   62SAPC  H19S 4931   2.764   4.343   8.919  0.0897  0.4055 -1.6963
   62SAPC  C220 4932   2.616   4.373   8.765 -0.2376 -0.3030 -0.7043
   62SAPC  H20R 4933   2.678   4.311   8.697  2.3981  1.9667 -0.5613
   62SAPC  H20S 4934   2.641   4.481   8.750 -0.0046 -0.4542 -1.4139
   62SAPC  H20T 4935   2.507   4.365   8.747 -0.8172  5.1401 -1.4737
   62SAPC   C33 4936   2.061   4.530   9.948 -0.1720  0.7058 -0.0280
   62SAPC   H3X 4937   2.046   4.420   9.941  0.2246  0.6140  0.5092
   62SAPC   H3Y 4938   2.129   4.556   9.865  0.2127  2.2967  0.7441
   62SAPC   C34 4939   1.927   4.603   9.919 -0.1678  0.3002 -0.3846
   62SAPC   H4X 4940   1.943   4.713   9.923 -2.0839  0.5732  1.9517
   62SAPC   H4Y 4941   1.867   4.563  10.004 -0.8080  1.5201 -0.2504
   62SAPC   C35 4942   1.867   4.573   9.786  0.0291 -0.2116  0.1693
   62SAPC   H5X 4943   1.923   4.621   9.702 -0.8068 -1.7815 -1.3560
   62SAPC   H5Y 4944   1.768   4.624   9.781  0.1312  0.0316  0.6135
   62SAPC   C36 4945   1.847   4.420   9.749 -0.8040 -0.3177  0.0592
   62SAPC   H6X 4946   1.758   4.383   9.804 -1.4601 -1.0254 -1.4430
   62SAPC   H6Y 4947   1.935   4.366   9.791  0.8377  1.3721 -1.0388
   62SAPC   C37 4948   1.831   4.405   9.605 -0.0029 -0.6485 -0.6161
   62SAPC   H7X 4949   1.779   4.308   9.588 -0.5510  0.1689 -4.2307
   62SAPC   H7Y 4950   1.933   4.401   9.561  0.1878  0.5783 -0.3175
   62SAPC   C38 4951   1.739   4.510   9.537 -0.8663  0.8469 -0.5463
   62SAPC   H8X 4952   1.795   4.605   9.522  2.7736 -0.8075  1.1045
   62SAPC   H8Y 4953   1.659   4.525   9.612 -1.0917 -0.1687 -0.5656
   62SAPC   C39 4954   1.687   4.478   9.393  0.4804  0.5769  0.3545
   62SAPC   H9X 4955   1.622   4.564   9.367 -0.8418 -0.4023  0.2849
   62SAPC   H9Y 4956   1.616   4.392   9.399  1.7563 -0.6495 -1.1622
   62SAPC  C310 4957   1.781   4.446   9.275 -0.0208  0.3319  0.2799
   62SAPC  H10X 4958   1.884   4.431   9.316 -0.2954  0.1145  0.9045
   62SAPC  H10Y 4959   1.786   4.539   9.214 -1.0607 -0.6381 -1.3502
   62SAPC  C311 4960   1.726   4.341   9.178 -0.3825  0.1075  0.0911
   62SAPC  H11X 4961   1.615   4.347   9.170 -0.6305 -3.1462 -0.3306
   62SAPC  H11Y 4962   1.750   4.240   9.218  0.4164  0.5947  0.8680
   62SAPC  C312 4963   1.788   4.357   9.037 -0.1861 -0.1851  0.4282
   62SAPC  H12X 4964   1.895   4.325   9.032 -0.8040 -2.5439  1.1036
   62SAPC  H12Y 4965   1.772   4.462   9.006 -1.4531 -0.1907  1.0095
   62SAPC  C313 4966   1.727   4.270   8.926 -0.2660 -0.3922 -0.0036
   62SAPC  H13X 4967   1.618   4.288   8.917 -0.7131 -1.8086  2.0086
   62SAPC  H13Y 4968   1.729   4.165   8.963  0.2620  0.0997  1.4107
   62SAPC  C314 4969   1.794   4.285   8.790  0.1607 -0.3878 -0.0343
   62SAPC  H14X 4970   1.905   4.276   8.791  0.2859  0.5369 -1.8675
   62SAPC  H14Y 4971   1.774   4.384   8.743 -1.3865 -0.6914 -0.0664
   62SAPC  C315 4972   1.763   4.171   8.688  0.4891  0.4021 -0.1697
   62SAPC  H15X 4973   1.654   4.169   8.665  0.7834  0.8271 -1.7146
   62SAPC  H15Y 4974   1.800   4.077   8.734 -0.4585  0.4956  0.8157
   62SAPC  C316 4975   1.841   4.193   8.551  0.1235 -0.1408  0.2209
   62SAPC  H16X 4976   1.812   4.297   8.523  1.7986  0.9158  2.1042
   62SAPC  H16Y 4977   1.785   4.119   8.490 -4.3779  0.7341  2.8050
   62SAPC  C317 4978   1.993   4.177   8.550  0.0549  1.2747  0.2631
   62SAPC  H17X 4979   2.039   4.246   8.623  1.0718  0.8852  0.0118
   62SAPC  H17Y 4980   2.031   4.211   8.451  1.2061 -0.8038 -0.0684
   62SAPC  C318 4981   2.025   4.035   8.593 -0.6230  0.0731  0.4022
   62SAPC  H18X 4982   2.134   4.015   8.592 -0.0819  2.6122  1.5545
   62SAPC  H18Y 4983   1.973   3.973   8.517  0.1140 -0.4956  0.3503
   62SAPC  H18Z 4984   1.983   3.999   8.690 -0.7826 -3.1292 -0.7191
   63SAPC     N 4985   4.648   1.658   6.140  0.2222  0.5287 -0.1137
   63SAPC   C12 4986   4.551   1.696   6.254 -0.5754 -0.4459  0.3749
   63SAPC  H12A 4987   4.518   1.791   6.216  1.0385 -0.8744 -2.3871
   63SAPC  H12B 4988   4.611   1.711   6.342  2.1121  0.5813 -1.4650
   63SAPC   C13 4989   4.575   1.676   6.006 -0.1223 -1.2518 -0.0545
   63SAPC  H13A 4990   4.556   1.782   5.995 -0.1165 -1.5034 -3.3972
   63SAPC  H13B 4991   4.635   1.642   5.923 -3.2951 -3.3246 -1.7268
   63SAPC  H13C 4992   4.480   1.625   6.001 -0.3370 -0.7468 -2.9624
   63SAPC   C14 4993   4.767   1.743   6.129 -0.4050 -0.2032  0.6661
   63SAPC  H14A 4994   4.843   1.715   6.057  0.2720  0.2854  1.1757
   63SAPC  H14B 4995   4.743   1.843   6.098  0.2143 -0.8533 -2.1898
   63SAPC  H14C 4996   4.813   1.750   6.227 -0.7500 -2.7106  1.0923
   63SAPC   C15 4997   4.692   1.512   6.157 -0.6416 -0.2185 -0.7741
   63SAPC  H15A 4998   4.741   1.496   6.253  2.5455  0.6489 -2.1188
   63SAPC  H15B 4999   4.605   1.449   6.148 -1.5348  1.0121 -0.9798
   63SAPC  H15C 5000   4.770   1.477   6.091  1.9239 -2.4370  2.9644
   63SAPC   C11 5001   4.426   1.616   6.282  0.5843 -0.6475  0.6487
   63SAPC  H11A 5002   4.374   1.593   6.187  0.1142 -0.9021  0.9641
   63SAPC  H11B 5003   4.358   1.677   6.346  0.7665 -1.8191  2.0258
   63SAPC     P 5004   4.468   1.480   6.495  0.1733 -0.1448 -0.0895
   63SAPC   O13 5005   4.326   1.476   6.536 -0.5976  0.5346 -0.4583
   63SAPC   O14 5006   4.554   1.368   6.536  0.3698 -0.0156  0.1634
   63SAPC   O12 5007   4.464   1.494   6.342  0.0374 -0.0149 -0.4945
   63SAPC   O11 5008   4.539   1.612   6.542  0.6047  0.1396 -0.3115
   63SAPC    C1 5009   4.461   1.712   6.609  0.0545 -0.5518  1.1085
   63SAPC    HA 5010   4.491   1.814   6.578 -0.8792 -0.8522 -0.9062
   63SAPC    HB 5011   4.353   1.711   6.583 -0.2299 -0.7483  2.2121
   63SAPC    C2 5012   4.480   1.714   6.765 -0.6872  0.1029 -0.5500
   63SAPC    HS 5013   4.445   1.812   6.803 -2.3131 -0.3130 -0.9207
   63SAPC   O21 5014   4.621   1.687   6.797 -0.1459  0.1547 -0.3653
   63SAPC   C21 5015   4.710   1.778   6.759 -0.0709 -0.0005  0.6092
   63SAPC   O22 5016   4.682   1.888   6.707 -0.4182  0.4658 -0.5690
   63SAPC   C22 5017   4.845   1.741   6.808  0.0509  0.0989 -0.3335
   63SAPC   H2R 5018   4.847   1.655   6.879  2.5064 -0.7550 -1.3132
   63SAPC   H2S 5019   4.906   1.700   6.725  0.2124 -1.6765  0.6154
   63SAPC    C3 5020   4.392   1.604   6.831  0.1667 -0.2931  0.4861
   63SAPC    HX 5021   4.446   1.508   6.822  0.9802  0.2107 -0.2369
   63SAPC    HY 5022   4.300   1.583   6.772  0.3697  0.1085  0.0088
   63SAPC   O31 5023   4.343   1.642   6.964 -0.0710  0.0466  0.2709
   63SAPC   C31 5024   4.435   1.619   7.050 -0.9900 -0.3051 -0.5226
   63SAPC   O32 5025   4.545   1.573   7.036 -0.1132 -0.0134  0.0191
   63SAPC   C32 5026   4.381   1.687   7.174  0.5403 -0.5943 -0.0009
   63SAPC   H2X 5027   4.354   1.793   7.154  3.0898  0.2103  0.4817
   63SAPC   H2Y 5028   4.467   1.676   7.243  0.3197  0.2555  0.4205
   63SAPC   C23 5029   4.907   1.856   6.879  0.2401  0.6792 -0.3651
   63SAPC   H3R 5030   4.925   1.937   6.806 -1.0660 -0.0689 -1.5725
   63SAPC   H3S 5031   5.007   1.819   6.910  0.0799  0.6872  0.1739
   63SAPC   C24 5032   4.836   1.911   7.008 -0.1944 -0.6783  0.9586
   63SAPC   H4R 5033   4.728   1.915   6.983  0.4294  0.4234 -2.0495
   63SAPC   H4S 5034   4.875   2.015   7.009  0.0978 -0.7905  1.3384
   63SAPC   C25 5035   4.856   1.828   7.133  0.5824  0.7528 -0.8142
   63SAPC   H5R 5036   4.845   1.719   7.126 -0.3268  0.8515 -1.0634
   63SAPC   C26 5037   4.885   1.872   7.256 -0.2717  0.1575  0.3129
   63SAPC   H6R 5038   4.895   1.798   7.337  0.7249 -2.0112 -1.6562
   63SAPC   C27 5039   4.888   2.015   7.296 -0.9338 -0.7301  0.0182
   63SAPC   H7R 5040   4.781   2.038   7.315 -1.3903 -2.1324 -0.6774
   63SAPC   H7S 5041   4.938   2.080   7.221 -0.6502  1.9404  2.3618
   63SAPC   C28 5042   4.968   2.045   7.420 -0.0226  0.1247  0.4765
   63SAPC   H8R 5043   5.078   2.035   7.410 -0.0400  0.6742 -0.3720
   63SAPC   C29 5044   4.916   2.076   7.546 -0.3181  0.2403 -0.3665
   63SAPC   H9R 5045   4.991   2.098   7.623 -1.9767 -0.0318  1.4047
   63SAPC  C210 5046   4.777   2.072   7.598  0.8538 -0.0748  0.5141
   63SAPC  H10R 5047   4.738   1.975   7.635  1.7452  0.1573  2.1909
   63SAPC  H10S 5048   4.704   2.086   7.516  0.1771 -3.2613  0.4360
   63SAPC  C211 5049   4.752   2.170   7.709  0.2779 -0.4026  1.3348
   63SAPC  H11R 5050   4.726   2.273   7.679  2.6835  0.4675  1.9843
   63SAPC  C212 5051   4.765   2.140   7.841  0.2864 -0.1583  0.1789
   63SAPC  H12R 5052   4.730   2.223   7.903 -0.5679  1.0182 -1.7667
   63SAPC  C213 5053   4.821   2.013   7.901  0.3140 -0.1031 -0.3162
   63SAPC  H13R 5054   4.930   2.024   7.920  0.3551  0.4182 -0.8182
   63SAPC  H13S 5055   4.811   1.928   7.831  1.9595 -0.4788 -0.1366
   63SAPC  C214 5056   4.760   1.977   8.034  0.9448  0.9008 -0.0108
   63SAPC  H14R 5057   4.680   1.902   8.022  0.7597  1.3790 -2.2016
   63SAPC  C215 5058   4.784   2.029   8.149 -0.9492  0.5378  0.1100
   63SAPC  H15R 5059   4.720   1.993   8.231 -2.8875 -0.8151 -1.8779
   63SAPC  C216 5060   4.895   2.134   8.180 -1.0356  0.1762  0.3735
   63SAPC  H16R 5061   4.895   2.217   8.105  0.0773  1.5884  1.8746
   63SAPC  H16S 5062   4.997   2.092   8.184 -0.2598  2.0005  0.6786
   63SAPC  C217 5063   4.867   2.204   8.310  0.5218 -0.3316 -0.4047
   63SAPC  H17R 5064   4.759   2.230   8.311  0.5137 -0.3752 -0.0675
   63SAPC  H17S 5065   4.922   2.301   8.313 -0.7863  0.6445 -3.5053
   63SAPC  C218 5066   4.899   2.120   8.436 -0.2736  0.4414  0.0284
   63SAPC  H18R 5067   5.007   2.096   8.439 -0.7409 -1.9620 -0.2731
   63SAPC  H18S 5068   4.834   2.030   8.426 -0.6572  0.9079 -2.0255
   63SAPC  C219 5069   4.859   2.206   8.552 -0.2721  0.3643 -0.4355
   63SAPC  H19R 5070   4.755   2.242   8.537 -0.0327  0.5276 -1.8512
   63SAPC  H19S 5071   4.919   2.297   8.572  0.5662 -0.6729  2.2334
   63SAPC  C220 5072   4.859   2.133   8.685  0.1323 -0.5535  0.7399
   63SAPC  H20R 5073   4.958   2.089   8.709  1.7483  1.1631 -2.1521
   63SAPC  H20S 5074   4.782   2.053   8.695 -0.6560  0.2444  1.0956
   63SAPC  H20T 5075   4.835   2.211   8.760 -0.3006  0.8649 -0.8188
   63SAPC   C33 5076   4.267   1.602   7.237  0.6205 -1.0523  0.4312
   63SAPC   H3X 5077   4.310   1.500   7.247  1.3759 -0.7794  0.1129
   63SAPC   H3Y 5078   4.182   1.602   7.166 -0.5495  0.8691  1.7139
   63SAPC   C34 5079   4.219   1.645   7.376  0.1114  0.5648 -0.0130
   63SAPC   H4X 5080   4.148   1.562   7.398  0.8100 -0.1756 -0.5044
   63SAPC   H4Y 5081   4.162   1.740   7.372 -1.8096 -0.4493  1.5842
   63SAPC   C35 5082   4.328   1.671   7.477 -0.2683 -0.0084  0.4793
   63SAPC   H5X 5083   4.361   1.777   7.482  0.1902 -0.0670 -1.0453
   63SAPC   H5Y 5084   4.422   1.628   7.437 -1.3829  0.1691 -2.6008
   63SAPC   C36 5085   4.295   1.621   7.617 -0.6575  0.6054 -0.0912
   63SAPC   H6X 5086   4.348   1.524   7.631 -0.7278  0.1708 -2.4528
   63SAPC   H6Y 5087   4.184   1.615   7.623 -0.6317 -0.6968 -0.5577
   63SAPC   C37 5088   4.335   1.728   7.721  0.1962  0.1011 -0.0052
   63SAPC   H7X 5089   4.266   1.812   7.705  1.5232  0.6105 -4.1498
   63SAPC   H7Y 5090   4.438   1.764   7.699  0.0092  0.1736 -0.7507
   63SAPC   C38 5091   4.322   1.671   7.864 -0.3538  0.4870 -0.1054
   63SAPC   H8X 5092   4.392   1.585   7.869 -1.7249 -0.6353  0.3766
   63SAPC   H8Y 5093   4.226   1.614   7.861  0.6011 -1.1714 -0.7204
   63SAPC   C39 5094   4.346   1.764   7.985  0.1741  0.0870 -0.0200
   63SAPC   H9X 5095   4.267   1.842   7.980 -1.5297 -1.6438 -2.5788
   63SAPC   H9Y 5096   4.445   1.807   7.960  0.8578 -1.6544 -0.4429
   63SAPC  C310 5097   4.356   1.706   8.129 -0.3667 -0.0627 -0.1070
   63SAPC  H10X 5098   4.434   1.627   8.134  2.7386  2.7887 -0.1118
   63SAPC  H10Y 5099   4.260   1.659   8.157 -0.8466  0.0069 -1.5699
   63SAPC  C311 5100   4.405   1.819   8.218  0.1179  0.1232 -0.0440
   63SAPC  H11X 5101   4.319   1.886   8.241 -0.5559 -0.5811 -0.4243
   63SAPC  H11Y 5102   4.478   1.873   8.154 -0.2836 -0.6575 -1.2017
   63SAPC  C312 5103   4.478   1.764   8.345 -0.8239  0.3824  0.2603
   63SAPC  H12X 5104   4.527   1.844   8.403  1.7528 -0.5955 -0.4557
   63SAPC  H12Y 5105   4.570   1.713   8.312  0.1201  1.6222  0.8948
   63SAPC  C313 5106   4.390   1.684   8.442 -0.7077 -0.6202 -0.1564
   63SAPC  H13X 5107   4.459   1.629   8.510  0.1861  1.3776  0.6301
   63SAPC  H13Y 5108   4.325   1.605   8.398 -1.5994 -1.8455  3.0557
   63SAPC  C314 5109   4.302   1.778   8.524 -0.2406 -0.8343 -0.0213
   63SAPC  H14X 5110   4.257   1.858   8.462 -0.4902 -0.2612  0.8692
   63SAPC  H14Y 5111   4.365   1.828   8.602 -2.4319  0.2660  1.1528
   63SAPC  C315 5112   4.192   1.700   8.600 -0.1229 -0.6016  0.3879
   63SAPC  H15X 5113   4.141   1.642   8.520  0.4031 -0.1480 -0.2815
   63SAPC  H15Y 5114   4.124   1.770   8.653 -1.3386 -1.4425  0.0001
   63SAPC  C316 5115   4.232   1.597   8.711  0.6611  0.1937 -0.4347
   63SAPC  H16X 5116   4.280   1.645   8.799 -1.2529 -0.3996  0.9923
   63SAPC  H16Y 5117   4.300   1.523   8.664 -0.6667 -0.6363 -1.0970
   63SAPC  C317 5118   4.107   1.518   8.742  0.4590 -0.2501  0.3117
   63SAPC  H17X 5119   4.067   1.474   8.648  2.5636  0.9976 -1.2610
   63SAPC  H17Y 5120   4.030   1.585   8.784  1.1475 -0.1133  1.4176
   63SAPC  C318 5121   4.135   1.406   8.839  0.0905  0.0687 -0.3540
   63SAPC  H18X 5122   4.187   1.442   8.930  0.0522  1.4598 -0.8591
   63SAPC  H18Y 5123   4.214   1.340   8.795  0.0100  1.2679 -2.3963
   63SAPC  H18Z 5124   4.043   1.346   8.858 -0.4440  0.4979 -1.5032
   64SAPC     N 5125   1.349   2.309   5.982  0.0305  0.5602 -0.0307
   64SAPC   C12 5126   1.259   2.185   6.010 -0.2341 -0.5291 -0.3176
   64SAPC  H12A 5127   1.214   2.158   5.915 -0.8685  3.2696 -1.2743
   64SAPC  H12B 5128   1.175   2.225   6.064  0.2883 -0.3904  0.4101
   64SAPC   C13 5129   1.487   2.274   5.942  0.3245  0.7359 -0.6674
   64SAPC  H13A 5130   1.480   2.217   5.851 -0.7812  0.8636 -0.6781
   64SAPC  H13B 5131   1.551   2.358   5.919  0.1398  2.3213  3.6944
   64SAPC  H13C 5132   1.540   2.214   6.014 -0.6535  0.0931 -0.4511
   64SAPC   C14 5133   1.284   2.403   5.885 -0.0283  0.3681 -0.5145
   64SAPC  H14A 5134   1.348   2.488   5.867  0.2009  0.0943 -1.0222
   64SAPC  H14B 5135   1.277   2.358   5.787  2.7623 -2.3366  0.3834
   64SAPC  H14C 5136   1.187   2.435   5.919 -0.1035  0.2603 -0.6256
   64SAPC   C15 5137   1.365   2.381   6.107 -0.0581  0.3124 -1.0927
   64SAPC  H15A 5138   1.267   2.420   6.129  0.9602  1.7932  1.1581
   64SAPC  H15B 5139   1.393   2.312   6.185  0.8702  1.6962 -0.1613
   64SAPC  H15C 5140   1.434   2.464   6.101  0.6164 -0.2402 -1.2774
   64SAPC   C11 5141   1.314   2.057   6.071 -0.1956  0.3006 -0.0147
   64SAPC  H11A 5142   1.399   2.018   6.011 -0.0747 -0.5889  0.6967
   64SAPC  H11B 5143   1.239   1.975   6.072  0.1602 -0.0468  1.7021
   64SAPC     P 5144   1.274   2.105   6.329  0.2809  0.1453  0.0306
   64SAPC   O13 5145   1.276   2.252   6.353 -0.7824  0.0567  0.1049
   64SAPC   O14 5146   1.137   2.052   6.306  0.3526  0.5975 -0.1526
   64SAPC   O12 5147   1.365   2.070   6.207  0.3793 -0.0459 -0.4212
   64SAPC   O11 5148   1.344   2.030   6.448 -0.5320  0.4741 -0.1710
   64SAPC    C1 5149   1.480   2.021   6.477 -0.0554  0.5236 -0.1723
   64SAPC    HA 5150   1.509   1.915   6.464 -1.7068 -0.0419  0.4167
   64SAPC    HB 5151   1.542   2.075   6.403 -0.4511 -0.2806 -1.1115
   64SAPC    C2 5152   1.509   2.071   6.619  0.1596 -0.1262 -0.5901
   64SAPC    HS 5153   1.616   2.051   6.640  0.2141  0.4908 -0.2371
   64SAPC   O21 5154   1.418   2.016   6.720 -0.0785 -0.2592 -0.1941
   64SAPC   C21 5155   1.418   1.887   6.738  0.1833  0.4698  0.5564
   64SAPC   O22 5156   1.504   1.813   6.695  0.3046 -0.1206  0.4771
   64SAPC   C22 5157   1.314   1.845   6.837 -0.3810 -0.1840  0.0957
   64SAPC   H2R 5158   1.344   1.897   6.931 -0.8202 -0.4505  0.3853
   64SAPC   H2S 5159   1.220   1.892   6.802 -0.4400 -1.1509 -1.1006
   64SAPC    C3 5160   1.502   2.227   6.649  0.7497 -0.2009 -0.2631
   64SAPC    HX 5161   1.407   2.253   6.597 -0.5827 -0.5960  1.8570
   64SAPC    HY 5162   1.585   2.280   6.597 -0.9707  0.1225 -2.8713
   64SAPC   O31 5163   1.489   2.256   6.790  0.0717 -0.4099 -0.2645
   64SAPC   C31 5164   1.603   2.235   6.854 -0.1862 -0.2990 -0.2575
   64SAPC   O32 5165   1.708   2.188   6.813  0.5823  0.5383  0.2699
   64SAPC   C32 5166   1.578   2.288   6.998  0.1497 -0.0514 -0.3564
   64SAPC   H2X 5167   1.488   2.238   7.041  0.2555  1.7312  2.1897
   64SAPC   H2Y 5168   1.548   2.394   6.984 -0.7403 -0.6101 -3.4677
   64SAPC   C23 5169   1.307   1.702   6.867 -0.5078 -0.3694 -0.1472
   64SAPC   H3R 5170   1.407   1.658   6.888  0.3477  1.1239 -0.9080
   64SAPC   H3S 5171   1.277   1.642   6.778 -0.4108  1.8375 -1.7341
   64SAPC   C24 5172   1.199   1.668   6.979 -0.3206 -0.8007  0.3825
   64SAPC   H4R 5173   1.108   1.719   6.941  0.3824 -1.1212 -1.9418
   64SAPC   H4S 5174   1.228   1.725   7.070 -0.2489  2.5136 -1.5251
   64SAPC   C25 5175   1.181   1.518   6.983  1.0289 -0.2204 -0.0933
   64SAPC   H5R 5176   1.214   1.464   6.894 -0.3167 -1.7825  0.3129
   64SAPC   C26 5177   1.137   1.443   7.087  0.8496 -0.2599 -0.0468
   64SAPC   H6R 5178   1.128   1.334   7.070 -2.5379  0.1111 -1.3840
   64SAPC   C27 5179   1.095   1.484   7.222  0.3312  0.5546 -0.3649
   64SAPC   H7R 5180   0.992   1.447   7.243  1.5112 -1.5320  2.3839
   64SAPC   H7S 5181   1.099   1.595   7.229 -0.7985  0.5342  1.3258
   64SAPC   C28 5182   1.176   1.422   7.338  0.4831  0.0567  0.4956
   64SAPC   H8R 5183   1.182   1.313   7.348 -0.7161  0.2061  4.1458
   64SAPC   C29 5184   1.251   1.481   7.426  0.1279 -0.9579 -0.0332
   64SAPC   H9R 5185   1.297   1.416   7.502 -1.2834 -2.8971 -0.7497
   64SAPC  C210 5186   1.270   1.628   7.439  0.2995  0.3341  0.4958
   64SAPC  H10R 5187   1.322   1.650   7.534  1.3618  1.9308 -0.4001
   64SAPC  H10S 5188   1.172   1.680   7.437  1.5382  3.2101  3.5550
   64SAPC  C211 5189   1.363   1.682   7.332  0.2499 -0.0090 -0.0077
   64SAPC  H11R 5190   1.431   1.606   7.291 -1.2645 -0.5590 -1.6127
   64SAPC  C212 5191   1.371   1.806   7.285 -0.7290 -0.4552  0.0725
   64SAPC  H12R 5192   1.440   1.827   7.202 -1.9208 -1.1736 -1.1415
   64SAPC  C213 5193   1.283   1.920   7.333  0.5776 -0.5900 -0.1201
   64SAPC  H13R 5194   1.210   1.890   7.411 -1.0203  2.3902 -0.3253
   64SAPC  H13S 5195   1.219   1.952   7.248  2.1750  1.7946 -0.5487
   64SAPC  C214 5196   1.366   2.039   7.368 -0.2868  0.8587 -0.4436
   64SAPC  H14R 5197   1.460   2.013   7.420 -0.3309 -0.8130 -1.1421
   64SAPC  C215 5198   1.337   2.169   7.351  0.2868  0.5374  0.3416
   64SAPC  H15R 5199   1.415   2.244   7.368  1.8974 -0.9419 -0.2487
   64SAPC  C216 5200   1.204   2.207   7.276 -0.8910  0.7085  0.7107
   64SAPC  H16R 5201   1.168   2.300   7.324  1.2573  2.3757 -0.7216
   64SAPC  H16S 5202   1.122   2.137   7.303  0.3043 -0.1030  2.4061
   64SAPC  C217 5203   1.225   2.237   7.125 -0.4378  0.4943 -0.0101
   64SAPC  H17R 5204   1.263   2.143   7.079 -0.6438 -0.2278  1.2515
   64SAPC  H17S 5205   1.307   2.312   7.126 -0.2665  0.3121  1.6659
   64SAPC  C218 5206   1.107   2.290   7.046 -0.2504 -0.4646  0.6296
   64SAPC  H18R 5207   1.071   2.387   7.087 -0.0172  0.4364 -1.1614
   64SAPC  H18S 5208   1.023   2.218   7.060 -1.2367 -0.0260 -2.2220
   64SAPC  C219 5209   1.135   2.306   6.890  0.2440 -0.8912 -0.5295
   64SAPC  H19R 5210   1.180   2.215   6.846  0.7021 -0.8998 -0.0585
   64SAPC  H19S 5211   1.221   2.376   6.889 -0.3645 -0.1256 -0.4043
   64SAPC  C220 5212   1.020   2.374   6.812 -0.1307  0.0989  0.3367
   64SAPC  H20R 5213   0.988   2.462   6.872  0.2361  0.3004  0.2409
   64SAPC  H20S 5214   0.939   2.300   6.797  0.0043  0.0863 -0.3775
   64SAPC  H20T 5215   1.045   2.413   6.711 -1.8964 -1.0186 -0.5931
   64SAPC   C33 5216   1.696   2.268   7.098 -0.5600 -0.6299  0.4551
   64SAPC   H3X 5217   1.779   2.331   7.060 -0.1851 -2.3526 -1.8255
   64SAPC   H3Y 5218   1.734   2.164   7.083 -2.1628 -1.2766  0.6924
   64SAPC   C34 5219   1.661   2.293   7.241 -0.0618 -0.2318  0.4284
   64SAPC   H4X 5220   1.599   2.209   7.279  0.8833 -1.2338 -0.1980
   64SAPC   H4Y 5221   1.597   2.382   7.260  0.6825  0.2084  0.9402
   64SAPC   C35 5222   1.777   2.324   7.339 -0.8742  0.2182  0.4225
   64SAPC   H5X 5223   1.829   2.417   7.306 -3.2116  1.2831 -0.4275
   64SAPC   H5Y 5224   1.841   2.235   7.320 -0.6388  0.3521  0.5800
   64SAPC   C36 5225   1.741   2.343   7.474 -0.0115 -0.3148 -0.7507
   64SAPC   H6X 5226   1.678   2.259   7.510  0.7776 -0.4242  0.4075
   64SAPC   H6Y 5227   1.681   2.435   7.486  0.9366  0.3682 -1.1181
   64SAPC   C37 5228   1.855   2.352   7.569 -0.3100 -0.1788  0.0651
   64SAPC   H7X 5229   1.925   2.428   7.529 -1.5679  1.4392  0.8327
   64SAPC   H7Y 5230   1.897   2.249   7.577 -1.9983 -0.7929  1.7700
   64SAPC   C38 5231   1.818   2.401   7.711 -0.0077 -0.0978  0.0940
   64SAPC   H8X 5232   1.764   2.497   7.705 -0.7509 -0.5727 -1.4369
   64SAPC   H8Y 5233   1.916   2.418   7.761  0.0349  0.6166 -0.2236
   64SAPC   C39 5234   1.735   2.304   7.791 -0.0333  0.2778 -0.3981
   64SAPC   H9X 5235   1.800   2.219   7.822  1.0807  1.1912 -0.1718
   64SAPC   H9Y 5236   1.648   2.262   7.736  0.4515 -1.0884 -0.1603
   64SAPC  C310 5237   1.675   2.355   7.925  0.3373 -0.0961  0.7693
   64SAPC  H10X 5238   1.595   2.429   7.902 -0.3526 -0.7205  1.1298
   64SAPC  H10Y 5239   1.755   2.395   7.991 -0.9760 -0.3569  2.5777
   64SAPC  C311 5240   1.604   2.247   8.000 -0.8713  0.5385  0.5176
   64SAPC  H11X 5241   1.518   2.213   7.939  0.5201 -1.6405 -0.3760
   64SAPC  H11Y 5242   1.558   2.305   8.083 -0.2601 -0.0351  1.2718
   64SAPC  C312 5243   1.693   2.138   8.051 -0.1656 -0.5251 -0.5092
   64SAPC  H12X 5244   1.769   2.180   8.121 -1.3599 -1.1162  1.2022
   64SAPC  H12Y 5245   1.747   2.091   7.967  1.0003 -2.0087  1.0098
   64SAPC  C313 5246   1.605   2.024   8.113 -0.6846 -0.1948 -0.3357
   64SAPC  H13X 5247   1.657   1.928   8.093  1.3616  1.1392 -1.7683
   64SAPC  H13Y 5248   1.509   2.022   8.058 -1.0182 -0.4794  0.2371
   64SAPC  C314 5249   1.585   2.035   8.267  0.0080 -0.3267  0.2330
   64SAPC  H14X 5250   1.562   2.141   8.290 -0.2151 -0.5666  1.1803
   64SAPC  H14Y 5251   1.677   2.001   8.319 -0.7465  0.4657  2.1671
   64SAPC  C315 5252   1.476   1.957   8.335  0.2834  0.3173  0.2040
   64SAPC  H15X 5253   1.493   1.847   8.326  0.6607  0.4395 -0.7154
   64SAPC  H15Y 5254   1.382   1.985   8.284  0.5300  4.4058  1.5823
   64SAPC  C316 5255   1.453   1.977   8.484 -0.3993 -1.2114 -0.3179
   64SAPC  H16X 5256   1.437   2.086   8.498  2.3111 -0.8290  0.4760
   64SAPC  H16Y 5257   1.543   1.941   8.539  0.1403 -1.3346 -1.2489
   64SAPC  C317 5258   1.318   1.915   8.524  0.2578  0.5782  0.7045
   64SAPC  H17X 5259   1.225   1.962   8.486 -0.6611 -1.0849  0.8134
   64SAPC  H17Y 5260   1.317   1.910   8.635 -0.1297  0.5293  0.7004
   64SAPC  C318 5261   1.308   1.764   8.491  0.5200 -0.5070  0.6008
   64SAPC  H18X 5262   1.396   1.712   8.532 -0.9912 -0.7518  3.8504
   64SAPC  H18Y 5263   1.296   1.755   8.381  2.1605  0.7002  0.2969
   64SAPC  H18Z 5264   1.220   1.719   8.542 -0.6478  1.2515  0.2358
   65SAPC     N 5265   6.402   3.257   6.303 -0.1106  0.3818 -0.1317
   65SAPC   C12 5266   6.365   3.116   6.344  0.5085 -0.4606 -0.2117
   65SAPC  H12A 5267   6.395   3.100   6.447 -0.8600  1.5192  0.5604
   65SAPC  H12B 5268   6.429   3.054   6.283  2.7494 -0.7487  2.2134
   65SAPC   C13 5269   6.313   3.358   6.363 -0.4652  0.4877 -0.3320
   65SAPC  H13A 5270   6.330   3.358   6.470 -0.4461 -0.6240 -0.3181
   65SAPC  H13B 5271   6.335   3.458   6.331 -0.0630 -0.0178 -1.6859
   65SAPC  H13C 5272   6.212   3.328   6.339 -0.7325 -1.3048  2.5311
   65SAPC   C14 5273   6.539   3.298   6.344 -0.1016 -0.6605  0.2644
   65SAPC  H14A 5274   6.546   3.247   6.439 -1.1479 -1.3680 -0.0092
   65SAPC  H14B 5275   6.614   3.250   6.282 -0.9026 -1.4079 -0.1547
   65SAPC  H14C 5276   6.553   3.404   6.355 -0.5515 -0.5808  0.1192
   65SAPC   C15 5277   6.391   3.269   6.150  0.1475  0.0066 -0.3135
   65SAPC  H15A 5278   6.429   3.363   6.114  0.1126 -0.3891 -1.4214
   65SAPC  H15B 5279   6.454   3.198   6.098 -0.0888 -2.0527  2.0180
   65SAPC  H15C 5280   6.289   3.244   6.124  0.9033 -1.1288 -2.4839
   65SAPC   C11 5281   6.213   3.080   6.332 -0.3995 -0.2118  0.4138
   65SAPC  H11A 5282   6.149   3.141   6.399 -2.3535 -0.2371 -1.3229
   65SAPC  H11B 5283   6.212   2.976   6.373  1.2411 -0.7286 -0.7430
   65SAPC     P 5284   6.122   2.947   6.127 -0.3589  0.3736  0.8320
   65SAPC   O13 5285   6.062   2.982   6.001 -0.1939  0.5597 -0.0287
   65SAPC   O14 5286   6.233   2.851   6.120  0.4166 -0.2409 -0.8920
   65SAPC   O12 5287   6.168   3.082   6.198  0.2455 -0.0371 -0.0132
   65SAPC   O11 5288   6.009   2.887   6.225  0.0869 -0.3223  0.4654
   65SAPC    C1 5289   5.884   2.951   6.237  0.0773  0.1772 -0.1708
   65SAPC    HA 5290   5.881   3.054   6.196 -0.2955 -0.4925 -1.9119
   65SAPC    HB 5291   5.815   2.894   6.171 -0.7725  0.9114  0.0646
   65SAPC    C2 5292   5.807   2.945   6.375 -0.3541  0.2124  0.4051
   65SAPC    HS 5293   5.708   2.988   6.350 -1.3307 -2.5356 -0.7978
   65SAPC   O21 5294   5.878   3.028   6.475  0.1181  0.2818  0.3029
   65SAPC   C21 5295   5.836   3.144   6.513 -0.1297 -0.4971 -0.3366
   65SAPC   O22 5296   5.730   3.200   6.478  0.4918 -0.1878 -0.1696
   65SAPC   C22 5297   5.946   3.218   6.594  0.0953 -0.1194  0.4738
   65SAPC   H2R 5298   6.009   3.133   6.628 -1.0768 -1.3427 -0.2996
   65SAPC   H2S 5299   5.996   3.280   6.516 -0.4266  2.7696  2.2731
   65SAPC    C3 5300   5.800   2.800   6.425 -0.0104 -0.6539  0.2117
   65SAPC    HX 5301   5.901   2.754   6.423  0.0102 -0.5759 -1.0631
   65SAPC    HY 5302   5.744   2.734   6.355 -0.0385  0.9318 -1.3386
   65SAPC   O31 5303   5.755   2.789   6.568  0.0745  0.0186 -0.1159
   65SAPC   C31 5304   5.631   2.842   6.583  0.3751 -0.3653 -0.4795
   65SAPC   O32 5305   5.560   2.878   6.492 -0.1064  0.8154  0.4433
   65SAPC   C32 5306   5.596   2.840   6.725  0.1028  0.1880 -0.0151
   65SAPC   H2X 5307   5.674   2.875   6.796 -0.8423  0.9267  0.6920
   65SAPC   H2Y 5308   5.578   2.734   6.751  2.4068 -0.5215 -1.0916
   65SAPC   C23 5309   5.895   3.320   6.697 -0.0551  0.0875  0.1312
   65SAPC   H3R 5310   5.825   3.389   6.645  0.3782  0.4424  0.0131
   65SAPC   H3S 5311   5.983   3.379   6.728  1.6731 -1.7139 -1.0651
   65SAPC   C24 5312   5.809   3.253   6.815 -0.1409 -0.1889  0.5907
   65SAPC   H4R 5313   5.720   3.202   6.771 -0.8404  0.3590  1.3423
   65SAPC   H4S 5314   5.762   3.337   6.871  0.3837  0.1008  0.5962
   65SAPC   C25 5315   5.902   3.167   6.907 -0.8887  0.3178 -0.7490
   65SAPC   H5R 5316   6.005   3.154   6.870 -0.3242 -0.5186  0.9697
   65SAPC   C26 5317   5.860   3.126   7.031  0.7601  0.4416  0.3723
   65SAPC   H6R 5318   5.927   3.077   7.102  0.1614  0.3949  0.9130
   65SAPC   C27 5319   5.721   3.153   7.088  0.3564  0.4592 -0.3763
   65SAPC   H7R 5320   5.676   3.070   7.148  0.1543  0.5330 -0.4250
   65SAPC   H7S 5321   5.640   3.165   7.013 -1.3374 -0.2389  1.2390
   65SAPC   C28 5322   5.712   3.278   7.168 -0.0177 -0.0862 -0.2560
   65SAPC   H8R 5323   5.666   3.367   7.122  1.0345 -0.1400 -1.4742
   65SAPC   C29 5324   5.757   3.287   7.293 -0.3838  0.2856 -0.0794
   65SAPC   H9R 5325   5.726   3.377   7.347 -1.3620 -1.0386  1.6888
   65SAPC  C210 5326   5.827   3.186   7.377 -0.5765  0.8272  0.2495
   65SAPC  H10R 5327   5.923   3.232   7.410  0.3629 -0.2333 -0.9168
   65SAPC  H10S 5328   5.857   3.106   7.306 -1.5799 -0.1433  0.8930
   65SAPC  C211 5329   5.729   3.141   7.486  0.0469 -0.6718  0.9002
   65SAPC  H11R 5330   5.634   3.100   7.447  1.0206 -0.5221 -1.8829
   65SAPC  C212 5331   5.744   3.138   7.623  0.0819  0.2484  0.4273
   65SAPC  H12R 5332   5.658   3.105   7.684 -0.2567 -0.2676 -0.3150
   65SAPC  C213 5333   5.870   3.179   7.695  0.3417 -0.4953  0.0485
   65SAPC  H13R 5334   5.956   3.187   7.625  1.6915 -1.5596  1.5163
   65SAPC  H13S 5335   5.881   3.093   7.764  1.5266  0.8265  1.5761
   65SAPC  C214 5336   5.855   3.312   7.769  0.5415 -0.2525  1.0361
   65SAPC  H14R 5337   5.875   3.402   7.709  2.0647 -1.9470 -1.1869
   65SAPC  C215 5338   5.819   3.324   7.895  0.2230 -0.5889 -0.1922
   65SAPC  H15R 5339   5.821   3.422   7.946  1.1729 -1.4851  1.5485
   65SAPC  C216 5340   5.786   3.217   7.995  0.3535  0.7402 -0.1017
   65SAPC  H16R 5341   5.825   3.116   7.968 -0.6657 -0.3722  2.3093
   65SAPC  H16S 5342   5.675   3.211   8.002  0.3100  0.5013 -0.8382
   65SAPC  C217 5343   5.831   3.251   8.134 -0.8465  0.3348  0.2382
   65SAPC  H17R 5344   5.789   3.344   8.177  0.7787  0.7730  0.9682
   65SAPC  H17S 5345   5.940   3.265   8.120 -0.8937  1.4677  0.8749
   65SAPC  C218 5346   5.829   3.135   8.229  0.1939  0.2284  0.0735
   65SAPC  H18R 5347   5.840   3.042   8.169 -2.5121 -1.4852  1.9947
   65SAPC  H18S 5348   5.728   3.112   8.269 -0.9438  3.6400 -0.5315
   65SAPC  C219 5349   5.926   3.145   8.350 -0.2845  0.2273 -0.9543
   65SAPC  H19R 5350   5.894   3.229   8.415 -0.5512  0.4403 -1.3619
   65SAPC  H19S 5351   6.033   3.155   8.322 -0.2184  0.3435 -0.6705
   65SAPC  C220 5352   5.910   3.021   8.431  0.5482 -0.1693 -0.0962
   65SAPC  H20R 5353   5.813   3.015   8.484  1.1728 -0.9991  0.9861
   65SAPC  H20S 5354   5.995   3.014   8.502  1.1636 -0.6523 -0.8555
   65SAPC  H20T 5355   5.904   2.931   8.365 -2.5219 -1.5393  1.8120
   65SAPC   C33 5356   5.461   2.918   6.739  0.1873 -0.6299 -0.9152
   65SAPC   H3X 5357   5.390   2.890   6.658 -0.7820  0.1096 -0.3463
   65SAPC   H3Y 5358   5.485   3.027   6.738  0.6722 -0.7356 -1.6229
   65SAPC   C34 5359   5.398   2.881   6.875  0.1275 -0.2316  0.0348
   65SAPC   H4X 5360   5.356   2.780   6.856 -3.0976  1.3572 -2.0774
   65SAPC   H4Y 5361   5.316   2.955   6.888  0.4193  0.0628  0.2292
   65SAPC   C35 5362   5.489   2.888   6.999 -0.0825 -0.5634 -0.1808
   65SAPC   H5X 5363   5.526   2.991   7.017  0.2842 -0.5883 -0.7844
   65SAPC   H5Y 5364   5.580   2.825   6.997  0.5551  0.3733 -1.1986
   65SAPC   C36 5365   5.426   2.823   7.124  0.4060 -0.6981 -0.3476
   65SAPC   H6X 5366   5.419   2.713   7.108 -0.4061 -0.9930  1.7379
   65SAPC   H6Y 5367   5.326   2.869   7.134  0.1400 -1.2097 -0.6400
   65SAPC   C37 5368   5.517   2.856   7.247  0.6862  0.0858 -0.0137
   65SAPC   H7X 5369   5.503   2.965   7.267 -0.6478  0.0128 -0.4254
   65SAPC   H7Y 5370   5.617   2.817   7.221 -0.4536 -1.6073 -2.2254
   65SAPC   C38 5371   5.448   2.784   7.364  0.1541 -1.0880 -0.8957
   65SAPC   H8X 5372   5.468   2.675   7.352 -0.9004 -1.2801 -0.9788
   65SAPC   H8Y 5373   5.338   2.798   7.359  0.2287 -0.4679 -0.8783
   65SAPC   C39 5374   5.501   2.836   7.500  0.5601  0.2625  0.2173
   65SAPC   H9X 5375   5.502   2.947   7.494  0.2021  0.2394 -0.5127
   65SAPC   H9Y 5376   5.607   2.806   7.487 -0.2518 -1.8119 -2.7180
   65SAPC  C310 5377   5.432   2.780   7.622  0.0278  0.2217  0.3383
   65SAPC  H10X 5378   5.472   2.677   7.630  0.2831  0.4131  1.7855
   65SAPC  H10Y 5379   5.323   2.774   7.603  0.3905 -0.9656 -1.5823
   65SAPC  C311 5380   5.469   2.861   7.753 -0.3298 -0.1250  0.6469
   65SAPC  H11X 5381   5.438   2.967   7.742  1.9781  0.6277  0.8252
   65SAPC  H11Y 5382   5.578   2.878   7.762  0.1186  2.4314 -5.3402
   65SAPC  C312 5383   5.396   2.796   7.866  0.1330  0.3505  1.0748
   65SAPC  H12X 5384   5.399   2.691   7.830 -0.9019  1.4627 -2.6967
   65SAPC  H12Y 5385   5.291   2.831   7.859  0.2846  0.6883  0.3783
   65SAPC  C313 5386   5.452   2.806   8.002 -0.4885 -0.0295 -0.3030
   65SAPC  H13X 5387   5.374   2.765   8.070 -0.6285  1.2267  0.3187
   65SAPC  H13Y 5388   5.469   2.912   8.029  1.9755  0.0096 -1.7378
   65SAPC  C314 5389   5.583   2.723   8.040 -0.3521  0.1901 -0.4846
   65SAPC  H14X 5390   5.644   2.705   7.949  2.1658  4.0073  0.2280
   65SAPC  H14Y 5391   5.557   2.622   8.079  3.0532 -0.8443 -0.5715
   65SAPC  C315 5392   5.666   2.809   8.137 -0.4413 -0.1931 -0.7363
   65SAPC  H15X 5393   5.693   2.902   8.081 -0.2072  0.0187 -0.2733
   65SAPC  H15Y 5394   5.760   2.760   8.168 -0.6721 -0.2111 -0.0416
   65SAPC  C316 5395   5.600   2.850   8.269 -0.2716 -0.0259  0.5583
   65SAPC  H16X 5396   5.510   2.913   8.250  0.7489  1.1303 -0.5877
   65SAPC  H16Y 5397   5.676   2.895   8.337  2.4602 -5.1005  1.3319
   65SAPC  C317 5398   5.555   2.730   8.352 -0.3827  0.3453  0.6329
   65SAPC  H17X 5399   5.641   2.661   8.367  0.6935  1.8256  1.5449
   65SAPC  H17Y 5400   5.486   2.680   8.280 -0.9224  1.1501  0.5767
   65SAPC  C318 5401   5.482   2.760   8.479  0.0108 -0.9523  0.5839
   65SAPC  H18X 5402   5.378   2.787   8.452 -0.6542 -1.8204  2.1572
   65SAPC  H18Y 5403   5.524   2.852   8.526  0.2825  1.1005 -3.2485
   65SAPC  H18Z 5404   5.478   2.665   8.536 -0.3793 -1.0300  0.4242
   66SAPC     N 5405   5.133   4.182   5.828  0.7453 -0.0287  1.0371
   66SAPC   C12 5406   5.170   4.175   5.975  0.2523  0.3789 -0.3720
   66SAPC  H12A 5407   5.115   4.099   6.029  1.5712 -0.0915  0.3368
   66SAPC  H12B 5408   5.143   4.272   6.015 -0.0541  1.1005 -2.2200
   66SAPC   C13 5409   5.184   4.305   5.774 -0.6217 -0.7263 -0.0685
   66SAPC  H13A 5410   5.132   4.389   5.817  1.5559  0.2006  0.9017
   66SAPC  H13B 5411   5.290   4.320   5.784 -0.5685  0.1765 -1.5890
   66SAPC  H13C 5412   5.157   4.310   5.669 -1.3545 -3.5058 -0.1060
   66SAPC   C14 5413   5.189   4.067   5.746  0.2358  0.1979 -1.2011
   66SAPC  H14A 5414   5.295   4.057   5.767 -0.3490 -0.6809  1.8238
   66SAPC  H14B 5415   5.131   3.980   5.775 -0.4464  0.4464 -1.8034
   66SAPC  H14C 5416   5.168   4.077   5.641 -2.3911  1.5688 -0.6181
   66SAPC   C15 5417   4.978   4.175   5.814 -0.2799  0.2523  0.1508
   66SAPC  H15A 5418   4.939   4.164   5.713 -2.7763 -2.1782  1.2551
   66SAPC  H15B 5419   4.951   4.087   5.869 -2.4722 -0.5089 -1.9556
   66SAPC  H15C 5420   4.929   4.264   5.852 -0.1461 -0.1732  1.3530
   66SAPC   C11 5421   5.320   4.157   6.006  0.8836  0.3792 -0.2558
   66SAPC  H11A 5422   5.357   4.054   5.984  1.0446  0.8342 -2.2750
   66SAPC  H11B 5423   5.332   4.158   6.117  3.9436 -2.0865 -0.3899
   66SAPC     P 5424   5.437   4.398   6.021  0.1482  0.1027 -0.2265
   66SAPC   O13 5425   5.551   4.466   5.950 -0.5419  0.1561  0.1433
   66SAPC   O14 5426   5.312   4.474   6.036 -0.0631 -0.4792  0.1611
   66SAPC   O12 5427   5.408   4.256   5.950 -0.3189 -0.7497 -0.2840
   66SAPC   O11 5428   5.490   4.356   6.167  0.1649  0.0519  0.0795
   66SAPC    C1 5429   5.599   4.267   6.184  0.5021 -0.4072 -0.0132
   66SAPC    HA 5430   5.645   4.239   6.087  0.8638 -1.1512  0.3603
   66SAPC    HB 5431   5.677   4.337   6.222 -0.1083 -0.7575  1.9918
   66SAPC    C2 5432   5.578   4.159   6.283 -0.5351 -0.1570  0.0664
   66SAPC    HS 5433   5.535   4.070   6.232  1.5388 -0.1033 -1.9490
   66SAPC   O21 5434   5.488   4.206   6.389  0.1288 -0.7394 -0.3839
   66SAPC   C21 5435   5.382   4.129   6.404  0.0948 -0.1385 -0.2749
   66SAPC   O22 5436   5.350   4.030   6.343 -0.0114  0.2027 -0.4379
   66SAPC   C22 5437   5.292   4.183   6.514  1.0861 -0.5860  0.0951
   66SAPC   H2R 5438   5.338   4.280   6.542  1.5507 -1.5477  2.9823
   66SAPC   H2S 5439   5.195   4.198   6.461  0.8941 -2.5519 -0.1982
   66SAPC    C3 5440   5.706   4.114   6.355 -0.6591  0.4324 -0.6276
   66SAPC    HX 5441   5.765   4.206   6.376 -0.4474  0.2738 -0.5236
   66SAPC    HY 5442   5.772   4.052   6.290  0.4415  0.5610  0.3262
   66SAPC   O31 5443   5.675   4.050   6.479 -0.2359  0.2127  0.3428
   66SAPC   C31 5444   5.749   3.942   6.502  0.5657 -0.1363 -0.8777
   66SAPC   O32 5445   5.853   3.912   6.448  0.2541 -0.1593  0.2193
   66SAPC   C32 5446   5.698   3.871   6.630 -0.5369 -0.1488 -0.1167
   66SAPC   H2X 5447   5.587   3.872   6.625 -0.6415  3.5089 -0.3273
   66SAPC   H2Y 5448   5.722   3.932   6.720 -1.3127 -0.1951  0.1369
   66SAPC   C23 5449   5.297   4.114   6.647  0.2926  0.4041  0.1874
   66SAPC   H3R 5450   5.275   4.006   6.636  0.0029  0.2759  1.7142
   66SAPC   H3S 5451   5.215   4.160   6.707 -0.7405 -0.7365 -0.2961
   66SAPC   C24 5452   5.428   4.130   6.721 -0.7814  0.1496 -0.0350
   66SAPC   H4R 5453   5.454   4.238   6.716  1.1376 -0.3013 -0.7489
   66SAPC   H4S 5454   5.511   4.078   6.668 -0.4426 -0.0583  0.6837
   66SAPC   C25 5455   5.410   4.067   6.857 -0.7848  0.4160 -0.6362
   66SAPC   H5R 5456   5.374   3.964   6.864  0.2093  0.1107  0.2308
   66SAPC   C26 5457   5.443   4.123   6.972 -0.1296  0.7554 -0.3258
   66SAPC   H6R 5458   5.428   4.062   7.062 -1.6928  1.3049 -0.1727
   66SAPC   C27 5459   5.497   4.258   7.011  0.5329 -0.4220  0.2318
   66SAPC   H7R 5460   5.586   4.275   6.946 -0.1623  1.5923 -0.2612
   66SAPC   H7S 5461   5.528   4.280   7.116 -2.5559  2.7207  0.6526
   66SAPC   C28 5462   5.385   4.348   6.975 -0.5831  0.3669 -0.5272
   66SAPC   H8R 5463   5.281   4.312   6.972 -0.4385 -0.1062 -0.0758
   66SAPC   C29 5464   5.390   4.482   6.950  0.5264 -0.5171 -0.1775
   66SAPC   H9R 5465   5.302   4.548   6.942  0.3833 -0.5569  0.9895
   66SAPC  C210 5466   5.516   4.562   6.953  0.5435  0.4373  0.0128
   66SAPC  H10R 5467   5.574   4.546   6.860 -0.3427  1.5947 -0.7658
   66SAPC  H10S 5468   5.581   4.511   7.028  0.8030 -0.2945 -0.6918
   66SAPC  C211 5469   5.521   4.710   6.968 -0.2975 -0.5601 -0.3909
   66SAPC  H11R 5470   5.610   4.743   6.914 -1.0768  0.8176 -0.8764
   66SAPC  C212 5471   5.440   4.800   7.025  0.2157  0.0803 -0.5416
   66SAPC  H12R 5472   5.476   4.903   7.034  0.3116 -0.0284  0.4779
   66SAPC  C213 5473   5.308   4.768   7.097  0.0223  0.6313  0.5519
   66SAPC  H13R 5474   5.308   4.658   7.114 -1.6194  0.3302 -1.1113
   66SAPC  H13S 5475   5.234   4.787   7.016 -1.8015 -1.4803  1.5969
   66SAPC  C214 5476   5.295   4.835   7.229  0.1995  0.4735 -0.3181
   66SAPC  H14R 5477   5.316   4.943   7.233  0.0027  0.4940  0.4947
   66SAPC  C215 5478   5.249   4.781   7.341  0.6160 -0.6801 -0.3861
   66SAPC  H15R 5479   5.240   4.851   7.425  1.6999  0.0082 -0.8161
   66SAPC  C216 5480   5.213   4.641   7.368  0.2552  0.1092 -0.0581
   66SAPC  H16R 5481   5.185   4.579   7.279 -0.6392 -2.0262  1.6168
   66SAPC  H16S 5482   5.117   4.634   7.422  1.4877  0.0822  2.2261
   66SAPC  C217 5483   5.323   4.559   7.449  0.2364  0.1656  0.6553
   66SAPC  H17R 5484   5.324   4.590   7.556 -1.5725  1.1507  0.4330
   66SAPC  H17S 5485   5.424   4.586   7.411 -0.0437  0.5902  0.1926
   66SAPC  C218 5486   5.311   4.404   7.439 -0.3992 -0.2828 -0.5709
   66SAPC  H18R 5487   5.267   4.387   7.338  1.3455 -2.8750 -1.0014
   66SAPC  H18S 5488   5.231   4.391   7.515  1.0507  0.2038  1.0774
   66SAPC  C219 5489   5.436   4.318   7.470 -0.1706 -0.2560 -0.1901
   66SAPC  H19R 5490   5.521   4.364   7.526 -1.3319  2.2590 -0.3262
   66SAPC  H19S 5491   5.479   4.289   7.372 -0.7737 -0.1238 -0.4971
   66SAPC  C220 5492   5.396   4.185   7.537 -0.5628 -0.3759  0.0056
   66SAPC  H20R 5493   5.482   4.125   7.573 -0.3633 -1.1688 -1.7091
   66SAPC  H20S 5494   5.370   4.123   7.449 -0.9888 -1.4187  0.8438
   66SAPC  H20T 5495   5.311   4.201   7.608 -1.2455  1.2798 -1.1344
   66SAPC   C33 5496   5.746   3.725   6.643 -0.6483 -0.4996 -0.1186
   66SAPC   H3X 5497   5.857   3.721   6.648 -0.7540 -2.1276  3.6386
   66SAPC   H3Y 5498   5.715   3.665   6.554 -0.1850  0.4777 -0.9612
   66SAPC   C34 5499   5.692   3.645   6.767  0.1130  0.2182 -0.4275
   66SAPC   H4X 5500   5.714   3.538   6.749 -0.1457 -0.0781  0.9224
   66SAPC   H4Y 5501   5.584   3.674   6.762 -0.4850 -2.0814 -2.0421
   66SAPC   C35 5502   5.739   3.696   6.907  0.0222  0.0791  0.6396
   66SAPC   H5X 5503   5.758   3.805   6.904  0.7062 -0.0541 -0.6713
   66SAPC   H5Y 5504   5.843   3.659   6.920 -0.1653 -0.7111 -0.0287
   66SAPC   C36 5505   5.644   3.658   7.017  0.1546  0.5286  0.0287
   66SAPC   H6X 5506   5.635   3.547   7.022  0.4780  0.5560  2.0393
   66SAPC   H6Y 5507   5.546   3.694   6.981  0.7616  0.4556 -1.7844
   66SAPC   C37 5508   5.681   3.734   7.145  0.3345 -0.1703 -0.4125
   66SAPC   H7X 5509   5.651   3.841   7.136 -2.1697 -0.7253  0.4705
   66SAPC   H7Y 5510   5.791   3.728   7.145  0.3113 -0.6488 -0.1568
   66SAPC   C38 5511   5.626   3.678   7.267  0.3916  1.0966 -0.4537
   66SAPC   H8X 5512   5.646   3.568   7.270 -0.5247  0.9120 -0.7009
   66SAPC   H8Y 5513   5.515   3.682   7.276  0.1520 -1.9730 -0.8159
   66SAPC   C39 5514   5.677   3.753   7.392 -0.2048 -0.9102  0.5905
   66SAPC   H9X 5515   5.599   3.826   7.424  0.7156 -0.0874  0.9683
   66SAPC   H9Y 5516   5.767   3.813   7.369 -2.5188  1.5585 -3.2446
   66SAPC  C310 5517   5.694   3.668   7.510  0.5247  0.0791 -0.6693
   66SAPC  H10X 5518   5.780   3.598   7.498  0.7969  0.2475  0.2334
   66SAPC  H10Y 5519   5.606   3.601   7.520  0.1876  0.6045 -0.0158
   66SAPC  C311 5520   5.707   3.741   7.640 -0.3068  0.3424 -0.1115
   66SAPC  H11X 5521   5.632   3.823   7.647 -0.3533  0.2346  0.8399
   66SAPC  H11Y 5522   5.807   3.789   7.638  1.0381 -2.1592  1.8759
   66SAPC  C312 5523   5.683   3.656   7.766 -0.3532  0.0227 -0.1205
   66SAPC  H12X 5524   5.751   3.569   7.779  0.8073  0.9677  0.2812
   66SAPC  H12Y 5525   5.578   3.619   7.758 -0.2849  0.1512 -2.4338
   66SAPC  C313 5526   5.678   3.741   7.889 -0.6754 -0.0383 -0.1071
   66SAPC  H13X 5527   5.607   3.825   7.875  0.6941  1.3297  0.7635
   66SAPC  H13Y 5528   5.781   3.773   7.918 -1.2116  1.5528  0.1620
   66SAPC  C314 5529   5.623   3.666   8.004  0.3357  0.1818  0.2077
   66SAPC  H14X 5530   5.682   3.580   8.042  1.3587  0.5192 -0.5367
   66SAPC  H14Y 5531   5.519   3.636   7.979 -0.3161  0.4162  2.4008
   66SAPC  C315 5532   5.609   3.755   8.131 -0.2739 -0.1022  0.5100
   66SAPC  H15X 5533   5.545   3.842   8.105  0.9687  0.6113 -0.2943
   66SAPC  H15Y 5534   5.713   3.787   8.152 -1.3075  3.5361  0.6666
   66SAPC  C316 5535   5.553   3.688   8.257  0.6403 -0.4608 -0.1046
   66SAPC  H16X 5536   5.621   3.605   8.284  1.3847  0.1282 -0.1102
   66SAPC  H16Y 5537   5.455   3.637   8.242 -0.7062  1.5767  1.2257
   66SAPC  C317 5538   5.542   3.794   8.372  0.0633 -0.0494 -0.6948
   66SAPC  H17X 5539   5.484   3.733   8.445 -1.2581 -0.8529 -2.3429
   66SAPC  H17Y 5540   5.487   3.885   8.338 -0.4252  0.1441  0.5459
   66SAPC  C318 5541   5.674   3.831   8.446  0.8128  0.0926  0.4562
   66SAPC  H18X 5542   5.727   3.897   8.374 -0.4987 -0.1116 -0.7456
   66SAPC  H18Y 5543   5.725   3.733   8.464 -1.3249 -1.1206  0.2421
   66SAPC  H18Z 5544   5.649   3.884   8.540  2.8135  2.0746 -0.0574
   67SAPC     N 5545   1.370   3.791   6.089  0.1986 -0.4371  1.1536
   67SAPC   C12 5546   1.359   3.863   6.226 -0.3714  0.0119 -0.3439
   67SAPC  H12A 5547   1.256   3.850   6.257 -0.1226 -1.5154 -0.0686
   67SAPC  H12B 5548   1.357   3.969   6.204  2.2841 -0.1535 -1.8264
   67SAPC   C13 5549   1.355   3.641   6.112 -0.1891  0.6894 -0.2356
   67SAPC  H13A 5550   1.378   3.580   6.027 -0.5964  0.0735  0.0928
   67SAPC  H13B 5551   1.414   3.600   6.193 -0.1447  0.2504 -0.4894
   67SAPC  H13C 5552   1.251   3.625   6.135  0.2080 -1.2763  0.3083
   67SAPC   C14 5553   1.260   3.835   5.998  0.7989 -0.8082  0.2845
   67SAPC  H14A 5554   1.258   3.940   5.973  0.2527 -0.4791  1.6292
   67SAPC  H14B 5555   1.273   3.780   5.906  2.3415 -0.7527  0.4419
   67SAPC  H14C 5556   1.159   3.819   6.033  1.1374  2.3536  3.1349
   67SAPC   C15 5557   1.504   3.815   6.023  0.1405  0.0243  0.0459
   67SAPC  H15A 5558   1.502   3.921   6.000 -0.1390 -0.2525 -1.2902
   67SAPC  H15B 5559   1.582   3.794   6.095 -0.5868 -1.0633  0.5349
   67SAPC  H15C 5560   1.511   3.764   5.928  0.9188  0.4753 -0.1451
   67SAPC   C11 5561   1.458   3.826   6.344 -1.0430 -0.0447 -0.1938
   67SAPC  H11A 5562   1.454   3.716   6.360 -0.5166  0.1585  1.5207
   67SAPC  H11B 5563   1.407   3.859   6.438 -1.7579 -0.8284 -0.2926
   67SAPC     P 5564   1.612   4.022   6.344  0.1530  0.3234 -0.1983
   67SAPC   O13 5565   1.708   4.068   6.241 -0.5401  0.2975  0.2489
   67SAPC   O14 5566   1.491   4.103   6.349 -0.7230 -0.2401  0.2338
   67SAPC   O12 5567   1.594   3.867   6.330  0.3469  0.1055  0.2796
   67SAPC   O11 5568   1.678   4.040   6.488 -0.4978  0.4524 -0.3035
   67SAPC    C1 5569   1.738   3.920   6.551 -0.1083  0.1893  0.2682
   67SAPC    HA 5570   1.690   3.822   6.530 -0.1417  0.2523  0.0535
   67SAPC    HB 5571   1.837   3.899   6.506  0.0088  0.1020  0.5603
   67SAPC    C2 5572   1.764   3.949   6.702  0.3021 -0.3053  0.5356
   67SAPC    HS 5573   1.817   3.863   6.748  1.7281 -0.1440 -0.7416
   67SAPC   O21 5574   1.637   3.990   6.764 -0.4759  0.4773 -0.4673
   67SAPC   C21 5575   1.567   3.876   6.794  0.3376 -0.0742 -0.9372
   67SAPC   O22 5576   1.601   3.763   6.763 -0.0600  0.0767  0.2739
   67SAPC   C22 5577   1.461   3.915   6.887 -0.2688 -0.2229 -0.2344
   67SAPC   H2R 5578   1.502   3.946   6.985  1.1637  2.1301 -1.5005
   67SAPC   H2S 5579   1.423   4.008   6.840  3.2667  2.7149  2.1282
   67SAPC    C3 5580   1.869   4.062   6.711  0.0873 -0.0429  0.1860
   67SAPC    HX 5581   1.834   4.148   6.649 -1.4069  0.6104  1.8348
   67SAPC    HY 5582   1.959   4.027   6.656  0.7219  1.7504  0.0216
   67SAPC   O31 5583   1.916   4.083   6.842 -0.0793 -0.6079  0.4489
   67SAPC   C31 5584   1.833   4.156   6.915 -0.8159 -0.0166  0.2411
   67SAPC   O32 5585   1.733   4.213   6.877 -0.1579  0.4523  0.0398
   67SAPC   C32 5586   1.898   4.175   7.052 -0.3801  0.8659  0.6428
   67SAPC   H2X 5587   1.962   4.265   7.035  0.6809  0.1172  0.5625
   67SAPC   H2Y 5588   1.964   4.087   7.067  0.7142  1.8149  1.7019
   67SAPC   C23 5589   1.358   3.806   6.913  0.7873  0.3966  0.6647
   67SAPC   H3R 5590   1.401   3.722   6.971  0.1453 -0.6492 -0.3169
   67SAPC   H3S 5591   1.310   3.760   6.823 -3.0112  0.3329  2.5049
   67SAPC   C24 5592   1.238   3.863   6.993 -0.1285  0.3250  0.6411
   67SAPC   H4R 5593   1.277   3.904   7.089 -1.2688 -0.1852  1.3516
   67SAPC   H4S 5594   1.163   3.783   7.014 -1.0595  0.9219 -0.3118
   67SAPC   C25 5595   1.168   3.968   6.914 -0.1395  0.0581 -0.5197
   67SAPC   H5R 5596   1.135   3.937   6.813 -4.1910  1.8964  0.0426
   67SAPC   C26 5597   1.145   4.095   6.959 -0.0419 -0.0886  0.3034
   67SAPC   H6R 5598   1.091   4.162   6.890 -1.1272  1.1557  2.2538
   67SAPC   C27 5599   1.177   4.170   7.088  0.6668  0.9422  0.2508
   67SAPC   H7R 5600   1.170   4.091   7.167  2.9695 -1.7661 -2.0257
   67SAPC   H7S 5601   1.101   4.248   7.111 -1.3116 -0.6066 -0.6878
   67SAPC   C28 5602   1.321   4.216   7.084  0.1907 -0.1927 -0.3268
   67SAPC   H8R 5603   1.347   4.237   6.979 -1.6717 -0.2877 -0.8419
   67SAPC   C29 5604   1.413   4.225   7.180 -0.3879  0.1450  0.0389
   67SAPC   H9R 5605   1.513   4.266   7.164  0.2453 -0.9944  0.8599
   67SAPC  C210 5606   1.386   4.195   7.323  0.0743  0.0223  0.4940
   67SAPC  H10R 5607   1.442   4.102   7.348  1.3402  0.9658  1.3234
   67SAPC  H10S 5608   1.276   4.188   7.329 -0.0445 -0.1050 -1.2484
   67SAPC  C211 5609   1.427   4.309   7.415 -0.2037  0.6896 -0.0661
   67SAPC  H11R 5610   1.446   4.406   7.368  1.8804  0.2573 -0.1992
   67SAPC  C212 5611   1.449   4.288   7.544 -0.2136  0.0885 -0.2005
   67SAPC  H12R 5612   1.471   4.374   7.609 -0.6822  0.1966 -0.1839
   67SAPC  C213 5613   1.434   4.163   7.624  0.7843  0.8731  0.3640
   67SAPC  H13R 5614   1.511   4.158   7.704  1.3157 -2.2417 -0.2151
   67SAPC  H13S 5615   1.444   4.073   7.559  0.7719 -0.7422  2.4921
   67SAPC  C214 5616   1.301   4.166   7.696  0.3066  0.0813 -0.3116
   67SAPC  H14R 5617   1.244   4.260   7.691  1.4623  0.7673 -0.9793
   67SAPC  C215 5618   1.245   4.058   7.754  0.1526 -0.2859  0.3236
   67SAPC  H15R 5619   1.147   4.075   7.802  0.1753  0.4574  0.1142
   67SAPC  C216 5620   1.305   3.919   7.766 -0.6309  0.2111 -0.1408
   67SAPC  H16R 5621   1.405   3.920   7.718 -0.0384 -0.4811  1.0263
   67SAPC  H16S 5622   1.235   3.848   7.718 -0.3861 -0.0965 -0.0445
   67SAPC  C217 5623   1.347   3.878   7.912  0.4005  0.5331 -0.1013
   67SAPC  H17R 5624   1.417   3.954   7.955  1.4887 -0.1805 -0.5711
   67SAPC  H17S 5625   1.393   3.778   7.900 -1.9907 -0.6212 -0.1506
   67SAPC  C218 5626   1.221   3.859   8.004 -0.5235 -0.4230 -0.4815
   67SAPC  H18R 5627   1.154   3.783   7.958 -0.0430 -0.4127 -1.2115
   67SAPC  H18S 5628   1.176   3.961   8.004 -1.3347 -0.6996 -3.1334
   67SAPC  C219 5629   1.258   3.820   8.147 -0.4993  0.4507 -0.3738
   67SAPC  H19R 5630   1.328   3.899   8.183  0.1207 -0.6485  0.9117
   67SAPC  H19S 5631   1.320   3.728   8.145  0.2639  0.9369 -2.3875
   67SAPC  C220 5632   1.134   3.821   8.238 -0.1180  0.3228  0.1442
   67SAPC  H20R 5633   1.123   3.916   8.295 -0.1002 -0.2390  1.1119
   67SAPC  H20S 5634   1.163   3.754   8.322  2.3214  1.7167  0.4963
   67SAPC  H20T 5635   1.038   3.794   8.190  0.3417 -1.3990  0.1338
   67SAPC   C33 5636   1.807   4.197   7.174 -0.3455  0.5337 -0.5151
   67SAPC   H3X 5637   1.745   4.105   7.171  0.7650 -0.2910  0.2985
   67SAPC   H3Y 5638   1.745   4.288   7.164 -2.0821 -0.7134 -1.4875
   67SAPC   C34 5639   1.897   4.199   7.298  0.0660 -0.9602 -0.6083
   67SAPC   H4X 5640   1.953   4.294   7.312 -3.5247  1.2547  0.0084
   67SAPC   H4Y 5641   1.971   4.116   7.303  2.9948  1.5157  0.3816
   67SAPC   C35 5642   1.810   4.189   7.428 -0.0568 -0.1986 -0.7402
   67SAPC   H5X 5643   1.739   4.106   7.407 -0.0816 -0.1462 -0.8612
   67SAPC   H5Y 5644   1.747   4.279   7.443 -1.4749 -0.8309 -2.5843
   67SAPC   C36 5645   1.891   4.152   7.553 -0.1512  0.4373 -0.4773
   67SAPC   H6X 5646   1.979   4.215   7.577  0.4374 -1.2366  2.1766
   67SAPC   H6Y 5647   1.935   4.051   7.539 -0.8220 -0.0630  0.8485
   67SAPC   C37 5648   1.801   4.137   7.676  0.7607 -0.0311  0.6162
   67SAPC   H7X 5649   1.751   4.038   7.669  2.0522 -0.7821  1.5502
   67SAPC   H7Y 5650   1.723   4.215   7.663 -0.0802 -1.0398 -0.6313
   67SAPC   C38 5651   1.855   4.161   7.812 -0.5879 -0.1498 -0.0575
   67SAPC   H8X 5652   1.899   4.255   7.851 -0.8045 -0.3532  0.6933
   67SAPC   H8Y 5653   1.934   4.086   7.835  0.8692  1.3172 -0.1035
   67SAPC   C39 5654   1.741   4.136   7.912 -0.3653  0.9831  0.1601
   67SAPC   H9X 5655   1.691   4.042   7.881  1.4231 -0.4984  1.5602
   67SAPC   H9Y 5656   1.676   4.225   7.898  2.8664  3.1666 -2.5851
   67SAPC  C310 5657   1.775   4.114   8.066 -0.1187 -0.4348  0.0209
   67SAPC  H10X 5658   1.710   4.184   8.122  0.7076  0.8597 -0.5960
   67SAPC  H10Y 5659   1.876   4.155   8.088 -0.7543  0.3987  1.5315
   67SAPC  C311 5660   1.751   3.975   8.123  0.1633  0.6830 -0.0838
   67SAPC  H11X 5661   1.833   3.904   8.096  0.7677  2.0975 -2.2243
   67SAPC  H11Y 5662   1.655   3.943   8.079 -0.3833  0.8325  0.9778
   67SAPC  C312 5663   1.716   3.962   8.272 -0.3218 -0.4944  0.4545
   67SAPC  H12X 5664   1.637   4.036   8.297  0.7691  0.5240  1.0091
   67SAPC  H12Y 5665   1.809   3.984   8.329 -0.3490 -2.2700  1.2731
   67SAPC  C313 5666   1.652   3.827   8.312 -0.0030  0.3659 -0.0918
   67SAPC  H13X 5667   1.734   3.753   8.297 -1.3954 -1.0499 -1.0459
   67SAPC  H13Y 5668   1.561   3.798   8.255  0.5106  1.0897 -1.3075
   67SAPC  C314 5669   1.607   3.825   8.461 -0.1990 -0.1114 -0.5693
   67SAPC  H14X 5670   1.685   3.871   8.525 -1.6038  0.1997  1.0032
   67SAPC  H14Y 5671   1.606   3.719   8.495 -1.2998 -0.4692 -1.6407
   67SAPC  C315 5672   1.464   3.885   8.479 -0.5733  0.3486  0.0543
   67SAPC  H15X 5673   1.393   3.833   8.410 -0.8784  0.9039 -0.0603
   67SAPC  H15Y 5674   1.458   3.989   8.440  1.1271  0.3467 -0.2912
   67SAPC  C316 5675   1.415   3.895   8.626  0.4514  0.0697  0.2713
   67SAPC  H16X 5676   1.501   3.941   8.678  1.6883 -0.2140 -1.4206
   67SAPC  H16Y 5677   1.386   3.805   8.685 -0.7308  0.3280  0.1258
   67SAPC  C317 5678   1.291   3.993   8.632 -0.1659  0.5491 -0.7006
   67SAPC  H17X 5679   1.207   3.959   8.568 -0.4353  0.1022 -0.1183
   67SAPC  H17Y 5680   1.321   4.095   8.600 -1.6979  1.3936  0.4328
   67SAPC  C318 5681   1.239   3.996   8.778 -0.0806 -0.3105 -0.4650
   67SAPC  H18X 5682   1.321   4.013   8.850  0.4844  1.9958 -1.5699
   67SAPC  H18Y 5683   1.208   3.891   8.799  1.1618 -0.5282  0.3830
   67SAPC  H18Z 5684   1.157   4.071   8.789  0.6916  0.8012 -1.9603
   68SAPC     N 5685   5.376   4.921   6.512  0.4545 -0.4683 -0.1545
   68SAPC   C12 5686   5.525   4.895   6.500  0.1766 -0.2184  0.1095
   68SAPC  H12A 5687   5.542   4.788   6.505 -1.1284 -0.3932  1.1879
   68SAPC  H12B 5688   5.569   4.927   6.593  1.6683 -2.5441  0.3038
   68SAPC   C13 5689   5.322   4.851   6.635 -0.4761  0.2158  0.0086
   68SAPC  H13A 5690   5.352   4.907   6.723 -1.7428 -1.0463  1.2909
   68SAPC  H13B 5691   5.214   4.844   6.630 -0.5453 -0.0976  1.4583
   68SAPC  H13C 5692   5.359   4.750   6.635 -1.8049 -0.2934  0.3119
   68SAPC   C14 5693   5.343   5.069   6.530  0.3831  0.6577 -0.2289
   68SAPC  H14A 5694   5.378   5.111   6.623 -2.2672  1.5955  0.4550
   68SAPC  H14B 5695   5.371   5.120   6.439 -1.7589  1.0887 -0.7193
   68SAPC  H14C 5696   5.235   5.076   6.530  0.3583  0.5071 -1.7450
   68SAPC   C15 5697   5.301   4.870   6.393  0.2399  0.2629 -0.2374
   68SAPC  H15A 5698   5.194   4.880   6.402 -0.1250  0.2023 -3.5125
   68SAPC  H15B 5699   5.330   4.922   6.303  2.3773  1.5461  1.0988
   68SAPC  H15C 5700   5.314   4.763   6.382 -3.0726 -0.3669  0.7976
   68SAPC   C11 5701   5.600   4.951   6.376  0.1187 -0.7132  0.3118
   68SAPC  H11A 5702   5.626   5.058   6.389  0.5850 -1.0588  2.5250
   68SAPC  H11B 5703   5.540   4.958   6.282  0.9238 -0.6869 -0.2115
   68SAPC     P 5704   5.685   4.723   6.270 -0.1745 -0.4004  0.0130
   68SAPC   O13 5705   5.542   4.699   6.249  0.3215 -0.0341 -0.0336
   68SAPC   O14 5706   5.769   4.716   6.156  0.5816  0.1866  0.0115
   68SAPC   O12 5707   5.706   4.866   6.342 -0.1291  0.2564 -0.0774
   68SAPC   O11 5708   5.728   4.628   6.388  0.0258 -0.1274 -0.1896
   68SAPC    C1 5709   5.864   4.600   6.406  0.6503  0.2061 -0.0094
   68SAPC    HA 5710   5.878   4.490   6.394  0.2541 -0.5021  4.3616
   68SAPC    HB 5711   5.939   4.645   6.337  1.8838 -1.0981  0.4245
   68SAPC    C2 5712   5.918   4.627   6.546  0.1065 -1.2939  0.1192
   68SAPC    HS 5713   6.022   4.591   6.560  0.8311  0.1745 -1.2903
   68SAPC   O21 5714   5.841   4.567   6.650  0.5628 -0.5109  0.3925
   68SAPC   C21 5715   5.873   4.437   6.660  0.0525  0.8808 -0.4870
   68SAPC   O22 5716   5.951   4.379   6.586  0.1413  0.1610  0.6677
   68SAPC   C22 5717   5.797   4.368   6.768  0.4417  0.3043  0.3413
   68SAPC   H2R 5718   5.807   4.413   6.869 -0.7106  1.5711 -0.0629
   68SAPC   H2S 5719   5.688   4.381   6.748  0.1984  0.3313  1.6235
   68SAPC    C3 5720   5.911   4.776   6.581 -0.2528 -0.0125 -0.0664
   68SAPC    HX 5721   5.815   4.809   6.537 -0.9637 -1.1915  0.5660
   68SAPC    HY 5722   5.979   4.836   6.516 -2.7722  2.3634 -0.7068
   68SAPC   O31 5723   5.930   4.800   6.721  0.6365  0.3151 -0.1885
   68SAPC   C31 5724   5.861   4.906   6.767  0.5327  0.4173  0.0150
   68SAPC   O32 5725   5.792   4.975   6.697  0.4514 -0.2253  0.3230
   68SAPC   C32 5726   5.885   4.924   6.914  0.2904  0.0452 -0.7029
   68SAPC   H2X 5727   5.989   4.889   6.932  0.1113  0.4353  1.3005
   68SAPC   H2Y 5728   5.819   4.850   6.965  3.2983 -0.6554  2.6067
   68SAPC   C23 5729   5.822   4.214   6.782  0.6674  0.0380 -0.0364
   68SAPC   H3R 5730   5.840   4.169   6.682  0.0704  0.1399 -0.1916
   68SAPC   H3S 5731   5.731   4.163   6.821 -0.5050  0.9893 -1.4360
   68SAPC   C24 5732   5.939   4.192   6.882  0.5345  0.3096  0.3316
   68SAPC   H4R 5733   5.907   4.244   6.975 -0.9085  1.1081 -0.5832
   68SAPC   H4S 5734   6.037   4.229   6.843  0.1477  0.3686 -0.5986
   68SAPC   C25 5735   5.957   4.048   6.905 -0.4251  0.4176 -0.3896
   68SAPC   H5R 5736   5.955   3.981   6.819 -0.7573 -1.4189  0.9896
   68SAPC   C26 5737   5.975   3.993   7.027 -0.4340  0.6593  0.2403
   68SAPC   H6R 5738   5.976   3.883   7.033 -0.5317  0.6672  0.4317
   68SAPC   C27 5739   5.977   4.070   7.159 -0.3696 -0.0124  0.7780
   68SAPC   H7R 5740   6.030   4.167   7.152  0.6517 -0.5884  0.2899
   68SAPC   H7S 5741   6.023   4.011   7.241 -0.2622  2.3972  2.5562
   68SAPC   C28 5742   5.846   4.105   7.216  0.1200  0.0501 -0.0202
   68SAPC   H8R 5743   5.767   4.104   7.139 -0.1042 -1.2605  0.1968
   68SAPC   C29 5744   5.792   4.090   7.338 -0.1681  0.2457 -0.6174
   68SAPC   H9R 5745   5.685   4.111   7.353  0.5843  3.2351  1.2249
   68SAPC  C210 5746   5.878   4.057   7.455 -0.1725  0.6621 -0.8290
   68SAPC  H10R 5747   5.986   4.046   7.432 -0.1897 -0.6968 -0.3919
   68SAPC  H10S 5748   5.852   3.954   7.489  1.6069  1.0632  2.0211
   68SAPC  C211 5749   5.876   4.167   7.558  0.2218  0.0918  0.3812
   68SAPC  H11R 5750   5.922   4.258   7.518 -0.2309 -1.0431 -3.0049
   68SAPC  C212 5751   5.815   4.179   7.678 -0.4364  0.4081 -0.5406
   68SAPC  H12R 5752   5.813   4.274   7.732 -0.5133  0.6695 -1.0047
   68SAPC  C213 5753   5.734   4.066   7.757 -0.6806 -0.2717 -0.4632
   68SAPC  H13R 5754   5.798   3.980   7.786  2.2298  1.3442 -1.6981
   68SAPC  H13S 5755   5.653   4.026   7.691  0.1899  0.3247 -1.9379
   68SAPC  C214 5756   5.661   4.113   7.878 -0.3161  1.2222 -0.0755
   68SAPC  H14R 5757   5.553   4.113   7.859  0.2015  0.1670 -3.9979
   68SAPC  C215 5758   5.712   4.138   7.998  0.3299  0.1649  0.6012
   68SAPC  H15R 5759   5.642   4.156   8.081 -1.4293 -2.1637 -0.2662
   68SAPC  C216 5760   5.852   4.150   8.044 -0.7590 -0.6965 -0.8337
   68SAPC  H16R 5761   5.884   4.256   8.057 -0.1765 -1.1093  1.6645
   68SAPC  H16S 5762   5.926   4.105   7.975  1.2209  2.1226 -0.7279
   68SAPC  C217 5763   5.864   4.074   8.178  0.9377  0.0444  0.3276
   68SAPC  H17R 5764   5.871   3.965   8.159  0.1463  0.2821 -1.5745
   68SAPC  H17S 5765   5.773   4.093   8.239 -0.0976  0.3146 -1.2296
   68SAPC  C218 5766   5.992   4.118   8.245  0.6548 -0.6085 -0.3833
   68SAPC  H18R 5767   5.985   4.226   8.270  2.1549 -0.5138 -0.2511
   68SAPC  H18S 5768   6.066   4.105   8.163  0.8520 -2.4696  0.0380
   68SAPC  C219 5769   6.034   4.035   8.366 -0.3075 -0.1383 -1.6486
   68SAPC  H19R 5770   6.142   4.049   8.388 -0.0654 -0.4131 -2.5835
   68SAPC  H19S 5771   6.013   3.926   8.369  1.2316 -0.4518  1.6631
   68SAPC  C220 5772   5.969   4.100   8.490 -0.1205  0.4280 -0.2082
   68SAPC  H20R 5773   6.028   4.193   8.505  0.9258  0.1641 -2.2959
   68SAPC  H20S 5774   5.968   4.023   8.571 -1.7840  0.5697 -0.0477
   68SAPC  H20T 5775   5.867   4.131   8.460 -0.2173 -0.7029 -1.1356
   68SAPC   C33 5776   5.859   5.066   6.956 -0.2165 -0.7645 -0.4528
   68SAPC   H3X 5777   5.756   5.084   6.919 -0.2348 -2.1579 -1.1656
   68SAPC   H3Y 5778   5.929   5.129   6.898 -2.3480  2.1194 -0.1046
   68SAPC   C34 5779   5.866   5.069   7.107 -0.7421 -0.1246 -0.2301
   68SAPC   H4X 5780   5.858   5.175   7.138  0.1886  0.2051 -1.0403
   68SAPC   H4Y 5781   5.966   5.031   7.139 -1.3659 -1.9792 -0.3739
   68SAPC   C35 5782   5.746   5.020   7.192  0.9177 -0.3237  0.9865
   68SAPC   H5X 5783   5.739   4.909   7.185  1.0476 -0.2265 -1.5940
   68SAPC   H5Y 5784   5.655   5.062   7.144 -0.4596 -0.9637  2.9129
   68SAPC   C36 5785   5.736   5.071   7.339 -0.8657  0.7216 -0.7813
   68SAPC   H6X 5786   5.724   5.181   7.339 -3.7427  0.4943 -1.2142
   68SAPC   H6Y 5787   5.834   5.038   7.379 -0.9083  1.1644 -0.3158
   68SAPC   C37 5788   5.614   4.999   7.401 -0.3305 -0.1578  0.5084
   68SAPC   H7X 5789   5.625   4.889   7.391  0.3346 -0.1429  1.0524
   68SAPC   H7Y 5790   5.524   5.027   7.342  1.1349 -1.9163 -2.7776
   68SAPC   C38 5791   5.592   5.039   7.549  0.5441 -0.6738 -0.0876
   68SAPC   H8X 5792   5.601   5.149   7.563 -2.3759 -0.4705  0.7593
   68SAPC   H8Y 5793   5.674   4.994   7.610 -2.7432 -2.6932  3.2356
   68SAPC   C39 5794   5.447   5.003   7.603 -0.6236  0.0396  0.3150
   68SAPC   H9X 5795   5.423   4.894   7.609 -0.6638  0.1067  1.9289
   68SAPC   H9Y 5796   5.380   5.048   7.528  1.2089 -0.9264 -2.0368
   68SAPC  C310 5797   5.436   5.058   7.745 -0.0622  0.4344 -0.3268
   68SAPC  H10X 5798   5.443   5.168   7.745  1.9950  0.3674 -1.9776
   68SAPC  H10Y 5799   5.517   5.014   7.807  0.4940  1.9584  0.0664
   68SAPC  C311 5800   5.300   5.026   7.808 -0.1763 -0.3038 -0.4955
   68SAPC  H11X 5801   5.303   4.916   7.825 -1.2680 -0.2188  0.3310
   68SAPC  H11Y 5802   5.225   5.040   7.727  0.5787 -1.0519 -1.3546
   68SAPC  C312 5803   5.262   5.107   7.933 -0.1520  0.9595 -0.2904
   68SAPC  H12X 5804   5.164   5.069   7.970  0.9337 -1.3775  0.4368
   68SAPC  H12Y 5805   5.261   5.215   7.907  1.6299  1.4878  1.5775
   68SAPC  C313 5806   5.354   5.077   8.052 -0.6830  0.3640 -0.2707
   68SAPC  H13X 5807   5.461   5.091   8.027  0.0186 -0.6182  2.0121
   68SAPC  H13Y 5808   5.346   4.968   8.069  0.5575 -0.1450 -2.5687
   68SAPC  C314 5809   5.308   5.157   8.173 -0.3674  0.4065 -0.0957
   68SAPC  H14X 5810   5.205   5.123   8.197 -0.0371  0.3792  1.3988
   68SAPC  H14Y 5811   5.306   5.265   8.148 -2.0257  0.4876  0.2478
   68SAPC  C315 5812   5.391   5.130   8.303  1.0244 -1.0186 -0.2399
   68SAPC  H15X 5813   5.345   5.049   8.363 -1.6262  0.0991 -0.6253
   68SAPC  H15Y 5814   5.381   5.225   8.358  1.5753 -0.6816 -0.7016
   68SAPC  C316 5815   5.546   5.114   8.278  0.1508 -0.2984 -0.5399
   68SAPC  H16X 5816   5.574   5.201   8.215  0.2974 -0.1025 -0.2091
   68SAPC  H16Y 5817   5.550   5.020   8.218  1.4850 -2.4602  2.6168
   68SAPC  C317 5818   5.622   5.087   8.406  1.0979 -0.0792  0.3904
   68SAPC  H17X 5819   5.575   4.999   8.454  2.2292  0.5379  2.8269
   68SAPC  H17Y 5820   5.614   5.176   8.473  0.4986  0.2033 -0.0493
   68SAPC  C318 5821   5.767   5.058   8.382  0.0716 -0.0245 -0.1375
   68SAPC  H18X 5822   5.802   5.137   8.312  1.8457 -1.7144 -1.2939
   68SAPC  H18Y 5823   5.779   4.970   8.314 -2.0342  0.1992 -0.8732
   68SAPC  H18Z 5824   5.833   5.058   8.471 -0.1143  0.7792  0.0079
   69SLPC     N 5825   3.496   2.821  11.024  0.1280 -0.8779  0.4003
   69SLPC   C13 5826   3.625   2.878  11.074  0.3027  0.8138 -0.6078
   69SLPC  H13A 5827   3.666   2.945  10.999  0.2692 -0.5312 -1.8763
   69SLPC  H13B 5828   3.607   2.931  11.166  0.9609  0.1046 -0.0673
   69SLPC  H13C 5829   3.702   2.807  11.101 -0.1397  0.5571 -0.0031
   69SLPC   C14 5830   3.432   2.738  11.140 -0.2666 -0.2436  0.6068
   69SLPC  H14A 5831   3.343   2.688  11.104 -0.3574  0.4179 -0.1352
   69SLPC  H14B 5832   3.489   2.650  11.163  0.4555  0.8238  3.1701
   69SLPC  H14C 5833   3.407   2.811  11.215 -1.4712  1.9787 -1.7728
   69SLPC   C15 5834   3.515   2.738  10.902 -0.3630  0.2247  0.8674
   69SLPC  H15A 5835   3.422   2.693  10.871 -1.3979  1.5200  1.9550
   69SLPC  H15B 5836   3.538   2.806  10.822 -3.1769  1.3411  0.8824
   69SLPC  H15C 5837   3.579   2.653  10.921 -0.1596  0.4063  0.9893
   69SLPC   C12 5838   3.400   2.937  10.993 -0.6605  0.7007 -0.0005
   69SLPC  H12A 5839   3.382   2.995  11.082  0.6857  0.9405  0.1325
   69SLPC  H12B 5840   3.302   2.900  10.968 -0.1499 -1.4713  0.9771
   69SLPC   C11 5841   3.438   3.036  10.875  1.0355 -0.4340 -0.3420
   69SLPC  H11A 5842   3.354   3.107  10.864  0.5060 -1.1655 -1.1460
   69SLPC  H11B 5843   3.433   2.975  10.782  1.0739 -2.3386  0.8421
   69SLPC     P 5844   3.586   3.227  10.975 -0.1273 -0.1737  0.1610
   69SLPC   O13 5845   3.504   3.233  11.093 -0.2014  0.2477 -0.2369
   69SLPC   O14 5846   3.729   3.252  10.986  0.6737  0.0047 -0.6690
   69SLPC   O12 5847   3.560   3.094  10.897 -0.3580  0.5387 -0.0322
   69SLPC   O11 5848   3.529   3.334  10.876  0.6182  0.6116  0.3273
   69SLPC    C1 5849   3.583   3.356  10.748  1.3558 -0.3693  0.1104
   69SLPC    HA 5850   3.573   3.465  10.728 -1.5126 -0.2586  1.6202
   69SLPC    HB 5851   3.684   3.323  10.716  0.7907 -0.4904 -1.6521
   69SLPC    C2 5852   3.489   3.289  10.643  0.2161 -0.4357 -0.3390
   69SLPC    HS 5853   3.495   3.179  10.653 -0.7185 -0.3916  0.9962
   69SLPC   O21 5854   3.536   3.333  10.514 -0.2023 -0.0003  0.3758
   69SLPC   C21 5855   3.639   3.270  10.461  0.4365  0.1043  0.4770
   69SLPC   O22 5856   3.699   3.179  10.522  0.1599 -0.0587  0.1200
   69SLPC   C22 5857   3.667   3.315  10.319 -0.8377  0.5243  0.0887
   69SLPC   H2R 5858   3.733   3.403  10.330 -0.7628  0.6364 -1.1926
   69SLPC   H2S 5859   3.729   3.237  10.270 -0.4203  1.7953 -1.4834
   69SLPC    C3 5860   3.342   3.336  10.671 -0.5978  0.1177  0.3596
   69SLPC    HX 5861   3.352   3.438  10.715  1.3507  0.1021  0.0088
   69SLPC    HY 5862   3.302   3.270  10.751 -1.9825  1.5981  0.9589
   69SLPC   O31 5863   3.262   3.330  10.554  0.3191  0.0613 -0.1450
   69SLPC   C31 5864   3.154   3.253  10.557  0.1687 -0.0935  0.5866
   69SLPC   O32 5865   3.115   3.185  10.648 -0.2450 -0.1537 -0.9370
   69SLPC   C32 5866   3.085   3.261  10.421 -0.2522  0.0986  1.4248
   69SLPC   H2X 5867   3.047   3.364  10.401 -2.0063 -0.4178  1.8719
   69SLPC   H2Y 5868   2.996   3.194  10.424  0.5362 -1.4028 -2.4807
   69SLPC   C23 5869   3.537   3.358  10.241 -0.1662  0.9007 -0.1102
   69SLPC   H3R 5870   3.466   3.426  10.294 -3.1435 -2.1678  0.2009
   69SLPC   H3S 5871   3.495   3.259  10.216  2.6794 -0.4528  0.1594
   69SLPC   C24 5872   3.563   3.431  10.107  0.3726 -0.4068 -0.8827
   69SLPC   H4R 5873   3.624   3.524  10.112 -2.3501  1.4918 -0.5906
   69SLPC   H4S 5874   3.466   3.479  10.081  1.0026  0.7426 -1.1838
   69SLPC   C25 5875   3.617   3.347   9.996  0.2860  0.1008  0.4829
   69SLPC   H5R 5876   3.548   3.263   9.974  0.9011 -0.4865  0.7793
   69SLPC   H5S 5877   3.709   3.295  10.030 -0.8482 -0.9773  2.0643
   69SLPC   C26 5878   3.644   3.416   9.865 -0.3058 -0.4954 -0.2325
   69SLPC   H6R 5879   3.693   3.510   9.899  0.0743 -0.1641 -1.6385
   69SLPC   H6S 5880   3.545   3.441   9.820 -1.1782 -1.8338  0.8966
   69SLPC   C27 5881   3.737   3.347   9.760  0.4036 -0.7571  0.2653
   69SLPC   H7R 5882   3.844   3.344   9.790  0.5849 -1.4762 -0.4324
   69SLPC   H7S 5883   3.715   3.415   9.675  0.1677 -1.4456 -0.2285
   69SLPC   C28 5884   3.676   3.218   9.703  0.3749 -0.1837 -0.6625
   69SLPC   H8R 5885   3.566   3.229   9.715  0.2189  1.4593 -2.8783
   69SLPC   H8S 5886   3.702   3.141   9.779 -0.7481  0.8213  0.7819
   69SLPC   C29 5887   3.714   3.187   9.560 -0.8451  0.2090 -0.4542
   69SLPC   H9R 5888   3.822   3.163   9.552 -0.6033  0.3054  1.9082
   69SLPC  C210 5889   3.647   3.203   9.450  0.1857 -0.0263  0.3620
   69SLPC  H10R 5890   3.693   3.187   9.351  0.1976 -0.2455  0.4034
   69SLPC  C211 5891   3.507   3.254   9.432 -0.2193 -0.6438 -0.1020
   69SLPC  H11R 5892   3.443   3.209   9.511 -0.2746  1.3421  1.0684
   69SLPC  H11S 5893   3.462   3.200   9.346 -1.6754  0.7413 -0.2663
   69SLPC  C212 5894   3.484   3.406   9.439 -0.3607 -0.0840 -0.7879
   69SLPC  H12R 5895   3.449   3.432   9.540 -2.3695  1.0167 -1.6990
   69SLPC  C213 5896   3.519   3.496   9.345 -0.1975 -0.0869  0.3689
   69SLPC  H13R 5897   3.503   3.604   9.357 -1.3207 -0.3256  1.2326
   69SLPC  C214 5898   3.590   3.449   9.216  1.0201 -0.0029  0.0527
   69SLPC  H14R 5899   3.651   3.357   9.223 -0.6105 -1.2541 -1.2261
   69SLPC  H14S 5900   3.662   3.526   9.183  1.5506 -0.9030 -0.9667
   69SLPC  C215 5901   3.489   3.422   9.106 -0.6620  0.3019  0.3071
   69SLPC  H15R 5902   3.429   3.515   9.103  1.5967  1.8451  0.6735
   69SLPC  H15S 5903   3.428   3.334   9.135  1.7579 -0.7237  2.6873
   69SLPC  C216 5904   3.552   3.386   8.970  0.4906 -0.4606 -0.2557
   69SLPC  H16R 5905   3.564   3.275   8.969 -1.7405 -0.7469 -0.4471
   69SLPC  H16S 5906   3.648   3.438   8.949  0.4964 -0.7138 -0.8681
   69SLPC  C217 5907   3.449   3.408   8.854  0.0377 -0.4667 -0.0944
   69SLPC  H17R 5908   3.427   3.517   8.860  0.0042 -0.2927 -2.4670
   69SLPC  H17S 5909   3.357   3.346   8.869 -0.5140 -0.0072 -1.3751
   69SLPC  C218 5910   3.506   3.395   8.709 -0.0579  0.1787  0.2501
   69SLPC  H18R 5911   3.432   3.428   8.633 -0.4103  0.8008  0.8481
   69SLPC  H18S 5912   3.529   3.288   8.690  2.0900  0.8258 -1.1193
   69SLPC  H18T 5913   3.598   3.456   8.701 -0.5079  0.5852 -3.0525
   69SLPC   C33 5914   3.177   3.212  10.307 -0.4128  0.2569  0.1006
   69SLPC   H3X 5915   3.207   3.113  10.347 -1.5922 -0.4095 -0.6097
   69SLPC   H3Y 5916   3.264   3.281  10.295 -0.3356  0.3446  1.0480
   69SLPC   C34 5917   3.109   3.195  10.172 -0.0421  0.1566 -0.1328
   69SLPC   H4X 5918   3.081   3.296  10.136  0.4555 -0.8940 -3.9672
   69SLPC   H4Y 5919   3.017   3.133  10.170 -0.0161  0.0920  0.4269
   69SLPC   C35 5920   3.201   3.126  10.070  0.0996 -0.1483  0.5821
   69SLPC   H5X 5921   3.208   3.017  10.090  1.6021 -0.5758 -1.8116
   69SLPC   H5Y 5922   3.303   3.169  10.067  0.5883 -1.2967  0.4581
   69SLPC   C36 5923   3.151   3.146   9.918 -0.1870 -0.0775 -0.1075
   69SLPC   H6X 5924   3.040   3.143   9.928 -0.3576  0.2649 -1.6531
   69SLPC   H6Y 5925   3.180   3.056   9.860  0.9736  0.5287 -0.5062
   69SLPC   C37 5926   3.195   3.285   9.858  0.3647 -0.2488  0.4344
   69SLPC   H7X 5927   3.305   3.295   9.869  0.4081  1.3688 -1.0864
   69SLPC   H7Y 5928   3.150   3.368   9.916 -2.1045  1.4911 -3.5174
   69SLPC   C38 5929   3.134   3.325   9.719  0.3733  0.2762 -0.5997
   69SLPC   H8X 5930   3.024   3.313   9.722  0.4155  0.0876  0.8555
   69SLPC   H8Y 5931   3.172   3.259   9.637 -1.2826  0.7331 -1.7763
   69SLPC   C39 5932   3.162   3.471   9.685  0.5809 -0.3531 -0.7743
   69SLPC   H9X 5933   3.271   3.490   9.674  0.4967  0.5709 -0.1627
   69SLPC   H9Y 5934   3.138   3.538   9.771 -0.4075 -1.1841 -0.3889
   69SLPC  C310 5935   3.078   3.506   9.563 -0.5811 -0.2056  0.3191
   69SLPC  H10X 5936   3.031   3.604   9.585 -0.8386 -0.6491  1.9024
   69SLPC  H10Y 5937   2.989   3.441   9.550 -0.1969 -0.6099 -0.3634
   69SLPC  C311 5938   3.163   3.504   9.427  0.2767 -0.0708 -0.0355
   69SLPC  H11X 5939   3.212   3.409   9.398 -0.8036 -0.4900 -0.5438
   69SLPC  H11Y 5940   3.250   3.573   9.430  2.1976 -2.2898 -1.5520
   69SLPC  C312 5941   3.081   3.523   9.297  0.2452  0.2676 -0.4720
   69SLPC  H12X 5942   2.989   3.462   9.286  0.4558 -0.1811  0.2077
   69SLPC  H12Y 5943   3.151   3.503   9.213  2.1695  3.0687  0.3177
   69SLPC  C313 5944   3.039   3.667   9.278 -0.2908 -1.2473 -0.0827
   69SLPC  H13X 5945   3.131   3.729   9.278 -1.3629  0.4249  0.8024
   69SLPC  H13Y 5946   2.995   3.706   9.372  0.7791 -0.9063  0.2982
   69SLPC  C314 5947   2.959   3.698   9.153 -0.8103 -0.7793  0.6085
   69SLPC  H14X 5948   2.874   3.627   9.154 -0.5697 -1.0823  0.0154
   69SLPC  H14Y 5949   3.026   3.685   9.066 -1.7803  3.1870 -0.9878
   69SLPC  C315 5950   2.921   3.845   9.134  0.9338  0.0326 -0.2166
   69SLPC  H15X 5951   3.012   3.904   9.156 -0.6115  1.5538  2.6281
   69SLPC  H15Y 5952   2.840   3.875   9.204  0.0053 -0.6518 -0.9525
   69SLPC  C316 5953   2.879   3.875   8.984 -0.2966 -0.2961 -0.0995
   69SLPC  H16X 5954   2.792   3.807   8.967 -0.5704 -0.8545  2.9442
   69SLPC  H16Y 5955   2.960   3.837   8.919 -1.1272 -0.8076 -0.8687
   69SLPC  C317 5956   2.840   4.021   8.958  0.8390 -0.2350 -0.3519
   69SLPC  H17X 5957   2.895   4.084   9.032  1.1674 -1.8640  0.8316
   69SLPC  H17Y 5958   2.733   4.035   8.987  1.2280  2.2923  0.1156
   69SLPC  C318 5959   2.845   4.067   8.812 -0.0312  0.4301  0.6751
   69SLPC  H18X 5960   2.949   4.048   8.777 -0.6149 -0.9791 -0.3713
   69SLPC  H18Y 5961   2.814   4.174   8.808 -2.0699 -0.1603 -1.4688
   69SLPC  H18Z 5962   2.774   4.014   8.745  1.1860 -1.9953  1.2112
   70SLPC     N 5963   6.660   6.280  11.158 -0.2177  0.0263  0.8952
   70SLPC   C13 5964   6.740   6.398  11.211 -0.3712 -0.6271 -0.1241
   70SLPC  H13A 5965   6.731   6.486  11.149  1.6260  1.0723  1.8028
   70SLPC  H13B 5966   6.708   6.426  11.311  2.1172  0.5848  0.4166
   70SLPC  H13C 5967   6.846   6.376  11.211 -0.8738 -3.3805 -0.3383
   70SLPC   C14 5968   6.516   6.323  11.166  0.7763 -0.5887 -0.5893
   70SLPC  H14A 5969   6.495   6.389  11.249  1.3962 -1.2499  0.1077
   70SLPC  H14B 5970   6.500   6.401  11.093  1.5746  1.9413  1.7595
   70SLPC  H14C 5971   6.438   6.250  11.151  1.2795 -1.4384  0.7439
   70SLPC   C15 5972   6.676   6.169  11.255 -0.2731  0.7946 -0.9106
   70SLPC  H15A 5973   6.774   6.133  11.285 -1.0420 -0.5719  0.1043
   70SLPC  H15B 5974   6.636   6.202  11.350  0.2189 -1.7083  0.2507
   70SLPC  H15C 5975   6.614   6.086  11.227 -1.0759  0.0905  2.4540
   70SLPC   C12 5976   6.696   6.237  11.013 -0.2003  0.3548 -0.9196
   70SLPC  H12A 5977   6.638   6.152  10.979  0.5925 -0.1352 -1.0812
   70SLPC  H12B 5978   6.796   6.194  11.011 -1.2484 -2.3887  0.1752
   70SLPC   C11 5979   6.688   6.342  10.899  0.2263  0.5353  0.6811
   70SLPC  H11A 5980   6.583   6.378  10.896 -0.7631 -2.1755 -2.1656
   70SLPC  H11B 5981   6.708   6.292  10.802  2.0553 -1.5434  2.0306
   70SLPC     P 5982   6.933   6.418  10.900  0.1307 -0.5586  0.2521
   70SLPC   O13 5983   7.010   6.466  11.012  0.1238  0.3519 -0.5595
   70SLPC   O14 5984   6.950   6.275  10.864  0.0580  0.2895  0.1378
   70SLPC   O12 5985   6.779   6.451  10.921  0.1742  0.3846  0.6773
   70SLPC   O11 5986   6.964   6.500  10.774  0.1522  0.5607  0.1443
   70SLPC    C1 5987   6.891   6.609  10.710  0.0732  0.2461 -0.7719
   70SLPC    HA 5988   6.815   6.643  10.784 -1.1115 -1.4920 -1.1142
   70SLPC    HB 5989   6.951   6.701  10.695  0.3179  0.5893  1.7680
   70SLPC    C2 5990   6.807   6.557  10.594 -0.8728  0.3954 -0.9734
   70SLPC    HS 5991   6.740   6.477  10.632  0.5538 -0.3426  0.0776
   70SLPC   O21 5992   6.900   6.514  10.490  0.1137 -0.5209  0.4640
   70SLPC   C21 5993   6.896   6.385  10.461  0.1548 -0.2635 -0.1808
   70SLPC   O22 5994   6.820   6.300  10.515 -0.7513 -0.6603 -0.0856
   70SLPC   C22 5995   6.986   6.355  10.352  0.0281  0.5852 -0.3274
   70SLPC   H2R 5996   7.089   6.384  10.382 -0.5610  0.5821  1.8854
   70SLPC   H2S 5997   6.980   6.246  10.337 -1.9926  0.9165 -2.5692
   70SLPC    C3 5998   6.722   6.660  10.524 -0.0780  0.0552 -0.0973
   70SLPC    HX 5999   6.794   6.726  10.470  2.2102 -1.4323  0.9819
   70SLPC    HY 6000   6.667   6.719  10.600 -1.4532 -0.2069 -0.8563
   70SLPC   O31 6001   6.627   6.593  10.436  0.2475 -0.0587  0.0426
   70SLPC   C31 6002   6.518   6.658  10.404 -0.2077  0.0356  0.3433
   70SLPC   O32 6003   6.486   6.774  10.439 -0.1807  0.3817  0.5696
   70SLPC   C32 6004   6.420   6.562  10.327  0.1272  0.3397  0.9571
   70SLPC   H2X 6005   6.321   6.569  10.376 -1.3246  0.1256 -1.7664
   70SLPC   H2Y 6006   6.450   6.456  10.342 -0.4538 -0.0453 -0.4701
   70SLPC   C23 6007   6.946   6.429  10.218 -0.2840 -0.3006 -0.1911
   70SLPC   H3R 6008   7.032   6.426  10.148  0.0232 -0.0649  0.1704
   70SLPC   H3S 6009   6.911   6.533  10.238 -2.8944 -1.8755  5.4678
   70SLPC   C24 6010   6.824   6.361  10.149  0.2001  0.1068  0.2603
   70SLPC   H4R 6011   6.727   6.397  10.192 -0.2482 -0.7812  0.0141
   70SLPC   H4S 6012   6.826   6.253  10.173 -1.3067  0.1349  0.6057
   70SLPC   C25 6013   6.821   6.386   9.993  0.4051 -0.6093 -0.7629
   70SLPC   H5R 6014   6.917   6.359   9.944  1.8625  1.1707  0.9298
   70SLPC   H5S 6015   6.796   6.494   9.984 -1.5135 -0.9427  0.0144
   70SLPC   C26 6016   6.708   6.312   9.919 -0.1706 -0.2295  0.4260
   70SLPC   H6R 6017   6.609   6.323   9.967 -1.4192 -2.7873 -1.3608
   70SLPC   H6S 6018   6.742   6.208   9.936  1.1497 -0.2270 -1.8902
   70SLPC   C27 6019   6.684   6.359   9.773 -0.6767 -0.1661  0.6862
   70SLPC   H7R 6020   6.776   6.351   9.711 -1.2107  2.0036 -0.4617
   70SLPC   H7S 6021   6.650   6.464   9.771 -2.2652 -0.6135 -2.9146
   70SLPC   C28 6022   6.562   6.282   9.706  0.3888  0.0458 -0.3232
   70SLPC   H8R 6023   6.533   6.326   9.609  1.2671  1.0004 -0.1593
   70SLPC   H8S 6024   6.481   6.291   9.782  1.3969  0.4912  0.7322
   70SLPC   C29 6025   6.602   6.143   9.695  0.5637 -0.0970 -0.2254
   70SLPC   H9R 6026   6.574   6.076   9.778 -1.5554 -0.7225 -1.3761
   70SLPC  C210 6027   6.651   6.082   9.588 -0.2317 -0.4840 -0.6582
   70SLPC  H10R 6028   6.695   5.983   9.604 -1.0128 -0.6512  0.6784
   70SLPC  C211 6029   6.686   6.139   9.449 -0.2489 -0.1818  0.0493
   70SLPC  H11R 6030   6.773   6.206   9.470 -0.9095  0.2181  1.6939
   70SLPC  H11S 6031   6.607   6.211   9.419  0.4875 -0.4636 -2.8171
   70SLPC  C212 6032   6.722   6.035   9.346 -0.4982 -0.3347 -0.6754
   70SLPC  H12R 6033   6.786   5.949   9.370  1.7168  1.1504 -0.8534
   70SLPC  C213 6034   6.671   6.043   9.222 -0.5626  0.1947  0.0216
   70SLPC  H13R 6035   6.700   5.954   9.163  1.0032 -0.8506  2.1919
   70SLPC  C214 6036   6.578   6.144   9.166  1.0461 -0.1104 -0.6508
   70SLPC  H14R 6037   6.619   6.242   9.198  0.6488 -0.0171 -0.4125
   70SLPC  H14S 6038   6.476   6.138   9.210  2.0916  5.0801  3.6534
   70SLPC  C215 6039   6.584   6.137   9.014 -0.7874  0.1371  0.2448
   70SLPC  H15R 6040   6.497   6.191   8.972  1.5871  3.6867 -0.6220
   70SLPC  H15S 6041   6.580   6.036   8.968 -0.2345  0.1597  0.1394
   70SLPC  C216 6042   6.704   6.219   8.965 -0.1781 -0.2012  0.5861
   70SLPC  H16R 6043   6.805   6.173   8.977 -0.7925 -2.3764 -1.7795
   70SLPC  H16S 6044   6.689   6.311   9.026 -1.0515  0.3477 -0.4350
   70SLPC  C217 6045   6.700   6.247   8.807  0.4118  0.0524 -0.1358
   70SLPC  H17R 6046   6.594   6.278   8.794  0.1703 -0.1851  1.0932
   70SLPC  H17S 6047   6.715   6.162   8.737  1.2094  0.4857 -0.4999
   70SLPC  C218 6048   6.809   6.347   8.755  1.0867 -0.5870  0.1583
   70SLPC  H18R 6049   6.907   6.311   8.792  0.7409 -1.3051  0.4125
   70SLPC  H18S 6050   6.778   6.441   8.805 -2.6482 -2.2754  1.4353
   70SLPC  H18T 6051   6.792   6.346   8.645 -0.9579  0.6962  0.4199
   70SLPC   C33 6052   6.415   6.599  10.176  0.5701  0.6472 -0.3749
   70SLPC   H3X 6053   6.516   6.583  10.133  0.7376 -1.3776  0.6400
   70SLPC   H3Y 6054   6.387   6.704  10.156 -0.3319  0.3169 -0.8959
   70SLPC   C34 6055   6.327   6.499  10.099  0.1021 -0.3521  0.1340
   70SLPC   H4X 6056   6.229   6.492  10.152 -0.0414 -0.2911 -0.1249
   70SLPC   H4Y 6057   6.369   6.397  10.111  0.7039 -0.1409 -0.1580
   70SLPC   C35 6058   6.319   6.551   9.958  0.2211 -0.2919 -0.8999
   70SLPC   H5X 6059   6.426   6.544   9.928  1.0085 -2.7861  1.9313
   70SLPC   H5Y 6060   6.274   6.653   9.951  0.8781  0.0126 -0.7645
   70SLPC   C36 6061   6.249   6.452   9.868 -0.3959  0.1004 -0.0499
   70SLPC   H6X 6062   6.144   6.437   9.901 -0.1118 -0.4151  0.6472
   70SLPC   H6Y 6063   6.305   6.357   9.884  1.2499  1.3143  1.7109
   70SLPC   C37 6064   6.262   6.493   9.717  0.5686  0.2556  0.0497
   70SLPC   H7X 6065   6.373   6.498   9.710  0.6912 -2.2958 -0.4624
   70SLPC   H7Y 6066   6.216   6.593   9.702 -0.0245  0.0829  0.6842
   70SLPC   C38 6067   6.213   6.394   9.617 -0.0838 -0.0887  0.3571
   70SLPC   H8X 6068   6.111   6.360   9.646 -0.0319 -1.6957 -1.1859
   70SLPC   H8Y 6069   6.283   6.307   9.614 -0.4663 -0.3716 -0.8670
   70SLPC   C39 6070   6.189   6.446   9.478 -0.3880  0.1752 -0.3232
   70SLPC   H9X 6071   6.116   6.527   9.500 -1.4000 -1.1618  1.5389
   70SLPC   H9Y 6072   6.139   6.371   9.414  0.2113  1.3062 -2.2076
   70SLPC  C310 6073   6.316   6.484   9.403 -0.2179 -0.1336 -0.2051
   70SLPC  H10X 6074   6.392   6.403   9.416  0.2545  0.3736  0.2600
   70SLPC  H10Y 6075   6.361   6.568   9.460 -1.6976  0.6622 -0.1734
   70SLPC  C311 6076   6.295   6.505   9.256  0.3549 -0.0370 -0.0334
   70SLPC  H11X 6077   6.209   6.570   9.231  1.0452  0.2855 -1.7320
   70SLPC  H11Y 6078   6.260   6.408   9.218  0.1904 -0.3818  0.9642
   70SLPC  C312 6079   6.410   6.559   9.186 -0.7267 -0.6469  0.2178
   70SLPC  H12X 6080   6.456   6.485   9.117 -1.6257 -0.0566 -1.0328
   70SLPC  H12Y 6081   6.490   6.590   9.257  1.4055 -1.6408 -1.6036
   70SLPC  C313 6082   6.378   6.673   9.085  0.4774 -0.1155 -0.3214
   70SLPC  H13X 6083   6.334   6.748   9.154  1.5437  0.3580 -0.1359
   70SLPC  H13Y 6084   6.303   6.632   9.014 -0.1156  0.4112 -0.0023
   70SLPC  C314 6085   6.492   6.742   9.012 -0.4585  0.1990 -0.3893
   70SLPC  H14X 6086   6.575   6.748   9.085 -2.1744  0.9733  1.6272
   70SLPC  H14Y 6087   6.472   6.849   8.988  0.7450  0.3794 -0.6198
   70SLPC  C315 6088   6.546   6.665   8.883 -0.1602 -0.0651  0.5251
   70SLPC  H15X 6089   6.459   6.654   8.815  1.2699  0.6897 -1.5396
   70SLPC  H15Y 6090   6.579   6.569   8.929 -2.6387 -0.5169  1.5507
   70SLPC  C316 6091   6.654   6.734   8.801 -0.0885 -0.8059 -0.2809
   70SLPC  H16X 6092   6.629   6.837   8.770  0.9097 -0.4067  0.1722
   70SLPC  H16Y 6093   6.686   6.686   8.706 -1.1728  0.2798 -1.2270
   70SLPC  C317 6094   6.777   6.749   8.890  0.1429  0.9109  0.2751
   70SLPC  H17X 6095   6.818   6.647   8.905 -0.6722  0.3674 -1.0592
   70SLPC  H17Y 6096   6.755   6.794   8.989  1.3636 -0.0078  1.0000
   70SLPC  C318 6097   6.885   6.840   8.824  0.1326  0.0989  0.1318
   70SLPC  H18X 6098   6.852   6.944   8.802 -0.6118 -0.2297 -0.3475
   70SLPC  H18Y 6099   6.922   6.788   8.733  2.4265 -0.6969  1.4339
   70SLPC  H18Z 6100   6.981   6.855   8.879  0.4608 -1.2025 -0.0532
   71SLPC     N 6101   6.079   4.664  10.866 -0.0572  0.9395  0.3213
   71SLPC   C13 6102   6.098   4.789  10.949  0.9686  0.0107 -0.2850
   71SLPC  H13A 6103   6.130   4.876  10.894  1.0464  0.4119  0.3840
   71SLPC  H13B 6104   6.006   4.815  10.999  0.6128  0.1933 -1.0169
   71SLPC  H13C 6105   6.166   4.779  11.032  0.8482  2.0304  0.1031
   71SLPC   C14 6106   6.013   4.558  10.951  0.1514 -0.2539 -0.4344
   71SLPC  H14A 6107   6.082   4.521  11.025 -0.1179  1.2233  0.6124
   71SLPC  H14B 6108   5.921   4.598  10.992  0.0302 -0.0052 -0.9354
   71SLPC  H14C 6109   5.986   4.480  10.882  1.6410  0.7874 -2.2991
   71SLPC   C15 6110   6.222   4.616  10.832  0.2335  0.7336  0.0116
   71SLPC  H15A 6111   6.230   4.528  10.770  0.5326 -0.1060  1.2132
   71SLPC  H15B 6112   6.277   4.695  10.783 -2.6539  2.4523 -0.6886
   71SLPC  H15C 6113   6.272   4.604  10.927 -1.4940  1.5378  1.0734
   71SLPC   C12 6114   6.008   4.704  10.734  0.1070  0.4547  0.1589
   71SLPC  H12A 6115   5.920   4.759  10.764  0.8928  0.5400  2.4750
   71SLPC  H12B 6116   5.989   4.612  10.680  0.3769  1.6594 -2.1455
   71SLPC   C11 6117   6.078   4.809  10.634 -0.4193  0.4164  0.2366
   71SLPC  H11A 6118   6.021   4.819  10.539  0.0841  0.8919 -0.0216
   71SLPC  H11B 6119   6.178   4.768  10.612  0.0621  2.2847 -1.3444
   71SLPC     P 6120   5.979   5.027  10.718 -0.3192 -0.1049 -0.0091
   71SLPC   O13 6121   5.846   4.963  10.713  0.0551 -0.1553  0.3775
   71SLPC   O14 6122   6.011   5.095  10.844 -0.0925  0.6931  0.2992
   71SLPC   O12 6123   6.101   4.936  10.698 -0.1205 -0.3763 -0.2096
   71SLPC   O11 6124   5.997   5.129  10.599 -0.1114 -0.7899 -0.2006
   71SLPC    C1 6125   6.119   5.205  10.597  0.4123 -0.0146 -0.7215
   71SLPC    HA 6126   6.198   5.166  10.665 -0.9495  1.6566  1.9709
   71SLPC    HB 6127   6.153   5.203  10.491 -0.9530 -2.3851 -1.2106
   71SLPC    C2 6128   6.094   5.350  10.631  0.3594 -0.1867  0.4412
   71SLPC    HS 6129   6.025   5.340  10.717  1.4836 -4.2523  1.1033
   71SLPC   O21 6130   6.004   5.405  10.530 -0.2421  0.8790  0.2070
   71SLPC   C21 6131   5.947   5.524  10.560 -0.7934  0.3922  0.3500
   71SLPC   O22 6132   5.961   5.582  10.666  0.1169  0.3700 -0.1245
   71SLPC   C22 6133   5.896   5.589  10.430  0.2666  0.0720  0.6152
   71SLPC   H2R 6134   5.854   5.510  10.365  1.5905 -0.0518 -0.1252
   71SLPC   H2S 6135   5.821   5.665  10.462  1.2039  2.2309 -1.9208
   71SLPC    C3 6136   6.224   5.443  10.647  0.0661 -0.6880 -0.1729
   71SLPC    HX 6137   6.269   5.402  10.740 -1.6745  1.5836  1.7830
   71SLPC    HY 6138   6.183   5.541  10.679 -1.6042 -0.7691 -1.9413
   71SLPC   O31 6139   6.314   5.453  10.531 -0.1228 -0.1809 -0.8143
   71SLPC   C31 6140   6.341   5.577  10.492  0.3865 -0.5337  0.1900
   71SLPC   O32 6141   6.293   5.679  10.547 -0.2760  0.1265  0.0828
   71SLPC   C32 6142   6.427   5.573  10.372  0.0770  0.6574 -0.0179
   71SLPC   H2X 6143   6.369   5.520  10.293  1.3488 -2.3734  0.9215
   71SLPC   H2Y 6144   6.511   5.507  10.402 -0.2486 -0.0768 -0.6927
   71SLPC   C23 6145   6.009   5.665  10.354  0.9015 -0.0413 -0.3825
   71SLPC   H3R 6146   6.090   5.594  10.329 -0.9221 -2.2527 -0.3517
   71SLPC   H3S 6147   6.044   5.746  10.422 -0.9619  1.0395 -0.6260
   71SLPC   C24 6148   5.968   5.734  10.223 -0.7187 -0.4194  0.2287
   71SLPC   H4R 6149   6.056   5.781  10.176 -0.1813  0.4009  1.9628
   71SLPC   H4S 6150   5.904   5.821  10.252  0.0015 -0.2368  1.3410
   71SLPC   C25 6151   5.903   5.651  10.111  0.5717 -0.7566 -0.0412
   71SLPC   H5R 6152   5.846   5.724  10.050 -1.1405 -0.6177  1.6435
   71SLPC   H5S 6153   5.827   5.585  10.159 -1.4154  0.3653 -1.5101
   71SLPC   C26 6154   5.999   5.563  10.028  0.2319  0.0630 -0.2085
   71SLPC   H6R 6155   6.053   5.496  10.099  3.9160  3.1624  0.2342
   71SLPC   H6S 6156   6.076   5.634   9.990  0.0949 -0.7889 -2.1941
   71SLPC   C27 6157   5.924   5.508   9.914 -1.1480  0.7625 -0.4874
   71SLPC   H7R 6158   5.897   5.596   9.852 -0.5956  0.3547 -1.3182
   71SLPC   H7S 6159   5.842   5.449   9.960 -1.0743  0.3912 -0.8316
   71SLPC   C28 6160   6.019   5.430   9.820 -0.1654 -0.0493 -0.4212
   71SLPC   H8R 6161   6.054   5.350   9.888  0.8818  1.2448  0.6021
   71SLPC   H8S 6162   6.106   5.494   9.795  0.4916 -0.4812  0.7032
   71SLPC   C29 6163   5.943   5.359   9.710 -0.6135  0.0122  0.3410
   71SLPC   H9R 6164   5.865   5.304   9.764 -0.1276  0.2365  1.3064
   71SLPC  C210 6165   5.969   5.350   9.583  0.0082 -0.4551  0.2823
   71SLPC  H10R 6166   5.888   5.297   9.530  0.7550 -2.4727  1.0461
   71SLPC  C211 6167   6.074   5.421   9.503 -0.2878  0.0512 -0.1648
   71SLPC  H11R 6168   6.137   5.339   9.462 -2.6311 -1.9215 -0.0439
   71SLPC  H11S 6169   6.145   5.478   9.567 -0.2869  0.2760 -0.3620
   71SLPC  C212 6170   6.013   5.514   9.408  0.4753  0.1825  0.0451
   71SLPC  H12R 6171   5.984   5.612   9.450 -0.2525 -1.6557  4.2990
   71SLPC  C213 6172   5.974   5.484   9.284 -0.3420 -0.3203  0.3518
   71SLPC  H13R 6173   5.932   5.569   9.228  1.0097 -0.0108 -0.2366
   71SLPC  C214 6174   6.002   5.356   9.208 -0.4550 -0.5553  0.1230
   71SLPC  H14R 6175   5.975   5.270   9.273 -1.4187 -1.6973 -1.7112
   71SLPC  H14S 6176   6.110   5.348   9.182 -1.0874 -0.0040 -3.1258
   71SLPC  C215 6177   5.935   5.345   9.066 -0.4654  0.1010  0.3889
   71SLPC  H15R 6178   5.974   5.432   9.010 -3.0971  3.3752  3.1688
   71SLPC  H15S 6179   5.824   5.355   9.075 -0.7637 -1.9412 -0.4690
   71SLPC  C216 6180   5.977   5.209   9.008  0.2918 -0.3131  0.0241
   71SLPC  H16R 6181   5.964   5.127   9.082  0.4084  1.1226  1.7059
   71SLPC  H16S 6182   6.085   5.223   8.986  0.4050  2.5026  1.7990
   71SLPC  C217 6183   5.907   5.171   8.879  0.0300  0.1052 -0.0684
   71SLPC  H17R 6184   5.797   5.166   8.891 -0.0412  0.1506 -0.6878
   71SLPC  H17S 6185   5.947   5.071   8.852 -1.0482  0.3109 -2.7224
   71SLPC  C218 6186   5.934   5.272   8.764 -0.1923 -0.0288  1.0285
   71SLPC  H18R 6187   5.865   5.270   8.677 -0.9650  3.1749  1.4526
   71SLPC  H18S 6188   6.037   5.265   8.721 -0.6325  1.2401 -0.3171
   71SLPC  H18T 6189   5.930   5.379   8.791 -3.1984 -0.1250  1.2638
   71SLPC   C33 6190   6.483   5.711  10.344  0.6157  0.2317 -0.1837
   71SLPC   H3X 6191   6.581   5.701  10.292  0.2731  1.0667 -1.0212
   71SLPC   H3Y 6192   6.503   5.766  10.438 -0.9530 -1.1319  1.0218
   71SLPC   C34 6193   6.404   5.813  10.260  0.1435  0.3757  0.1697
   71SLPC   H4X 6194   6.471   5.896  10.228 -1.2912  1.0114 -1.2960
   71SLPC   H4Y 6195   6.326   5.855  10.327 -0.3151 -1.0863  0.5830
   71SLPC   C35 6196   6.363   5.759  10.123 -0.5728 -0.6666  0.3148
   71SLPC   H5X 6197   6.278   5.813  10.078  1.9735  2.7591 -0.8169
   71SLPC   H5Y 6198   6.317   5.658  10.133  0.1998 -1.4335 -2.8508
   71SLPC   C36 6199   6.476   5.751  10.017 -0.0550 -0.0344  0.3034
   71SLPC   H6X 6200   6.564   5.702  10.064 -1.1825 -1.6510  0.8127
   71SLPC   H6Y 6201   6.493   5.853   9.976  0.8527 -0.0705  0.5837
   71SLPC   C37 6202   6.438   5.668   9.884 -0.0291  0.2130 -0.1768
   71SLPC   H7X 6203   6.329   5.671   9.863 -0.2300 -0.9895  0.5656
   71SLPC   H7Y 6204   6.474   5.563   9.897  1.5006  0.7735  0.3858
   71SLPC   C38 6205   6.518   5.715   9.760  0.2272  0.6095  0.7889
   71SLPC   H8X 6206   6.627   5.712   9.782  0.0188  0.6545  1.8969
   71SLPC   H8Y 6207   6.497   5.824   9.747  0.8638  0.5881 -0.6114
   71SLPC   C39 6208   6.479   5.634   9.636 -0.4322  0.2429 -0.8595
   71SLPC   H9X 6209   6.368   5.625   9.632 -0.5062  0.6776  0.0855
   71SLPC   H9Y 6210   6.506   5.526   9.639  2.6715  0.9457 -0.6976
   71SLPC  C310 6211   6.540   5.690   9.507 -0.1405  0.4317 -0.0921
   71SLPC  H10X 6212   6.644   5.725   9.524 -0.8224  2.4113  0.2862
   71SLPC  H10Y 6213   6.486   5.785   9.491  0.2611  0.8236  0.7869
   71SLPC  C311 6214   6.544   5.592   9.385  0.1500 -0.5056 -0.0280
   71SLPC  H11X 6215   6.441   5.567   9.351  0.0525  1.8955 -1.8234
   71SLPC  H11Y 6216   6.584   5.493   9.416 -2.7425 -1.4804  0.8282
   71SLPC  C312 6217   6.624   5.655   9.278 -0.7701 -0.4029  0.2424
   71SLPC  H12X 6218   6.729   5.679   9.306 -0.6161 -0.3410 -0.3695
   71SLPC  H12Y 6219   6.579   5.756   9.272 -0.8743 -0.4555  0.1202
   71SLPC  C313 6220   6.637   5.579   9.149 -0.3379  0.0826  0.0440
   71SLPC  H13X 6221   6.535   5.542   9.127 -0.9733 -0.4040  3.2360
   71SLPC  H13Y 6222   6.709   5.495   9.143  1.8235  1.8412 -0.1011
   71SLPC  C314 6223   6.690   5.683   9.040  0.3902 -0.1126 -0.2519
   71SLPC  H14X 6224   6.784   5.732   9.072  0.7269 -0.4164 -0.7589
   71SLPC  H14Y 6225   6.617   5.766   9.047 -1.2396 -1.5237  0.5947
   71SLPC  C315 6226   6.712   5.626   8.898  0.0656  0.4103 -0.2483
   71SLPC  H15X 6227   6.615   5.602   8.849  0.6505  0.4080 -1.4286
   71SLPC  H15Y 6228   6.770   5.532   8.898 -2.8983 -1.5879  1.0395
   71SLPC  C316 6229   6.773   5.732   8.816 -0.2008  0.2697 -0.0557
   71SLPC  H16X 6230   6.871   5.745   8.866 -1.0692  1.2229  1.4823
   71SLPC  H16Y 6231   6.720   5.828   8.833 -0.3548  0.7312 -2.6589
   71SLPC  C317 6232   6.789   5.695   8.667  0.0400  0.3147 -0.3977
   71SLPC  H17X 6233   6.692   5.710   8.616 -0.3982  0.8179  0.5678
   71SLPC  H17Y 6234   6.813   5.586   8.672 -0.3504  0.2539  0.2150
   71SLPC  C318 6235   6.908   5.748   8.591  0.2695 -0.5975  0.4705
   71SLPC  H18X 6236   6.902   5.729   8.481  1.8284  2.1003 -0.1835
   71SLPC  H18Y 6237   7.007   5.706   8.618 -0.8430 -3.0275  0.9916
   71SLPC  H18Z 6238   6.913   5.858   8.608 -0.6866 -0.3568 -0.6392
   72SLPC     N 6239   6.364   2.540  11.284 -0.2278 -0.8847  0.5086
   72SLPC   C13 6240   6.485   2.580  11.207 -0.0032 -0.6531 -0.3290
   72SLPC  H13A 6241   6.459   2.666  11.147  0.9367  0.2939  0.5735
   72SLPC  H13B 6242   6.570   2.607  11.268  1.1444  0.4002 -2.2944
   72SLPC  H13C 6243   6.512   2.504  11.135  1.3173  1.1019 -1.7539
   72SLPC   C14 6244   6.290   2.661  11.331  0.0938 -0.4536  0.3180
   72SLPC  H14A 6245   6.280   2.738  11.256 -1.5102  1.8170  2.6811
   72SLPC  H14B 6246   6.193   2.633  11.369  0.0935 -1.3373 -0.3113
   72SLPC  H14C 6247   6.347   2.720  11.402  0.1116  0.1728 -0.2094
   72SLPC   C15 6248   6.416   2.451  11.394 -0.3212  0.0367  0.7795
   72SLPC  H15A 6249   6.478   2.505  11.464  0.7920 -1.0251  0.6615
   72SLPC  H15B 6250   6.334   2.402  11.445 -0.9575  0.9661  0.6623
   72SLPC  H15C 6251   6.483   2.375  11.354 -0.3073 -0.5791  1.9148
   72SLPC   C12 6252   6.274   2.461  11.191  0.2263 -0.5017  0.8377
   72SLPC  H12A 6253   6.191   2.431  11.253 -0.3696  0.9285  0.7796
   72SLPC  H12B 6254   6.333   2.375  11.163  1.6435  0.4859  0.6761
   72SLPC   C11 6255   6.214   2.534  11.066 -0.2183  0.4859  0.2222
   72SLPC  H11A 6256   6.150   2.621  11.094 -0.2977  0.3932  0.3343
   72SLPC  H11B 6257   6.135   2.472  11.019  0.6657  1.2336 -2.4465
   72SLPC     P 6258   6.370   2.476  10.866 -0.0927  0.2787 -0.0846
   72SLPC   O13 6259   6.487   2.549  10.812  0.5546  0.1155 -0.8269
   72SLPC   O14 6260   6.396   2.345  10.939  0.0786 -0.3758  0.3979
   72SLPC   O12 6261   6.312   2.578  10.973  0.6009 -0.1144 -0.1554
   72SLPC   O11 6262   6.252   2.461  10.761 -0.2844 -0.7186  0.3725
   72SLPC    C1 6263   6.220   2.576  10.676 -0.0528 -0.9351  0.0047
   72SLPC    HA 6264   6.212   2.664  10.742 -0.8463 -0.9213 -0.0956
   72SLPC    HB 6265   6.296   2.597  10.598  0.3943  2.5800  1.1982
   72SLPC    C2 6266   6.090   2.563  10.592  0.4529 -1.3036 -0.6706
   72SLPC    HS 6267   6.011   2.516  10.655 -0.3974 -0.3218 -0.9815
   72SLPC   O21 6268   6.116   2.486  10.474  0.0338  0.0115  0.2409
   72SLPC   C21 6269   6.008   2.426  10.428 -0.2317 -0.1389 -0.4315
   72SLPC   O22 6270   5.904   2.409  10.490  0.2175  0.0073 -0.5467
   72SLPC   C22 6271   6.021   2.393  10.279 -0.1751  0.1297  0.0130
   72SLPC   H2R 6272   5.928   2.425  10.228 -0.1440 -0.0414 -0.1526
   72SLPC   H2S 6273   6.103   2.447  10.227  0.1866 -1.5192 -1.2032
   72SLPC    C3 6274   6.035   2.711  10.562 -0.0379 -0.1772  0.6196
   72SLPC    HX 6275   6.029   2.763  10.659  0.7771  2.3727 -0.6133
   72SLPC    HY 6276   5.936   2.706  10.513  0.0067 -1.5144  0.6200
   72SLPC   O31 6277   6.129   2.785  10.474  0.0834 -0.3731  0.3584
   72SLPC   C31 6278   6.086   2.907  10.441 -0.2653  0.1760  0.1149
   72SLPC   O32 6279   5.996   2.968  10.496 -0.0517  0.4175 -0.2999
   72SLPC   C32 6280   6.175   2.963  10.332 -0.2436  0.1764 -0.7077
   72SLPC   H2X 6281   6.282   2.944  10.354 -0.7840 -0.8906  1.2339
   72SLPC   H2Y 6282   6.158   3.073  10.337  1.1792  0.4209 -0.6995
   72SLPC   C23 6283   6.040   2.240  10.252  0.3470 -0.4400  0.8786
   72SLPC   H3R 6284   5.964   2.177  10.302  0.5979 -1.5674 -0.1319
   72SLPC   H3S 6285   6.144   2.210  10.278  2.4650  2.0132 -3.5186
   72SLPC   C24 6286   6.035   2.211  10.104 -0.0135  0.4243  0.2172
   72SLPC   H4R 6287   6.102   2.279  10.046 -0.8461  0.2158 -1.0291
   72SLPC   H4S 6288   5.939   2.249  10.063 -1.2819 -0.4521  2.2247
   72SLPC   C25 6289   6.057   2.056  10.069  0.5799 -0.7429  0.2722
   72SLPC   H5R 6290   6.164   2.037  10.093  0.4175 -1.9433  0.0911
   72SLPC   H5S 6291   6.029   2.036   9.964 -1.2142  0.3405  0.5061
   72SLPC   C26 6292   5.968   1.962  10.145  0.1201  0.2772 -0.3333
   72SLPC   H6R 6293   5.862   1.994  10.141  0.0848  0.0384 -1.9416
   72SLPC   H6S 6294   6.000   1.965  10.251  1.7397  2.2970 -0.8275
   72SLPC   C27 6295   5.967   1.816  10.094 -0.2475  0.0722  0.1845
   72SLPC   H7R 6296   5.931   1.735  10.161 -0.3181 -1.0781 -1.1870
   72SLPC   H7S 6297   6.070   1.785  10.067 -0.9043  0.5064 -3.4394
   72SLPC   C28 6298   5.877   1.800   9.974  0.2446 -0.5207  0.5013
   72SLPC   H8R 6299   5.877   1.885   9.902  0.7783 -0.9800 -0.0544
   72SLPC   H8S 6300   5.776   1.784  10.017  0.2514 -4.0444 -0.5127
   72SLPC   C29 6301   5.901   1.669   9.903 -0.7350 -0.3203 -0.2231
   72SLPC   H9R 6302   5.823   1.595   9.926  0.3536 -1.3629  0.2612
   72SLPC  C210 6303   5.974   1.658   9.787  0.1535  0.2186 -0.1236
   72SLPC  H10R 6304   5.989   1.561   9.738  1.7663  0.1409  0.4736
   72SLPC  C211 6305   6.049   1.777   9.724 -0.2795 -0.3866 -0.0283
   72SLPC  H11R 6306   6.131   1.737   9.661 -0.5839  1.1063 -1.4276
   72SLPC  H11S 6307   6.088   1.847   9.801  0.0742 -2.0857  1.4171
   72SLPC  C212 6308   5.949   1.848   9.637 -0.4020 -0.2662 -1.1545
   72SLPC  H12R 6309   5.886   1.912   9.700 -1.7733 -3.3970  0.9182
   72SLPC  C213 6310   5.937   1.856   9.504  0.6182  0.1223  0.5842
   72SLPC  H13R 6311   5.844   1.905   9.472  0.2878 -1.2786 -0.7172
   72SLPC  C214 6312   6.024   1.791   9.398 -0.4401 -0.0775  0.0899
   72SLPC  H14R 6313   5.997   1.688   9.367  1.9354  0.0025 -2.5548
   72SLPC  H14S 6314   6.123   1.768   9.442 -0.2661 -0.6860 -0.6070
   72SLPC  C215 6315   6.035   1.874   9.269  0.1459  1.0541 -0.1108
   72SLPC  H15R 6316   5.939   1.889   9.217 -0.6480  1.6546  1.4598
   72SLPC  H15S 6317   6.111   1.831   9.200  0.0909 -1.1655  1.0984
   72SLPC  C216 6318   6.089   2.016   9.304 -0.0235  0.1369  0.1320
   72SLPC  H16R 6319   6.189   1.996   9.349 -0.7699  1.4322  2.4990
   72SLPC  H16S 6320   6.034   2.061   9.389  0.2036  0.5524  0.0607
   72SLPC  C217 6321   6.088   2.105   9.178 -0.3248  0.9050 -0.7007
   72SLPC  H17R 6322   6.128   2.202   9.213  1.9888  0.3398 -1.6159
   72SLPC  H17S 6323   5.986   2.099   9.134 -1.4253 -2.8755  1.8891
   72SLPC  C218 6324   6.193   2.064   9.080 -0.3817  0.1600  0.4079
   72SLPC  H18R 6325   6.186   2.110   8.979  1.5297  1.4242  0.7839
   72SLPC  H18S 6326   6.179   1.956   9.060  1.9033 -0.2190  0.5288
   72SLPC  H18T 6327   6.297   2.073   9.120  0.4227  0.3761 -1.5928
   72SLPC   C33 6328   6.150   2.912  10.190  0.7714 -0.2243 -0.0542
   72SLPC   H3X 6329   6.217   2.974  10.127 -0.4662  0.5848 -0.6325
   72SLPC   H3Y 6330   6.045   2.930  10.157  0.5170  0.7436  1.1980
   72SLPC   C34 6331   6.186   2.765  10.168  0.2552 -0.1967  0.1756
   72SLPC   H4X 6332   6.103   2.705  10.211  0.1438 -1.0109 -1.1273
   72SLPC   H4Y 6333   6.278   2.735  10.223  0.5132  0.3098  0.0241
   72SLPC   C35 6334   6.205   2.717  10.025  0.3548  0.1337 -0.6686
   72SLPC   H5X 6335   6.283   2.783   9.982  2.6357 -1.9815 -0.0162
   72SLPC   H5Y 6336   6.104   2.721   9.977 -0.0443 -0.7366  0.0638
   72SLPC   C36 6337   6.270   2.584  10.008 -0.1915  0.6688  0.2232
   72SLPC   H6X 6338   6.215   2.506  10.064  2.7812 -2.2441 -0.5836
   72SLPC   H6Y 6339   6.374   2.581  10.046 -0.6711 -0.9328  1.5419
   72SLPC   C37 6340   6.254   2.529   9.861  0.5549 -0.1501 -0.0847
   72SLPC   H7X 6341   6.277   2.607   9.786  0.1213 -0.7918 -0.9093
   72SLPC   H7Y 6342   6.146   2.503   9.850  1.0040 -1.3188 -2.6671
   72SLPC   C38 6343   6.332   2.393   9.833  0.3665 -0.3609  0.7981
   72SLPC   H8X 6344   6.307   2.317   9.910  1.5168 -2.9627 -1.2303
   72SLPC   H8Y 6345   6.439   2.423   9.837  0.2973  0.0631 -0.2326
   72SLPC   C39 6346   6.297   2.341   9.691  0.1978  0.1778  0.2376
   72SLPC   H9X 6347   6.186   2.342   9.679 -0.0498  1.3182  2.0455
   72SLPC   H9Y 6348   6.339   2.240   9.675 -1.0512 -0.1196 -1.4699
   72SLPC  C310 6349   6.359   2.429   9.578  0.4178  0.4095  0.1029
   72SLPC  H10X 6350   6.470   2.434   9.585  0.6425  0.2323 -2.4373
   72SLPC  H10Y 6351   6.325   2.534   9.591 -1.9531 -0.4441  1.3890
   72SLPC  C311 6352   6.338   2.367   9.441 -1.0059 -0.1295  0.2557
   72SLPC  H11X 6353   6.236   2.376   9.397  0.4178 -0.5399 -3.5381
   72SLPC  H11Y 6354   6.356   2.257   9.438 -1.2965 -0.1809  0.3498
   72SLPC  C312 6355   6.424   2.445   9.346  0.3769  0.0956  0.4236
   72SLPC  H12X 6356   6.530   2.445   9.379 -0.1006 -2.5542  2.2681
   72SLPC  H12Y 6357   6.387   2.549   9.335 -3.0664 -1.0303  0.1584
   72SLPC  C313 6358   6.428   2.365   9.216 -0.4758  0.2565  0.4358
   72SLPC  H13X 6359   6.328   2.350   9.169  0.3519 -1.7333 -0.8208
   72SLPC  H13Y 6360   6.457   2.262   9.245 -2.7085 -0.7033 -0.4477
   72SLPC  C314 6361   6.533   2.410   9.109  0.1869 -0.1480 -0.7216
   72SLPC  H14X 6362   6.636   2.389   9.146 -0.2715 -2.3180 -0.5134
   72SLPC  H14Y 6363   6.528   2.519   9.091  1.6695  0.8365  3.6154
   72SLPC  C315 6364   6.505   2.323   8.980 -0.7031  0.5082  0.4430
   72SLPC  H15X 6365   6.394   2.320   8.975 -0.6791 -0.4228  0.4326
   72SLPC  H15Y 6366   6.533   2.216   8.991  0.5520  0.4358 -2.4734
   72SLPC  C316 6367   6.548   2.378   8.843 -0.1059 -0.5404 -0.2278
   72SLPC  H16X 6368   6.652   2.416   8.842 -1.2610  2.9966  0.1876
   72SLPC  H16Y 6369   6.491   2.469   8.815 -0.0894  0.0843  1.6704
   72SLPC  C317 6370   6.513   2.272   8.741  0.1741  0.8976  0.6100
   72SLPC  H17X 6371   6.506   2.309   8.636 -1.4731 -1.3493 -0.1537
   72SLPC  H17Y 6372   6.408   2.238   8.755 -0.6150  2.9458  0.1571
   72SLPC  C318 6373   6.615   2.156   8.738 -0.0741  0.2201  1.0802
   72SLPC  H18X 6374   6.559   2.076   8.686 -1.9273  1.1024  1.6416
   72SLPC  H18Y 6375   6.645   2.112   8.835  3.0706  1.9042  1.0230
   72SLPC  H18Z 6376   6.712   2.179   8.689  0.2894 -1.6663  0.8304
   73SLPC     N 6377   6.729   1.559  11.153 -0.0632  0.6440 -0.1589
   73SLPC   C13 6378   6.732   1.687  11.232 -0.3264  0.0415 -0.1289
   73SLPC  H13A 6379   6.714   1.667  11.337  1.7448  0.7220  0.4060
   73SLPC  H13B 6380   6.827   1.739  11.230  0.5069 -1.4146 -2.8341
   73SLPC  H13C 6381   6.656   1.755  11.195 -0.1291  0.3377  0.0110
   73SLPC   C14 6382   6.737   1.607  11.013  0.0813  0.4152  0.5326
   73SLPC  H14A 6383   6.817   1.679  10.998 -0.4339  0.8531 -0.1743
   73SLPC  H14B 6384   6.757   1.523  10.949  1.3866  0.1706  1.2263
   73SLPC  H14C 6385   6.640   1.644  10.984  0.3311  0.8221  0.2006
   73SLPC   C15 6386   6.599   1.489  11.172  0.0044 -0.0304 -0.3730
   73SLPC  H15A 6387   6.570   1.477  11.275  1.9928 -0.1975  0.2094
   73SLPC  H15B 6388   6.527   1.568  11.158  0.1858  0.2119  0.0581
   73SLPC  H15C 6389   6.588   1.400  11.112 -0.8145 -1.3997  1.6935
   73SLPC   C12 6390   6.855   1.472  11.187  0.2160 -0.2267  0.1212
   73SLPC  H12A 6391   6.845   1.443  11.290 -0.2129 -1.5274 -0.2558
   73SLPC  H12B 6392   6.939   1.539  11.176 -0.1565  0.2336  0.0558
   73SLPC   C11 6393   6.884   1.357  11.098  0.2974  0.6403  0.0930
   73SLPC  H11A 6394   6.792   1.300  11.071  2.3667 -1.8341 -2.2024
   73SLPC  H11B 6395   6.949   1.281  11.145 -1.4870  0.2144  2.0447
   73SLPC     P 6396   7.063   1.488  10.971 -0.2150 -0.1774  0.3110
   73SLPC   O13 6397   7.029   1.629  10.921  0.0230  0.3252 -0.1143
   73SLPC   O14 6398   7.128   1.482  11.101  0.5844 -0.0699  0.6930
   73SLPC   O12 6399   6.930   1.401  10.972 -0.1297  0.3820  0.5754
   73SLPC   O11 6400   7.155   1.404  10.866 -0.5577  0.4417 -0.1002
   73SLPC    C1 6401   7.090   1.308  10.784  0.6035 -0.4559  0.4262
   73SLPC    HA 6402   7.049   1.224  10.845 -2.3025  0.8952  0.5075
   73SLPC    HB 6403   7.006   1.357  10.731 -0.5301 -2.4833  0.2351
   73SLPC    C2 6404   7.182   1.255  10.668  0.1768  0.3093 -0.3018
   73SLPC    HS 6405   7.281   1.220  10.703  0.3089  0.5317 -0.4499
   73SLPC   O21 6406   7.202   1.366  10.574  0.0261 -0.3203 -0.0033
   73SLPC   C21 6407   7.302   1.351  10.483  0.3334 -0.2636 -0.5665
   73SLPC   O22 6408   7.363   1.245  10.465 -0.5082 -0.2210  0.2317
   73SLPC   C22 6409   7.312   1.477  10.391 -0.0997  0.1802 -0.2508
   73SLPC   H2R 6410   7.206   1.512  10.383 -0.0329  1.4498  2.9249
   73SLPC   H2S 6411   7.368   1.553  10.449  0.8601 -0.8347  0.1922
   73SLPC    C3 6412   7.118   1.135  10.599 -0.8418 -0.2513  0.9487
   73SLPC    HX 6413   7.112   1.050  10.671  2.1794 -0.1762  1.4046
   73SLPC    HY 6414   7.186   1.098  10.520 -1.7118 -1.8031  0.8792
   73SLPC   O31 6415   6.990   1.167  10.547 -0.7273  0.5735 -0.4206
   73SLPC   C31 6416   6.982   1.224  10.427 -0.5314  0.4489  0.3013
   73SLPC   O32 6417   7.073   1.230  10.348  0.0471 -0.0009 -0.1412
   73SLPC   C32 6418   6.850   1.295  10.420 -0.0862 -0.0388  0.2067
   73SLPC   H2X 6419   6.856   1.396  10.468  0.9923  0.0218 -0.0363
   73SLPC   H2Y 6420   6.772   1.235  10.472 -0.3085 -0.4684 -0.6108
   73SLPC   C23 6421   7.382   1.453  10.250  0.3821 -0.1170 -1.1563
   73SLPC   H3R 6422   7.335   1.369  10.195 -0.5493 -0.4793  0.1311
   73SLPC   H3S 6423   7.489   1.426  10.267  0.2869 -0.6268 -1.3522
   73SLPC   C24 6424   7.387   1.573  10.163 -0.0772 -0.6306 -0.9748
   73SLPC   H4R 6425   7.423   1.668  10.209 -3.3978  0.4294 -0.2815
   73SLPC   H4S 6426   7.282   1.600  10.136 -0.7993 -3.3408 -1.0971
   73SLPC   C25 6427   7.452   1.540  10.031  0.4091 -0.3915  0.2332
   73SLPC   H5R 6428   7.397   1.456   9.984  1.1221 -2.1219  2.2990
   73SLPC   H5S 6429   7.551   1.501  10.064  0.5515 -0.5228 -0.3325
   73SLPC   C26 6430   7.471   1.647   9.924 -0.0146  0.1407 -0.7958
   73SLPC   H6R 6431   7.511   1.739   9.973  0.1028  0.5441 -1.6442
   73SLPC   H6S 6432   7.377   1.679   9.876  0.2850  0.8623 -0.9283
   73SLPC   C27 6433   7.572   1.615   9.820  0.1878 -0.0579 -0.2394
   73SLPC   H7R 6434   7.526   1.540   9.751 -0.1751  1.8041 -2.1070
   73SLPC   H7S 6435   7.657   1.564   9.870 -0.8870 -0.0249  1.7108
   73SLPC   C28 6436   7.610   1.731   9.736 -0.0179 -0.0343 -0.1769
   73SLPC   H8R 6437   7.704   1.707   9.682 -0.5243 -0.0245 -1.0745
   73SLPC   H8S 6438   7.637   1.813   9.806  2.5338 -1.3659  0.5493
   73SLPC   C29 6439   7.501   1.786   9.639  0.9701 -0.6913  0.0909
   73SLPC   H9R 6440   7.441   1.873   9.672 -1.3163 -1.6354 -1.2914
   73SLPC  C210 6441   7.465   1.748   9.509  0.0271  0.5366  0.0653
   73SLPC  H10R 6442   7.382   1.800   9.460 -0.6316  0.8704  1.4986
   73SLPC  C211 6443   7.539   1.641   9.432 -0.6686 -0.2264 -0.2045
   73SLPC  H11R 6444   7.474   1.580   9.366  0.5688 -1.7444 -0.0873
   73SLPC  H11S 6445   7.591   1.572   9.501 -0.6031 -2.0874 -2.0136
   73SLPC  C212 6446   7.647   1.713   9.344 -0.5440  0.6852  0.3078
   73SLPC  H12R 6447   7.728   1.740   9.414 -0.4657 -0.6770  0.7698
   73SLPC  C213 6448   7.636   1.756   9.215 -0.4251 -0.1959  0.6628
   73SLPC  H13R 6449   7.720   1.819   9.181 -0.1870 -0.3897  0.8885
   73SLPC  C214 6450   7.524   1.736   9.116  0.2934  0.1513  0.1300
   73SLPC  H14R 6451   7.430   1.770   9.164 -0.5216 -2.6654  0.7372
   73SLPC  H14S 6452   7.522   1.626   9.098 -0.5751  0.6251 -3.4829
   73SLPC  C215 6453   7.552   1.798   8.979  0.0100  0.5928  0.1414
   73SLPC  H15R 6454   7.564   1.909   8.988  0.5663  0.3790  2.8789
   73SLPC  H15S 6455   7.462   1.784   8.915 -0.6658  1.6117  0.8456
   73SLPC  C216 6456   7.676   1.738   8.899  0.0197 -0.4445 -0.0632
   73SLPC  H16R 6457   7.653   1.632   8.877  1.0379 -0.9551  1.2390
   73SLPC  H16S 6458   7.762   1.742   8.969 -0.8891  0.7560  1.0360
   73SLPC  C217 6459   7.693   1.803   8.764 -0.4983  0.1417 -0.3935
   73SLPC  H17R 6460   7.608   1.781   8.696 -0.6279 -2.6045  0.5369
   73SLPC  H17S 6461   7.783   1.751   8.724 -0.4949 -0.4225  0.3308
   73SLPC  C218 6462   7.736   1.951   8.757  0.5597 -0.7077  0.7238
   73SLPC  H18R 6463   7.680   2.010   8.833  0.8384  0.8007 -0.1825
   73SLPC  H18S 6464   7.711   1.991   8.657  0.0012 -0.6281  0.8937
   73SLPC  H18T 6465   7.845   1.966   8.776  0.4887  1.3278 -0.1649
   73SLPC   C33 6466   6.796   1.320  10.276 -0.2541  0.3100 -0.4258
   73SLPC   H3X 6467   6.878   1.368  10.218  1.7339 -0.7446  1.3530
   73SLPC   H3Y 6468   6.709   1.385  10.298 -0.0862 -0.1070  1.7646
   73SLPC   C34 6469   6.770   1.182  10.208  0.3863 -0.2279 -0.2334
   73SLPC   H4X 6470   6.730   1.111  10.284  0.8456  1.5448  1.7578
   73SLPC   H4Y 6471   6.865   1.129  10.186 -0.5142 -2.2471  0.4852
   73SLPC   C35 6472   6.683   1.200  10.078 -0.6440 -0.3638  0.3666
   73SLPC   H5X 6473   6.595   1.266  10.093  0.0484  0.7158 -0.1550
   73SLPC   H5Y 6474   6.636   1.104  10.049 -0.2662  0.3755 -3.1538
   73SLPC   C36 6475   6.767   1.248   9.955 -0.2111  0.4036 -0.4247
   73SLPC   H6X 6476   6.855   1.185   9.931 -0.9548 -0.6174 -0.5205
   73SLPC   H6Y 6477   6.807   1.346   9.989  2.3299 -0.7651  0.1936
   73SLPC   C37 6478   6.686   1.255   9.827  0.0348 -0.2027  0.8161
   73SLPC   H7X 6479   6.589   1.304   9.849  0.0535 -0.3066  1.1411
   73SLPC   H7Y 6480   6.686   1.151   9.788  3.1887 -0.9675  2.4598
   73SLPC   C38 6481   6.743   1.353   9.724  1.0438 -0.3439 -0.7972
   73SLPC   H8X 6482   6.848   1.328   9.696  1.1183 -0.3728 -0.4899
   73SLPC   H8Y 6483   6.747   1.453   9.772 -0.0130 -2.2123  3.7098
   73SLPC   C39 6484   6.668   1.370   9.595  0.0358  0.1694 -0.0611
   73SLPC   H9X 6485   6.558   1.389   9.605 -0.3743 -1.1736 -1.6925
   73SLPC   H9Y 6486   6.682   1.271   9.547  0.1026 -0.5633  1.4178
   73SLPC  C310 6487   6.729   1.485   9.508 -0.4282  0.3468 -0.8839
   73SLPC  H10X 6488   6.838   1.461   9.505 -0.7221 -1.1234 -0.6073
   73SLPC  H10Y 6489   6.726   1.576   9.572  1.3617 -1.4504  2.0312
   73SLPC  C311 6490   6.691   1.504   9.367 -0.6067 -0.1273  0.1749
   73SLPC  H11X 6491   6.732   1.602   9.335 -0.5010  0.0584  0.8499
   73SLPC  H11Y 6492   6.580   1.511   9.358 -0.7964  0.1961  2.2298
   73SLPC  C312 6493   6.747   1.385   9.282 -0.2816  0.2197  0.2556
   73SLPC  H12X 6494   6.690   1.296   9.315  0.8002  0.2107  2.2864
   73SLPC  H12Y 6495   6.853   1.365   9.307 -0.3622 -0.3851  0.1159
   73SLPC  C313 6496   6.729   1.398   9.129  1.4242  0.3974  0.1924
   73SLPC  H13X 6497   6.790   1.475   9.075  0.6958 -0.7944 -2.5060
   73SLPC  H13Y 6498   6.622   1.418   9.108  1.5670 -0.6549 -1.8014
   73SLPC  C314 6499   6.777   1.278   9.043 -0.2933  0.2831  0.4057
   73SLPC  H14X 6500   6.708   1.199   9.079  1.3928 -1.1767  0.5519
   73SLPC  H14Y 6501   6.877   1.242   9.074 -0.7122 -1.0243  0.2828
   73SLPC  C315 6502   6.769   1.305   8.894 -0.2262  0.7605  0.0608
   73SLPC  H15X 6503   6.841   1.376   8.848  1.1295 -1.3053 -1.1933
   73SLPC  H15Y 6504   6.666   1.345   8.881 -0.3117  1.2151  1.9240
   73SLPC  C316 6505   6.790   1.181   8.807  0.7412 -0.5540  0.2034
   73SLPC  H16X 6506   6.703   1.113   8.806 -0.4689  0.9423 -1.2335
   73SLPC  H16Y 6507   6.879   1.127   8.848 -1.5569 -3.1161  2.2045
   73SLPC  C317 6508   6.828   1.206   8.661 -0.6434  0.8332  0.6838
   73SLPC  H17X 6509   6.917   1.272   8.664 -1.5053  2.0032  1.4187
   73SLPC  H17Y 6510   6.743   1.256   8.609 -0.3706  1.7276  1.0862
   73SLPC  C318 6511   6.870   1.082   8.581  0.3023 -0.0708 -0.0980
   73SLPC  H18X 6512   6.963   1.037   8.621 -0.3519 -0.3633  1.1317
   73SLPC  H18Y 6513   6.901   1.110   8.478 -1.5334 -0.2521 -0.7352
   73SLPC  H18Z 6514   6.784   1.011   8.578  0.2535 -0.0574  0.7034
   74SLPC     N 6515   1.332   2.184  10.741 -0.4596 -0.3388 -0.4730
   74SLPC   C13 6516   1.264   2.315  10.728 -0.1510  0.5114 -0.5570
   74SLPC  H13A 6517   1.284   2.359  10.632  1.0465  2.6006  0.5847
   74SLPC  H13B 6518   1.160   2.301  10.750  0.4789 -1.4964  1.6111
   74SLPC  H13C 6519   1.297   2.381  10.807 -1.5730 -2.1499  2.5124
   74SLPC   C14 6520   1.284   2.124  10.870  0.6390 -0.5807 -0.1798
   74SLPC  H14A 6521   1.177   2.111  10.862  0.6878 -0.3432 -1.5373
   74SLPC  H14B 6522   1.322   2.024  10.884  0.8381 -0.2340  2.1039
   74SLPC  H14C 6523   1.308   2.172  10.964  1.1821 -1.3138  0.0644
   74SLPC   C15 6524   1.473   2.208  10.760  0.1855  0.4513 -0.3118
   74SLPC  H15A 6525   1.505   2.235  10.860  2.0180 -0.1033 -0.7024
   74SLPC  H15B 6526   1.523   2.114  10.742 -1.9919 -1.0057  0.8023
   74SLPC  H15C 6527   1.510   2.276  10.684  0.2268  0.3081 -0.4211
   74SLPC   C12 6528   1.312   2.088  10.624  0.1606 -0.7331  0.1167
   74SLPC  H12A 6529   1.349   1.988  10.645  2.0323 -0.2179 -0.5382
   74SLPC  H12B 6530   1.371   2.128  10.543  2.2411  1.7515  2.6624
   74SLPC   C11 6531   1.164   2.073  10.573 -0.5517 -0.2192 -0.0822
   74SLPC  H11A 6532   1.164   2.008  10.483 -3.0020  2.1133 -1.9407
   74SLPC  H11B 6533   1.122   2.171  10.541 -1.1296 -1.0203 -1.9315
   74SLPC     P 6534   0.941   2.046  10.723 -0.1469 -0.0331 -0.0078
   74SLPC   O13 6535   0.914   1.967  10.845 -0.4050 -0.2039  0.2024
   74SLPC   O14 6536   0.933   2.195  10.735 -0.2841  0.1108 -0.1016
   74SLPC   O12 6537   1.090   2.011  10.679 -0.3383 -0.1271 -0.1791
   74SLPC   O11 6538   0.853   2.002  10.593 -0.2495 -0.0367 -0.6299
   74SLPC    C1 6539   0.881   1.869  10.541  0.4320  0.3585 -0.6952
   74SLPC    HA 6540   0.958   1.816  10.600  0.8163  0.1524 -1.3684
   74SLPC    HB 6541   0.791   1.805  10.553 -0.0218  1.0841 -0.1533
   74SLPC    C2 6542   0.904   1.860  10.391 -0.6606 -0.9279  0.2172
   74SLPC    HS 6543   0.989   1.926  10.365 -0.9837 -0.4688  0.3174
   74SLPC   O21 6544   0.786   1.880  10.315  0.4437  0.3920  0.2803
   74SLPC   C21 6545   0.784   1.993  10.246 -0.0396  0.5467 -0.5933
   74SLPC   O22 6546   0.878   2.070  10.234 -0.2722  0.2837  0.3076
   74SLPC   C22 6547   0.646   2.012  10.182  0.4075  0.0632  0.3072
   74SLPC   H2R 6548   0.625   1.928  10.111 -0.1824  0.9973 -0.6583
   74SLPC   H2S 6549   0.575   1.986  10.263 -0.0535  2.0562  0.5967
   74SLPC    C3 6550   0.966   1.720  10.353  0.5278 -0.2329  0.3240
   74SLPC    HX 6551   0.898   1.639  10.389 -0.5348 -0.5946 -2.3058
   74SLPC    HY 6552   1.062   1.717  10.409  0.6528  1.6372  0.2773
   74SLPC   O31 6553   0.981   1.710  10.211  0.4001  0.1541 -0.7077
   74SLPC   C31 6554   1.086   1.766  10.163  0.1610 -0.1620 -0.6317
   74SLPC   O32 6555   1.177   1.814  10.231  0.5106  0.4717 -0.6772
   74SLPC   C32 6556   1.078   1.769  10.012 -0.1495  0.3756 -0.1571
   74SLPC   H2X 6557   1.018   1.857   9.981 -1.7675 -0.6795 -0.1342
   74SLPC   H2Y 6558   1.021   1.677   9.987 -0.4673 -0.2842  2.5765
   74SLPC   C23 6559   0.602   2.144  10.125 -0.2027 -0.3008  0.2708
   74SLPC   H3R 6560   0.651   2.221  10.188  1.0382 -2.1152  1.5864
   74SLPC   H3S 6561   0.491   2.154  10.131 -0.3430  0.0670 -1.8936
   74SLPC   C24 6562   0.652   2.189   9.987 -0.2696  0.5633  0.0963
   74SLPC   H4R 6563   0.761   2.173   9.975 -0.2742  0.4769  0.1719
   74SLPC   H4S 6564   0.624   2.295   9.972 -1.5664  0.2407  0.0948
   74SLPC   C25 6565   0.570   2.126   9.871 -0.3442  0.0752  0.0344
   74SLPC   H5R 6566   0.467   2.166   9.883 -0.9270 -1.2814 -0.3196
   74SLPC   H5S 6567   0.562   2.016   9.872 -0.7221  0.0900 -0.8888
   74SLPC   C26 6568   0.605   2.164   9.725 -0.4595  0.3802 -0.0849
   74SLPC   H6R 6569   0.702   2.115   9.703 -1.9964 -2.3771 -1.2717
   74SLPC   H6S 6570   0.608   2.275   9.722 -1.6274  0.5892  2.8775
   74SLPC   C27 6571   0.502   2.107   9.620 -0.8380 -0.5098  0.0460
   74SLPC   H7R 6572   0.403   2.135   9.662  0.6769 -1.5201  4.8515
   74SLPC   H7S 6573   0.495   1.997   9.628 -3.1922 -0.2727  2.9725
   74SLPC   C28 6574   0.524   2.169   9.477  0.6363  0.0956 -0.7651
   74SLPC   H8R 6575   0.542   2.276   9.502  1.4904 -0.5702  1.7942
   74SLPC   H8S 6576   0.431   2.164   9.416 -0.2643 -2.5792  0.6541
   74SLPC   C29 6577   0.643   2.113   9.407 -0.4606 -0.1214  0.1745
   74SLPC   H9R 6578   0.702   2.033   9.454  0.4992 -0.8528 -2.1058
   74SLPC  C210 6579   0.677   2.155   9.283 -0.0807  0.2510  0.2070
   74SLPC  H10R 6580   0.765   2.117   9.228 -0.2921  0.8609 -0.5773
   74SLPC  C211 6581   0.591   2.263   9.211 -0.3488  0.2074  0.1665
   74SLPC  H11R 6582   0.649   2.321   9.136  1.1725  0.5447  1.5511
   74SLPC  H11S 6583   0.563   2.351   9.274  1.4440  1.2114 -0.3636
   74SLPC  C212 6584   0.471   2.209   9.142  0.3230  0.2728 -0.4622
   74SLPC  H12R 6585   0.381   2.198   9.205  0.6417 -0.5267 -0.1329
   74SLPC  C213 6586   0.462   2.172   9.013  0.2277  0.5693 -0.3613
   74SLPC  H13R 6587   0.365   2.136   8.975  0.2064 -0.8863  0.9759
   74SLPC  C214 6588   0.566   2.178   8.906  0.0601 -0.8445  0.3543
   74SLPC  H14R 6589   0.581   2.081   8.853 -1.3976 -1.0005  0.1991
   74SLPC  H14S 6590   0.669   2.201   8.941  0.3034 -1.4318  0.0438
   74SLPC  C215 6591   0.523   2.283   8.804  0.0571  0.1381 -1.1202
   74SLPC  H15R 6592   0.601   2.272   8.726  1.5876 -0.1453  0.3894
   74SLPC  H15S 6593   0.539   2.387   8.841  0.3051  0.7108 -2.7463
   74SLPC  C216 6594   0.384   2.277   8.749  0.0110 -0.8281 -0.3323
   74SLPC  H16R 6595   0.377   2.371   8.689  2.0770  0.2993  1.0845
   74SLPC  H16S 6596   0.299   2.288   8.820  1.7105  1.8574  1.4617
   74SLPC  C217 6597   0.359   2.159   8.661 -0.0776  0.4240  0.9391
   74SLPC  H17R 6598   0.379   2.061   8.711  1.9168 -0.4896 -1.4329
   74SLPC  H17S 6599   0.421   2.156   8.569  0.9763 -2.3656  1.6105
   74SLPC  C218 6600   0.213   2.167   8.626  0.4936  0.0214  0.2600
   74SLPC  H18R 6601   0.181   2.084   8.559 -0.2827  1.0206 -0.6482
   74SLPC  H18S 6602   0.185   2.264   8.579 -0.9453 -0.4619  0.0558
   74SLPC  H18T 6603   0.153   2.147   8.718  0.7488  0.5631  0.5522
   74SLPC   C33 6604   1.202   1.752   9.928  0.5883  0.1344  0.0213
   74SLPC   H3X 6605   1.270   1.678   9.975 -2.0175 -0.3771  3.3464
   74SLPC   H3Y 6606   1.258   1.848   9.923 -1.1493  1.1591 -0.8198
   74SLPC   C34 6607   1.167   1.719   9.784 -0.1973 -0.3492  0.1039
   74SLPC   H4X 6608   1.126   1.803   9.725  0.9780 -0.7103 -1.3076
   74SLPC   H4Y 6609   1.097   1.633   9.781  0.7257 -1.1041 -1.9502
   74SLPC   C35 6610   1.292   1.681   9.705 -0.2671  0.7831  0.2317
   74SLPC   H5X 6611   1.331   1.600   9.772 -0.6427  0.2997 -0.1270
   74SLPC   H5Y 6612   1.372   1.758   9.700  0.5373 -0.0313  0.1910
   74SLPC   C36 6613   1.273   1.629   9.554  0.3133 -0.2842 -0.2023
   74SLPC   H6X 6614   1.251   1.724   9.501  0.5019 -0.0976  0.0484
   74SLPC   H6Y 6615   1.184   1.562   9.551 -0.2044  0.3147  0.9440
   74SLPC   C37 6616   1.398   1.571   9.498  0.0884  0.6083  0.0965
   74SLPC   H7X 6617   1.443   1.487   9.554 -0.2675 -0.9889 -1.9129
   74SLPC   H7Y 6618   1.470   1.656   9.487 -1.3570  1.6645 -1.9520
   74SLPC   C38 6619   1.387   1.531   9.351 -0.3790 -0.2377  0.4671
   74SLPC   H8X 6620   1.338   1.605   9.284  0.9400 -2.6037 -3.4390
   74SLPC   H8Y 6621   1.319   1.445   9.336 -0.0118 -0.1784 -1.9143
   74SLPC   C39 6622   1.521   1.496   9.286 -0.1865 -0.3503  0.3867
   74SLPC   H9X 6623   1.571   1.413   9.340  1.4431  0.3644  0.0656
   74SLPC   H9Y 6624   1.589   1.583   9.272  0.1718 -1.0722 -3.7219
   74SLPC  C310 6625   1.496   1.449   9.136  0.1847 -0.3421 -0.0096
   74SLPC  H10X 6626   1.463   1.541   9.085  0.9308  0.7993  1.4836
   74SLPC  H10Y 6627   1.413   1.376   9.149 -0.4476  0.7127  2.5139
   74SLPC  C311 6628   1.612   1.398   9.053 -0.0735  0.0899  0.5750
   74SLPC  H11X 6629   1.632   1.291   9.077  1.8025 -0.1741 -1.8954
   74SLPC  H11Y 6630   1.706   1.456   9.065  0.4280 -0.7316  0.6783
   74SLPC  C312 6631   1.566   1.388   8.911 -0.1649  0.3018  0.0753
   74SLPC  H12X 6632   1.543   1.489   8.870  0.1177  0.2547 -0.1999
   74SLPC  H12Y 6633   1.474   1.326   8.906  1.1077 -1.7488  0.8910
   74SLPC  C313 6634   1.660   1.309   8.821 -0.1895 -0.7400  0.0875
   74SLPC  H13X 6635   1.707   1.219   8.866  0.7293  1.0846  3.0324
   74SLPC  H13Y 6636   1.744   1.379   8.798 -0.0645 -1.4020 -1.6478
   74SLPC  C314 6637   1.612   1.269   8.682  0.6760 -0.2382 -0.2542
   74SLPC  H14X 6638   1.564   1.362   8.645  0.7799 -0.6353 -1.4491
   74SLPC  H14Y 6639   1.537   1.187   8.685  1.9171 -1.4248 -0.4690
   74SLPC  C315 6640   1.720   1.233   8.573 -0.0295 -0.5041  0.1800
   74SLPC  H15X 6641   1.757   1.129   8.586 -0.4089 -0.8268 -1.2010
   74SLPC  H15Y 6642   1.809   1.297   8.586  2.3083 -2.8385 -2.8499
   74SLPC  C316 6643   1.675   1.250   8.431 -0.2239 -0.0782 -0.4811
   74SLPC  H16X 6644   1.632   1.352   8.423 -0.9876 -0.3406  0.1481
   74SLPC  H16Y 6645   1.589   1.182   8.413  0.2277 -0.6822 -0.3954
   74SLPC  C317 6646   1.780   1.245   8.318  0.2247 -0.1225  1.0816
   74SLPC  H17X 6647   1.841   1.338   8.326 -0.8469  0.6749  0.2452
   74SLPC  H17Y 6648   1.730   1.250   8.219 -1.8802 -0.2993  2.0737
   74SLPC  C318 6649   1.878   1.133   8.332  0.2132  0.5037 -0.0909
   74SLPC  H18X 6650   1.949   1.132   8.248 -0.1184 -0.0962 -0.3754
   74SLPC  H18Y 6651   1.828   1.034   8.346 -1.0608  0.7995 -2.1164
   74SLPC  H18Z 6652   1.927   1.154   8.430 -2.3970  1.3213  1.1461
   75SLPC     N 6653   4.875   6.579   6.146  0.8972  0.1341  0.0533
   75SLPC   C13 6654   5.004   6.562   6.077 -0.0734  0.4956 -0.0898
   75SLPC  H13A 6655   4.992   6.551   5.971 -2.1278  1.3280  0.0120
   75SLPC  H13B 6656   5.067   6.647   6.101  0.5968  0.0234 -0.1615
   75SLPC  H13C 6657   5.056   6.476   6.116 -0.0859  0.6391  0.2501
   75SLPC   C14 6658   4.780   6.470   6.117 -0.8439 -0.1317 -0.2307
   75SLPC  H14A 6659   4.756   6.452   6.014 -0.6436 -0.3874 -0.2346
   75SLPC  H14B 6660   4.826   6.375   6.140  1.6542  0.9753 -0.2477
   75SLPC  H14C 6661   4.688   6.482   6.173 -1.1141  1.2035 -0.9191
   75SLPC   C15 6662   4.809   6.701   6.095  0.0539  0.1785 -0.1172
   75SLPC  H15A 6663   4.701   6.699   6.105  0.0841 -1.0613  0.1102
   75SLPC  H15B 6664   4.841   6.788   6.151 -1.9565  0.2992  0.9494
   75SLPC  H15C 6665   4.828   6.718   5.990 -0.2576  0.2329 -0.1665
   75SLPC   C12 6666   4.888   6.596   6.291  0.0023  0.5154  0.4519
   75SLPC  H12A 6667   4.798   6.617   6.346 -0.5348 -0.3332 -0.0866
   75SLPC  H12B 6668   4.953   6.681   6.309  0.2766  0.7348 -1.3739
   75SLPC   C11 6669   4.944   6.475   6.364 -0.1517  0.2208  0.4048
   75SLPC  H11A 6670   4.869   6.394   6.366  0.2456 -0.1455  2.2910
   75SLPC  H11B 6671   4.951   6.494   6.473 -0.0663  0.9787  0.2727
   75SLPC     P 6672   5.214   6.472   6.375  0.2033 -0.0336  0.0352
   75SLPC   O13 6673   5.319   6.420   6.290  0.3733  0.7867  0.1287
   75SLPC   O14 6674   5.206   6.617   6.402 -0.2364  0.7591  0.0582
   75SLPC   O12 6675   5.072   6.430   6.318 -0.0860 -0.2466  0.2592
   75SLPC   O11 6676   5.204   6.394   6.513  0.0923  0.1276  0.1916
   75SLPC    C1 6677   5.185   6.466   6.634 -0.0285 -0.0605  0.0219
   75SLPC    HA 6678   5.112   6.547   6.613  0.0605  0.4111  1.4363
   75SLPC    HB 6679   5.130   6.399   6.704 -2.7003  0.5148 -1.3850
   75SLPC    C2 6680   5.327   6.515   6.679  0.2478 -0.2980  0.0629
   75SLPC    HS 6681   5.367   6.574   6.594 -0.8255  0.3982  0.0194
   75SLPC   O21 6682   5.408   6.399   6.718 -0.4605  0.0740 -0.0184
   75SLPC   C21 6683   5.542   6.425   6.728  0.1970  0.6309  0.5412
   75SLPC   O22 6684   5.596   6.516   6.673  0.1859 -0.3957 -0.1095
   75SLPC   C22 6685   5.612   6.323   6.813  0.9900 -0.4610 -0.3873
   75SLPC   H2R 6686   5.541   6.244   6.845  2.5353 -0.5953  3.2105
   75SLPC   H2S 6687   5.687   6.274   6.746 -1.7923 -2.8231 -1.9951
   75SLPC    C3 6688   5.311   6.612   6.804  0.0854  0.7937  0.1966
   75SLPC    HX 6689   5.252   6.699   6.768  0.0109  0.2652 -0.9927
   75SLPC    HY 6690   5.412   6.651   6.828  0.8825 -2.1221  2.1666
   75SLPC   O31 6691   5.260   6.546   6.919 -0.8397  0.7097 -0.4046
   75SLPC   C31 6692   5.132   6.569   6.946  0.3208  0.1072  0.0247
   75SLPC   O32 6693   5.056   6.637   6.877  0.1747  0.6348 -0.3509
   75SLPC   C32 6694   5.090   6.523   7.080 -0.5243  0.3104 -0.3720
   75SLPC   H2X 6695   5.148   6.576   7.159 -0.4283  1.4552 -1.1821
   75SLPC   H2Y 6696   5.137   6.423   7.092  0.4492  0.8635  0.7440
   75SLPC   C23 6697   5.680   6.393   6.923  0.3768  0.0153  0.2597
   75SLPC   H3R 6698   5.701   6.498   6.896 -1.3931  1.4694  3.8618
   75SLPC   H3S 6699   5.775   6.342   6.952 -0.4817 -2.1699 -0.5502
   75SLPC   C24 6700   5.589   6.399   7.048  0.7698 -0.0694  0.0751
   75SLPC   H4R 6701   5.559   6.298   7.084  2.3598 -0.5790  0.0398
   75SLPC   H4S 6702   5.501   6.462   7.023  1.7388  1.0982 -0.4739
   75SLPC   C25 6703   5.658   6.455   7.171  0.4713  0.0573 -0.8272
   75SLPC   H5R 6704   5.647   6.566   7.178  0.3151  0.0054 -0.2077
   75SLPC   H5S 6705   5.768   6.443   7.159  0.2419 -1.7714 -1.2842
   75SLPC   C26 6706   5.609   6.402   7.306 -0.0169 -0.1356  0.6980
   75SLPC   H6R 6707   5.605   6.291   7.299 -2.0654 -0.0238 -1.1294
   75SLPC   H6S 6708   5.502   6.427   7.322 -1.1881 -3.8408 -0.1833
   75SLPC   C27 6709   5.697   6.447   7.424  0.5432 -0.5113  0.4901
   75SLPC   H7R 6710   5.698   6.557   7.442 -0.8623 -0.5045  0.6070
   75SLPC   H7S 6711   5.803   6.426   7.397  0.5111  1.6014 -1.5623
   75SLPC   C28 6712   5.660   6.379   7.549  0.0532  0.0502 -0.4713
   75SLPC   H8R 6713   5.758   6.380   7.602  0.2552  0.5923 -0.8512
   75SLPC   H8S 6714   5.636   6.273   7.527 -1.6424 -0.2104  2.2019
   75SLPC   C29 6715   5.542   6.435   7.627 -0.9245 -0.1940 -0.3022
   75SLPC   H9R 6716   5.451   6.439   7.566  0.5550  0.2484 -2.6169
   75SLPC  C210 6717   5.545   6.489   7.744  0.0118 -0.3543  0.1135
   75SLPC  H10R 6718   5.451   6.531   7.783  1.1944  1.1839  1.4134
   75SLPC  C211 6719   5.659   6.510   7.841  0.0622 -0.0622 -0.5222
   75SLPC  H11R 6720   5.633   6.597   7.905 -0.8320 -1.0445  0.5016
   75SLPC  H11S 6721   5.755   6.537   7.793  0.1381 -0.3849 -0.5496
   75SLPC  C212 6722   5.684   6.386   7.916 -0.1388  0.7533  0.1145
   75SLPC  H12R 6723   5.695   6.295   7.854  1.3532 -0.6130  2.2308
   75SLPC  C213 6724   5.678   6.366   8.048  0.4738 -0.0021  0.9471
   75SLPC  H13R 6725   5.681   6.264   8.090  2.2909 -0.2354  0.3517
   75SLPC  C214 6726   5.643   6.466   8.151  0.3288  0.3014 -0.5685
   75SLPC  H14R 6727   5.548   6.444   8.205  0.4298  1.4085  0.1030
   75SLPC  H14S 6728   5.628   6.571   8.119 -0.6816 -0.5857 -3.2671
   75SLPC  C215 6729   5.749   6.465   8.264  0.6507  0.3163 -0.5744
   75SLPC  H15R 6730   5.849   6.504   8.235 -0.3030  3.5435  0.1637
   75SLPC  H15S 6731   5.763   6.361   8.302 -0.2877  1.1150  2.2129
   75SLPC  C216 6732   5.706   6.537   8.397 -0.0911  0.2397 -0.2314
   75SLPC  H16R 6733   5.670   6.640   8.378  1.6856  0.8998 -0.2346
   75SLPC  H16S 6734   5.792   6.535   8.467  0.8031 -2.1403 -1.2971
   75SLPC  C217 6735   5.598   6.460   8.472 -0.2198 -0.9377 -0.0039
   75SLPC  H17R 6736   5.618   6.351   8.470  0.6562 -0.7816 -0.9014
   75SLPC  H17S 6737   5.496   6.461   8.428  0.5449 -1.7855 -1.9241
   75SLPC  C218 6738   5.587   6.515   8.616 -0.1285 -0.0288 -0.0454
   75SLPC  H18R 6739   5.479   6.524   8.639 -0.5064 -2.3865 -0.6307
   75SLPC  H18S 6740   5.629   6.617   8.603  1.4031 -0.8944 -2.9007
   75SLPC  H18T 6741   5.642   6.453   8.690  1.2076 -0.2000 -1.1244
   75SLPC   C33 6742   4.941   6.520   7.111 -0.2190 -0.5175  0.2065
   75SLPC   H3X 6743   4.909   6.626   7.112 -1.5025 -0.8949  0.1467
   75SLPC   H3Y 6744   4.882   6.470   7.031 -0.0990 -0.1160 -0.1375
   75SLPC   C34 6745   4.910   6.432   7.239  0.4078  0.4574 -0.1015
   75SLPC   H4X 6746   4.927   6.327   7.207 -0.1855  1.0851 -2.6412
   75SLPC   H4Y 6747   4.802   6.451   7.256  0.8315  2.0661  1.1009
   75SLPC   C35 6748   4.989   6.457   7.372 -0.1949  0.2221 -0.3235
   75SLPC   H5X 6749   5.012   6.565   7.385  0.2358 -0.0886  2.0018
   75SLPC   H5Y 6750   5.083   6.402   7.350 -2.3237 -3.1952 -1.7172
   75SLPC   C36 6751   4.922   6.403   7.498 -0.6410  0.0985 -0.3149
   75SLPC   H6X 6752   4.901   6.294   7.493 -1.6901  0.3229 -1.3263
   75SLPC   H6Y 6753   4.827   6.459   7.512 -0.2165  0.5750  0.7714
   75SLPC   C37 6754   5.003   6.431   7.632  0.2079  0.5402 -0.2563
   75SLPC   H7X 6755   5.001   6.542   7.638 -0.8294  0.6223 -1.6659
   75SLPC   H7Y 6756   5.108   6.394   7.631  0.2941  0.7911 -0.5045
   75SLPC   C38 6757   4.936   6.376   7.756  0.6005 -0.4562  0.0846
   75SLPC   H8X 6758   4.972   6.271   7.756  0.9594 -0.3347  0.0249
   75SLPC   H8Y 6759   4.827   6.366   7.740  0.7362 -0.9652 -0.5452
   75SLPC   C39 6760   4.980   6.446   7.878  0.2558 -0.4266 -0.5927
   75SLPC   H9X 6761   4.959   6.554   7.863  1.1421 -0.1682 -0.0492
   75SLPC   H9Y 6762   5.090   6.437   7.891  0.4336  0.3590 -1.5053
   75SLPC  C310 6763   4.922   6.396   8.005  1.0883 -0.1046 -0.8057
   75SLPC  H10X 6764   4.952   6.290   8.022 -0.8329 -0.5521  0.0791
   75SLPC  H10Y 6765   4.811   6.400   7.999  1.0298 -0.1962  0.0855
   75SLPC  C311 6766   4.967   6.476   8.127  0.1713  0.5820 -0.3682
   75SLPC  H11X 6767   4.929   6.581   8.124 -0.0501  0.5226  0.2845
   75SLPC  H11Y 6768   5.078   6.475   8.130  0.2720  3.0857 -0.7769
   75SLPC  C312 6769   4.909   6.406   8.251  0.6808 -0.4966 -0.9195
   75SLPC  H12X 6770   4.971   6.436   8.338  1.4974  0.8640 -1.9300
   75SLPC  H12Y 6771   4.913   6.296   8.234 -1.5359 -0.5112 -1.7164
   75SLPC  C313 6772   4.766   6.455   8.281 -0.1042 -0.9089  0.0828
   75SLPC  H13X 6773   4.690   6.408   8.214  0.4701 -0.0273 -1.2212
   75SLPC  H13Y 6774   4.764   6.564   8.262  2.3342 -0.3364  2.5609
   75SLPC  C314 6775   4.722   6.428   8.426 -0.3240  0.5292 -0.2026
   75SLPC  H14X 6776   4.802   6.455   8.498 -1.6075  0.9564  1.1104
   75SLPC  H14Y 6777   4.707   6.318   8.432  0.6304  0.3657 -0.5937
   75SLPC  C315 6778   4.592   6.496   8.480 -0.4842 -0.0557  0.4001
   75SLPC  H15X 6779   4.514   6.479   8.404  0.7912 -0.7433 -0.8040
   75SLPC  H15Y 6780   4.612   6.605   8.492  0.8528 -0.3223  0.8333
   75SLPC  C316 6781   4.540   6.451   8.619  0.1001 -0.7866  0.4556
   75SLPC  H16X 6782   4.435   6.483   8.633  0.0349 -1.3021  1.2157
   75SLPC  H16Y 6783   4.596   6.497   8.704  0.1691 -2.5176  1.4037
   75SLPC  C317 6784   4.541   6.297   8.642  0.8393 -0.2917 -0.0650
   75SLPC  H17X 6785   4.646   6.262   8.646  0.5374 -1.0775  2.3134
   75SLPC  H17Y 6786   4.484   6.241   8.565  0.9559 -1.8591  0.9583
   75SLPC  C318 6787   4.491   6.273   8.787  0.4008 -0.3390 -0.6718
   75SLPC  H18X 6788   4.565   6.326   8.851  1.5211 -0.6773 -1.6645
   75SLPC  H18Y 6789   4.497   6.165   8.810  2.8130 -0.0672  0.3158
   75SLPC  H18Z 6790   4.389   6.317   8.793  1.0747  1.2701 -0.5437
   76SLPC     N 6791   1.007   6.361   6.320  0.4731  0.2630  0.2074
   76SLPC   C13 6792   1.031   6.268   6.434  0.0796  0.3146 -0.1600
   76SLPC  H13A 6793   1.038   6.168   6.394 -3.0186  0.1803 -0.6540
   76SLPC  H13B 6794   1.116   6.302   6.491 -0.6381  1.4135  0.2945
   76SLPC  H13C 6795   0.949   6.270   6.505  1.6757 -0.1119  1.7707
   76SLPC   C14 6796   0.878   6.319   6.252 -0.6761 -0.9428  0.0279
   76SLPC  H14A 6797   0.893   6.219   6.212  0.2253 -0.7665 -0.1066
   76SLPC  H14B 6798   0.788   6.310   6.311 -2.1794 -1.6618 -2.2751
   76SLPC  H14C 6799   0.848   6.380   6.169  2.1049  0.0235 -0.3863
   76SLPC   C15 6800   1.115   6.350   6.220 -0.3620 -0.6073 -0.4196
   76SLPC  H15A 6801   1.215   6.364   6.260 -0.5106 -1.0117  0.1095
   76SLPC  H15B 6802   1.122   6.245   6.193  2.4964 -0.3802 -0.9489
   76SLPC  H15C 6803   1.094   6.399   6.126 -1.6875 -0.3707 -0.0210
   76SLPC   C12 6804   0.999   6.507   6.375  0.0210 -0.1607 -0.0297
   76SLPC  H12A 6805   0.956   6.576   6.305  0.8826  1.0396  0.5907
   76SLPC  H12B 6806   1.099   6.549   6.386  0.0556 -0.2100 -0.1529
   76SLPC   C11 6807   0.927   6.516   6.512  0.0115  0.0996 -0.2199
   76SLPC  H11A 6808   0.913   6.619   6.551  1.5657 -0.0576  0.8670
   76SLPC  H11B 6809   0.997   6.465   6.582  0.1947  2.2940  1.2941
   76SLPC     P 6810   0.669   6.524   6.453 -0.8115 -0.4044  0.5244
   76SLPC   O13 6811   0.707   6.605   6.336  0.2213  0.0164  0.0768
   76SLPC   O14 6812   0.565   6.426   6.427  0.2797  0.7737 -0.1529
   76SLPC   O12 6813   0.795   6.447   6.510 -0.7459 -0.4679 -0.0933
   76SLPC   O11 6814   0.639   6.621   6.572 -0.5149  0.1971  0.3493
   76SLPC    C1 6815   0.684   6.600   6.704 -0.4326  0.1999 -0.6792
   76SLPC    HA 6816   0.737   6.503   6.708 -1.0458 -0.0939  1.2460
   76SLPC    HB 6817   0.754   6.681   6.735  1.8438 -1.5573 -0.9797
   76SLPC    C2 6818   0.558   6.599   6.794 -0.0132 -0.0404 -0.3933
   76SLPC    HS 6819   0.579   6.642   6.894  0.2348  1.5546 -1.0955
   76SLPC   O21 6820   0.502   6.469   6.809  0.2175  0.2846 -0.4507
   76SLPC   C21 6821   0.582   6.390   6.886 -0.2302  0.5685  0.1020
   76SLPC   O22 6822   0.696   6.417   6.919 -0.3069 -0.2628  0.3938
   76SLPC   C22 6823   0.507   6.257   6.920 -0.1226 -0.5553  0.1744
   76SLPC   H2R 6824   0.433   6.237   6.840  0.7500  1.0110 -1.0702
   76SLPC   H2S 6825   0.588   6.184   6.940  0.5946  0.4625  1.1110
   76SLPC    C3 6826   0.456   6.695   6.727  0.3187 -0.3930 -0.1194
   76SLPC    HX 6827   0.411   6.641   6.640 -0.2341 -0.0231 -0.0702
   76SLPC    HY 6828   0.511   6.784   6.690  1.7185 -1.0212  0.4015
   76SLPC   O31 6829   0.362   6.740   6.825 -0.0011 -0.4612  0.3059
   76SLPC   C31 6830   0.234   6.697   6.807  0.2201 -0.3705 -0.2740
   76SLPC   O32 6831   0.196   6.611   6.731  0.0156  0.5000  0.1938
   76SLPC   C32 6832   0.136   6.785   6.893 -0.8667 -0.2130 -0.3159
   76SLPC   H2X 6833   0.047   6.719   6.901 -0.1648 -1.1485 -0.0339
   76SLPC   H2Y 6834   0.110   6.869   6.825  1.6572  0.7530 -0.1866
   76SLPC   C23 6835   0.433   6.276   7.056 -0.1681  0.8364  0.9887
   76SLPC   H3R 6836   0.342   6.341   7.051  0.0745  1.1012 -1.0823
   76SLPC   H3S 6837   0.500   6.325   7.129  3.0018 -0.0054 -1.1804
   76SLPC   C24 6838   0.380   6.144   7.110  0.1075 -0.4378 -0.6131
   76SLPC   H4R 6839   0.454   6.064   7.088  0.4299  0.5461 -3.4203
   76SLPC   H4S 6840   0.280   6.115   7.073 -0.7407  2.6331 -1.0073
   76SLPC   C25 6841   0.378   6.150   7.265  0.1902 -0.4562 -0.1770
   76SLPC   H5R 6842   0.485   6.141   7.292  0.5599  0.2915 -1.3193
   76SLPC   H5S 6843   0.326   6.058   7.301 -1.3658 -0.5022 -2.3209
   76SLPC   C26 6844   0.290   6.270   7.324 -0.2908  0.1169  0.6324
   76SLPC   H6R 6845   0.331   6.367   7.290 -1.2843  1.0403  2.0134
   76SLPC   H6S 6846   0.311   6.269   7.433  1.5810  0.2868  0.2997
   76SLPC   C27 6847   0.148   6.239   7.287  0.1347 -0.2608  0.1776
   76SLPC   H7R 6848   0.117   6.145   7.338  1.5646  0.1259  1.8353
   76SLPC   H7S 6849   0.123   6.233   7.179 -1.9387  0.6664  0.5555
   76SLPC   C28 6850   0.060   6.347   7.346  0.3922 -0.2299 -0.0815
   76SLPC   H8R 6851   0.088   6.380   7.449  0.9389  1.3268 -0.6959
   76SLPC   H8S 6852   0.083   6.431   7.277 -0.6311 -1.3760 -1.8696
   76SLPC   C29 6853  -0.092   6.314   7.352  0.5694 -0.7313 -0.6740
   76SLPC   H9R 6854  -0.155   6.360   7.274 -0.4573 -0.6305  0.1911
   76SLPC  C210 6855  -0.152   6.256   7.458  0.3548 -0.0519 -0.4792
   76SLPC  H10R 6856  -0.261   6.243   7.454  0.2769  0.8783 -2.8584
   76SLPC  C211 6857  -0.079   6.197   7.579 -0.5986  0.2233  0.2960
   76SLPC  H11R 6858  -0.032   6.288   7.622 -0.3186  1.1973 -1.9456
   76SLPC  H11S 6859  -0.005   6.123   7.544 -0.3687  0.7394 -0.3335
   76SLPC  C212 6860  -0.168   6.121   7.678  0.7287 -0.4910  0.5492
   76SLPC  H12R 6861  -0.224   6.042   7.626 -1.5959 -0.1071  2.2575
   76SLPC  C213 6862  -0.192   6.126   7.811 -0.6284 -0.6257  0.1228
   76SLPC  H13R 6863  -0.259   6.052   7.857 -0.4505  0.3539  2.0653
   76SLPC  C214 6864  -0.131   6.224   7.911 -0.5056 -0.0518 -0.6270
   76SLPC  H14R 6865  -0.077   6.308   7.861 -1.4053  0.2070 -1.1929
   76SLPC  H14S 6866  -0.057   6.165   7.970  0.8004  1.0733 -1.0691
   76SLPC  C215 6867  -0.233   6.284   8.008 -0.4377 -0.0739 -0.6429
   76SLPC  H15R 6868  -0.181   6.345   8.085 -0.2014 -1.3914  0.2745
   76SLPC  H15S 6869  -0.281   6.204   8.068 -0.8263  0.2224 -0.5504
   76SLPC  C216 6870  -0.335   6.370   7.937  0.2299 -0.2878  0.2152
   76SLPC  H16R 6871  -0.381   6.318   7.851  0.9045  0.1151 -0.4051
   76SLPC  H16S 6872  -0.280   6.452   7.886  0.1038  0.5960  1.4490
   76SLPC  C217 6873  -0.446   6.427   8.023  0.1679  0.0491  0.8666
   76SLPC  H17R 6874  -0.484   6.521   7.977  0.9961 -0.4762 -1.0119
   76SLPC  H17S 6875  -0.405   6.451   8.123  0.2217  0.0997  0.8331
   76SLPC  C218 6876  -0.572   6.334   8.039  0.4607  0.3737  0.0017
   76SLPC  H18R 6877  -0.552   6.229   8.068 -1.0172  0.2183  0.5045
   76SLPC  H18S 6878  -0.625   6.321   7.942 -0.0824  1.0602  0.1995
   76SLPC  H18T 6879  -0.642   6.378   8.113  0.6978 -0.5537  0.8009
   76SLPC   C33 6880   0.197   6.802   7.036 -0.0448  0.6389 -0.0996
   76SLPC   H3X 6881   0.126   6.872   7.084 -1.9726 -0.6964 -0.8327
   76SLPC   H3Y 6882   0.293   6.856   7.026 -1.6391  3.6403 -0.3271
   76SLPC   C34 6883   0.221   6.671   7.107 -0.3807  0.5181  0.0645
   76SLPC   H4X 6884   0.262   6.594   7.038  0.2365  0.2162  0.7517
   76SLPC   H4Y 6885   0.122   6.625   7.130 -0.1205  1.2816  3.0810
   76SLPC   C35 6886   0.308   6.678   7.231  0.4240  0.3240  0.1756
   76SLPC   H5X 6887   0.411   6.715   7.210 -0.6661  2.8139 -1.1675
   76SLPC   H5Y 6888   0.313   6.572   7.265  1.3962  0.2023 -0.3220
   76SLPC   C36 6889   0.247   6.751   7.346 -0.6303  0.0739 -0.3019
   76SLPC   H6X 6890   0.145   6.707   7.349 -0.5290 -0.1302  0.3929
   76SLPC   H6Y 6891   0.248   6.855   7.308 -1.1153 -0.5282 -2.0790
   76SLPC   C37 6892   0.331   6.726   7.473  0.1380  0.1672 -0.3441
   76SLPC   H7X 6893   0.438   6.752   7.459  0.1135  0.5787  0.1964
   76SLPC   H7Y 6894   0.336   6.616   7.490 -1.0720  0.2360  0.6069
   76SLPC   C38 6895   0.260   6.787   7.603 -0.0207  0.7881  0.4189
   76SLPC   H8X 6896   0.152   6.759   7.603  0.1967 -0.1375  1.4817
   76SLPC   H8Y 6897   0.261   6.897   7.590 -5.0337  0.9417 -0.4634
   76SLPC   C39 6898   0.310   6.738   7.743 -0.3427 -0.5983 -0.0093
   76SLPC   H9X 6899   0.331   6.629   7.746  1.0797 -0.3285  1.3640
   76SLPC   H9Y 6900   0.229   6.761   7.815  1.5550  0.7205  1.8161
   76SLPC  C310 6901   0.429   6.816   7.800  0.1976  0.5626 -0.1125
   76SLPC  H10X 6902   0.400   6.922   7.816  0.0093  0.5019 -0.0494
   76SLPC  H10Y 6903   0.510   6.817   7.724  0.3792 -1.5267  0.0030
   76SLPC  C311 6904   0.485   6.751   7.923 -0.3407 -0.1772 -0.4548
   76SLPC  H11X 6905   0.550   6.668   7.888 -1.9156 -2.6690  2.0240
   76SLPC  H11Y 6906   0.400   6.703   7.977 -0.5574 -2.7689 -2.8736
   76SLPC  C312 6907   0.551   6.863   8.021  0.3247 -0.0106  0.5713
   76SLPC  H12X 6908   0.479   6.946   8.037 -2.2049 -1.8430 -0.6134
   76SLPC  H12Y 6909   0.632   6.901   7.956 -2.4187  0.9951 -2.4827
   76SLPC  C313 6910   0.599   6.811   8.155 -0.1267 -0.2766  0.6542
   76SLPC  H13X 6911   0.683   6.740   8.144  0.9872  1.3244 -2.3232
   76SLPC  H13Y 6912   0.518   6.749   8.199  0.0593 -0.7577  0.3363
   76SLPC  C314 6913   0.653   6.926   8.245  0.8457  0.8703 -0.1385
   76SLPC  H14X 6914   0.589   7.016   8.252 -0.5764 -0.1944  1.4609
   76SLPC  H14Y 6915   0.753   6.943   8.199  0.7091  5.1443  0.7569
   76SLPC  C315 6916   0.680   6.891   8.400 -0.0619  0.4535  0.3352
   76SLPC  H15X 6917   0.596   6.833   8.443  1.6704 -4.6844 -2.3131
   76SLPC  H15Y 6918   0.686   6.991   8.448 -0.5486 -0.6648  2.8513
   76SLPC  C316 6919   0.805   6.807   8.427 -0.0210 -0.1698  1.0058
   76SLPC  H16X 6920   0.891   6.870   8.394  0.5658 -1.4437  0.0052
   76SLPC  H16Y 6921   0.797   6.710   8.372 -1.8861 -0.1832  1.2720
   76SLPC  C317 6922   0.827   6.765   8.576  0.2121  0.3809 -0.2697
   76SLPC  H17X 6923   0.746   6.695   8.603 -0.0922  0.4124 -1.0732
   76SLPC  H17Y 6924   0.817   6.846   8.652 -2.6868 -1.1514  1.1400
   76SLPC  C318 6925   0.943   6.671   8.607 -0.0525 -0.0102 -0.5971
   76SLPC  H18X 6926   0.918   6.579   8.549 -1.7431 -1.1694  1.8222
   76SLPC  H18Y 6927   0.945   6.628   8.709 -0.1920  0.6043 -0.3334
   76SLPC  H18Z 6928   1.034   6.727   8.575 -1.4087  2.1541 -0.8131
   77SLPC     N 6929   1.899   5.355   6.128  0.1499  0.5408  0.1577
   77SLPC   C13 6930   1.773   5.359   6.212  0.2744  0.6205  0.1305
   77SLPC  H13A 6931   1.698   5.283   6.193  0.7755 -0.0087  0.6073
   77SLPC  H13B 6932   1.802   5.355   6.316  1.2191 -0.9060 -0.1634
   77SLPC  H13C 6933   1.722   5.451   6.187 -0.0247  0.7887  1.3061
   77SLPC   C14 6934   1.882   5.406   5.989 -0.5900  0.6425 -0.0383
   77SLPC  H14A 6935   1.827   5.499   5.991 -0.0183  1.0607 -1.7640
   77SLPC  H14B 6936   1.976   5.415   5.937 -1.1000  1.5958 -0.8367
   77SLPC  H14C 6937   1.824   5.337   5.929  0.8561 -0.7817  0.1309
   77SLPC   C15 6938   1.948   5.216   6.122  0.3680 -0.3776  0.0391
   77SLPC  H15A 6939   2.053   5.220   6.099  0.7998  0.3358  1.9841
   77SLPC  H15B 6940   1.942   5.175   6.222  1.0643 -2.4953 -0.7341
   77SLPC  H15C 6941   1.893   5.157   6.049  0.3737  2.6224 -2.6365
   77SLPC   C12 6942   2.009   5.444   6.192  0.0421  0.2920  0.4384
   77SLPC  H12A 6943   2.000   5.542   6.149  0.8615 -0.0802 -0.6239
   77SLPC  H12B 6944   2.106   5.410   6.157 -0.4580 -2.5381  1.5263
   77SLPC   C11 6945   2.015   5.456   6.344 -0.9724  1.3115 -0.6414
   77SLPC  H11A 6946   1.935   5.527   6.374 -0.6365  1.2866  0.3556
   77SLPC  H11B 6947   2.112   5.499   6.378 -0.6419 -0.4038  0.7925
   77SLPC     P 6948   2.090   5.237   6.464  0.2954 -0.1669  0.0637
   77SLPC   O13 6949   2.027   5.106   6.502 -0.0978  0.5288 -0.1298
   77SLPC   O14 6950   2.187   5.237   6.349 -0.3021 -0.1888  0.0814
   77SLPC   O12 6951   1.979   5.338   6.416 -0.1173  0.5942  0.1594
   77SLPC   O11 6952   2.154   5.315   6.585 -0.5617 -0.0743 -0.4383
   77SLPC    C1 6953   2.287   5.285   6.627 -0.3967  0.4457  0.0938
   77SLPC    HA 6954   2.351   5.258   6.541 -1.2324 -0.2638 -0.3180
   77SLPC    HB 6955   2.327   5.378   6.674  0.0010 -0.7354  2.2406
   77SLPC    C2 6956   2.293   5.169   6.732  0.2613  0.1906  0.0168
   77SLPC    HS 6957   2.278   5.071   6.682 -0.0467 -0.5105  1.4214
   77SLPC   O21 6958   2.193   5.188   6.832  0.9186  0.0714  0.2484
   77SLPC   C21 6959   2.184   5.109   6.931  0.2036  0.7037 -0.5778
   77SLPC   O22 6960   2.232   4.997   6.944 -0.2914  0.1925 -0.3334
   77SLPC   C22 6961   2.092   5.180   7.035  0.4876  0.2990  0.3646
   77SLPC   H2R 6962   2.027   5.245   6.973  2.0767  1.1219 -0.5125
   77SLPC   H2S 6963   2.020   5.113   7.087  0.1559 -0.3559 -0.8896
   77SLPC    C3 6964   2.430   5.149   6.795  0.2411 -0.0874 -0.8163
   77SLPC    HX 6965   2.501   5.166   6.712 -0.2859  0.3713 -1.1825
   77SLPC    HY 6966   2.439   5.048   6.839  1.3604 -0.1589 -1.1899
   77SLPC   O31 6967   2.451   5.248   6.901 -0.1911 -0.3444 -0.2479
   77SLPC   C31 6968   2.517   5.357   6.864 -0.0353  0.0137  0.0109
   77SLPC   O32 6969   2.552   5.385   6.749 -0.0363  0.1187 -0.1718
   77SLPC   C32 6970   2.550   5.440   6.991  0.0159  0.0483  0.6382
   77SLPC   H2X 6971   2.467   5.492   7.043  0.5689  2.8385 -1.0508
   77SLPC   H2Y 6972   2.605   5.526   6.947 -0.4002 -0.0619 -0.1020
   77SLPC   C23 6973   2.167   5.271   7.130 -0.1990 -0.8160 -0.8992
   77SLPC   H3R 6974   2.080   5.333   7.161  0.2626  0.9949 -2.9006
   77SLPC   H3S 6975   2.234   5.341   7.075  0.4027 -1.3637 -0.8714
   77SLPC   C24 6976   2.220   5.194   7.249 -0.2290 -0.1146  0.3659
   77SLPC   H4R 6977   2.309   5.132   7.224 -0.7153 -0.2854 -1.0403
   77SLPC   H4S 6978   2.134   5.130   7.278 -0.5692  0.0235 -0.3132
   77SLPC   C25 6979   2.236   5.287   7.374  0.2914 -0.2041 -0.1973
   77SLPC   H5R 6980   2.132   5.312   7.404  0.4959 -0.3827  0.6962
   77SLPC   H5S 6981   2.298   5.372   7.340  2.0110 -0.5234  1.8999
   77SLPC   C26 6982   2.308   5.228   7.493  0.6279  0.5085  0.4116
   77SLPC   H6R 6983   2.413   5.196   7.473 -0.1431 -0.9610 -1.5275
   77SLPC   H6S 6984   2.264   5.128   7.517 -1.0010  0.7855 -1.2302
   77SLPC   C27 6985   2.304   5.326   7.602 -0.1180  0.4929  0.1029
   77SLPC   H7R 6986   2.208   5.382   7.591  0.5034  1.1670 -2.6237
   77SLPC   H7S 6987   2.371   5.412   7.579 -0.3990  0.5607 -0.4850
   77SLPC   C28 6988   2.332   5.274   7.744  0.1921  0.5972  0.7269
   77SLPC   H8R 6989   2.349   5.356   7.816 -0.5493  0.8664  0.6078
   77SLPC   H8S 6990   2.431   5.225   7.740  0.5282  1.3064  0.1692
   77SLPC   C29 6991   2.216   5.196   7.792  0.4785  0.1607  0.3497
   77SLPC   H9R 6992   2.144   5.160   7.717  0.3536  1.0365  0.0419
   77SLPC  C210 6993   2.181   5.174   7.920 -0.2060  0.2116  0.4025
   77SLPC  H10R 6994   2.093   5.116   7.950 -2.1168  2.5099 -0.4291
   77SLPC  C211 6995   2.274   5.222   8.034  0.2379 -0.1641 -0.1281
   77SLPC  H11R 6996   2.235   5.320   8.068 -1.8646 -0.8945 -0.2982
   77SLPC  H11S 6997   2.383   5.226   8.012  0.1893 -0.7569 -0.5010
   77SLPC  C212 6998   2.274   5.126   8.159  0.1155 -0.0457  0.1613
   77SLPC  H12R 6999   2.297   5.025   8.122  0.2820  0.1414 -0.2540
   77SLPC  C213 7000   2.248   5.148   8.290  0.0125  0.5608 -0.2924
   77SLPC  H13R 7001   2.263   5.064   8.359  2.2096  1.0841 -0.0498
   77SLPC  C214 7002   2.225   5.281   8.365  0.3138  0.5921  0.1260
   77SLPC  H14R 7003   2.127   5.274   8.418 -0.8383  1.1036 -1.8282
   77SLPC  H14S 7004   2.221   5.364   8.291  0.4397  0.2269 -0.2925
   77SLPC  C215 7005   2.343   5.295   8.470  0.4215 -0.2785  0.3303
   77SLPC  H15R 7006   2.439   5.294   8.413  0.2732  0.6131  0.0474
   77SLPC  H15S 7007   2.349   5.210   8.542  0.3663  0.4518  1.2165
   77SLPC  C216 7008   2.334   5.416   8.572 -0.0930 -0.2893  0.1397
   77SLPC  H16R 7009   2.429   5.416   8.631  1.6595  0.1831 -2.5167
   77SLPC  H16S 7010   2.246   5.403   8.639 -2.1754 -0.8255 -2.5412
   77SLPC  C217 7011   2.322   5.549   8.493  0.4637 -0.1472 -0.8848
   77SLPC  H17R 7012   2.218   5.553   8.455 -0.0709  0.2595  0.5632
   77SLPC  H17S 7013   2.396   5.544   8.410 -1.0486  2.3300 -2.5207
   77SLPC  C218 7014   2.338   5.668   8.590 -0.1567  0.1641 -0.0541
   77SLPC  H18R 7015   2.430   5.656   8.651 -1.1579  2.7580  2.1598
   77SLPC  H18S 7016   2.255   5.689   8.661  0.2698  0.1911  0.4436
   77SLPC  H18T 7017   2.352   5.760   8.529  2.4128 -0.1792 -0.0776
   77SLPC   C33 7018   2.631   5.369   7.097 -0.8065  0.3355 -0.5934
   77SLPC   H3X 7019   2.724   5.343   7.041 -0.9074 -2.1956  0.3193
   77SLPC   H3Y 7020   2.590   5.269   7.117 -1.7843  0.6816 -0.8044
   77SLPC   C34 7021   2.671   5.448   7.224 -0.2054  0.1871 -0.0467
   77SLPC   H4X 7022   2.701   5.553   7.202  1.6066 -0.4068 -0.6324
   77SLPC   H4Y 7023   2.756   5.390   7.267  0.8425 -0.2143 -2.4317
   77SLPC   C35 7024   2.559   5.452   7.325 -0.6403 -0.6733  0.0259
   77SLPC   H5X 7025   2.534   5.347   7.350 -0.5310 -0.5481  0.6755
   77SLPC   H5Y 7026   2.478   5.497   7.263 -0.2410 -0.1582 -0.1334
   77SLPC   C36 7027   2.592   5.522   7.453 -0.0260  0.6443  0.2041
   77SLPC   H6X 7028   2.502   5.566   7.501  0.2680  0.3911  1.0110
   77SLPC   H6Y 7029   2.663   5.607   7.443  0.7568 -0.0626 -0.3808
   77SLPC   C37 7030   2.656   5.424   7.546  0.2514 -0.2762 -0.0077
   77SLPC   H7X 7031   2.738   5.373   7.490 -0.4728  0.8144 -2.1838
   77SLPC   H7Y 7032   2.576   5.356   7.582 -0.7870  0.4290 -0.9111
   77SLPC   C38 7033   2.718   5.481   7.674 -0.4469 -0.5628  0.5931
   77SLPC   H8X 7034   2.797   5.556   7.654 -2.5081  2.3830  2.6111
   77SLPC   H8Y 7035   2.764   5.388   7.713 -2.5473 -1.1343  1.8506
   77SLPC   C39 7036   2.619   5.548   7.772 -0.1641  0.2413  0.2634
   77SLPC   H9X 7037   2.531   5.481   7.764  0.3392 -0.3891 -0.1866
   77SLPC   H9Y 7038   2.595   5.652   7.740  0.7520  0.1762 -0.7050
   77SLPC  C310 7039   2.657   5.550   7.914  0.0907  0.0900  0.0877
   77SLPC  H10X 7040   2.680   5.651   7.954  0.1180 -1.1853  3.7133
   77SLPC  H10Y 7041   2.753   5.494   7.916  1.1922  1.8256 -1.4859
   77SLPC  C311 7042   2.554   5.474   8.004  0.0447 -0.4115  0.0284
   77SLPC  H11X 7043   2.537   5.373   7.961 -0.9852  0.0323 -0.6411
   77SLPC  H11Y 7044   2.452   5.519   7.997 -0.4306 -1.3332  0.7327
   77SLPC  C312 7045   2.598   5.441   8.148  0.2707  0.7185 -0.4551
   77SLPC  H12X 7046   2.651   5.345   8.168 -1.0904  0.2467  1.1965
   77SLPC  H12Y 7047   2.503   5.437   8.205  1.2373  1.1570  1.2658
   77SLPC  C313 7048   2.667   5.557   8.219 -0.0659  0.3659 -0.4861
   77SLPC  H13X 7049   2.606   5.650   8.213  0.3681  0.6561 -0.4253
   77SLPC  H13Y 7050   2.773   5.572   8.192 -0.2219  1.0978 -0.7027
   77SLPC  C314 7051   2.683   5.536   8.374  0.2596 -0.7673 -0.2355
   77SLPC  H14X 7052   2.756   5.453   8.385 -0.5097 -1.6388 -1.5312
   77SLPC  H14Y 7053   2.591   5.501   8.425  0.7407 -1.1081  0.4189
   77SLPC  C315 7054   2.724   5.676   8.444  0.3600  0.4554 -0.2636
   77SLPC  H15X 7055   2.655   5.759   8.417  1.0424  0.6009 -1.5817
   77SLPC  H15Y 7056   2.822   5.707   8.403  0.9260 -1.1527 -0.2083
   77SLPC  C316 7057   2.727   5.661   8.595 -0.2794  0.7218 -0.9694
   77SLPC  H16X 7058   2.765   5.559   8.614 -0.9156  0.7084  0.3167
   77SLPC  H16Y 7059   2.627   5.669   8.641  0.0913 -0.5866  0.1298
   77SLPC  C317 7060   2.823   5.767   8.655 -0.0621 -0.7049  0.7151
   77SLPC  H17X 7061   2.812   5.876   8.640  1.0371 -0.6094  0.4606
   77SLPC  H17Y 7062   2.919   5.752   8.600 -0.4483 -0.6422  0.0002
   77SLPC  C318 7063   2.847   5.746   8.803  0.0998 -0.2334  0.2050
   77SLPC  H18X 7064   2.922   5.815   8.847  1.4179 -1.0068 -0.7443
   77SLPC  H18Y 7065   2.889   5.643   8.810 -1.4872 -0.8677  0.8911
   77SLPC  H18Z 7066   2.758   5.754   8.869  0.2918 -1.3672  0.6243
   78SLPC     N 7067   6.430   4.995   5.903 -0.5333  0.4314  0.1758
   78SLPC   C13 7068   6.298   5.062   5.925 -0.5214 -0.1319  0.7647
   78SLPC  H13A 7069   6.265   5.112   5.835 -1.6943 -0.3556  1.0670
   78SLPC  H13B 7070   6.220   4.994   5.953 -0.4842  0.3824  2.2187
   78SLPC  H13C 7071   6.315   5.140   5.998 -2.0492  0.6871  0.2861
   78SLPC   C14 7072   6.514   5.078   5.807  0.0519 -0.0411 -0.4994
   78SLPC  H14A 7073   6.541   5.174   5.849  3.2001 -0.7080 -0.7896
   78SLPC  H14B 7074   6.610   5.041   5.776  0.7426 -0.1948  1.6289
   78SLPC  H14C 7075   6.459   5.088   5.715  1.4397  0.6854 -1.2773
   78SLPC   C15 7076   6.413   4.857   5.838  0.3574  0.3882 -0.1107
   78SLPC  H15A 7077   6.363   4.788   5.904  0.3106 -1.9186 -2.4127
   78SLPC  H15B 7078   6.345   4.869   5.755  0.5168  3.1821  0.0499
   78SLPC  H15C 7079   6.504   4.811   5.801  0.0927  0.6749 -1.1570
   78SLPC   C12 7080   6.506   4.967   6.031  0.5478  0.2232 -0.4846
   78SLPC  H12A 7081   6.591   4.904   6.009  0.5933  0.5417 -1.2811
   78SLPC  H12B 7082   6.438   4.905   6.088  0.7679 -0.0654 -0.5328
   78SLPC   C11 7083   6.558   5.093   6.117 -0.1355  0.2663 -0.7016
   78SLPC  H11A 7084   6.590   5.051   6.215 -1.4200 -2.6538 -1.4269
   78SLPC  H11B 7085   6.469   5.159   6.132 -0.2725 -0.5188  2.6794
   78SLPC     P 7086   6.818   5.107   6.049 -0.3314  0.0448 -0.1280
   78SLPC   O13 7087   6.823   4.964   5.997  0.2124 -0.4788 -0.5031
   78SLPC   O14 7088   6.910   5.201   5.984 -0.5235 -0.8414 -0.1916
   78SLPC   O12 7089   6.664   5.160   6.048 -0.9480  0.3720  0.2022
   78SLPC   O11 7090   6.862   5.112   6.206 -0.6361  0.2454  0.1216
   78SLPC    C1 7091   6.840   5.235   6.269 -0.1194 -0.5486  0.0339
   78SLPC    HA 7092   6.897   5.315   6.216 -0.0922  0.0862  0.9816
   78SLPC    HB 7093   6.730   5.251   6.276 -0.1307  0.0062 -1.1407
   78SLPC    C2 7094   6.903   5.236   6.415 -0.1027  0.7896  0.2903
   78SLPC    HS 7095   7.003   5.187   6.416  0.5774  2.1118  1.7866
   78SLPC   O21 7096   6.822   5.162   6.507  0.6335 -0.0337  0.1899
   78SLPC   C21 7097   6.832   5.034   6.511 -0.0914 -0.1580  0.3397
   78SLPC   O22 7098   6.904   4.961   6.449  0.3631 -0.0592 -0.0547
   78SLPC   C22 7099   6.719   4.982   6.605  0.1913  0.2659  0.3369
   78SLPC   H2R 7100   6.648   4.922   6.544  1.2512  0.8408 -1.5810
   78SLPC   H2S 7101   6.779   4.922   6.677  0.5682 -1.2848 -1.1685
   78SLPC    C3 7102   6.926   5.386   6.466 -0.3551  0.0165  0.2156
   78SLPC    HX 7103   6.865   5.452   6.401 -0.6931  0.0472  0.5562
   78SLPC    HY 7104   7.033   5.411   6.452 -0.6445  0.9874 -0.3470
   78SLPC   O31 7105   6.885   5.403   6.607  0.3273  0.7382  0.2348
   78SLPC   C31 7106   6.762   5.445   6.622 -0.0100  0.3717 -0.6770
   78SLPC   O32 7107   6.669   5.435   6.546 -0.0579 -0.3983  0.2921
   78SLPC   C32 7108   6.742   5.508   6.757  0.5507  0.5726 -0.3606
   78SLPC   H2X 7109   6.695   5.609   6.754 -0.8440 -0.0669 -0.5295
   78SLPC   H2Y 7110   6.847   5.511   6.795  2.1937 -0.9136 -4.2604
   78SLPC   C23 7111   6.638   5.107   6.663 -0.5888  1.5752 -0.0997
   78SLPC   H3R 7112   6.600   5.163   6.575  1.4604  2.4329 -0.4963
   78SLPC   H3S 7113   6.708   5.172   6.720 -0.7754 -0.3297  2.4416
   78SLPC   C24 7114   6.520   5.062   6.751  0.3531  0.4006  0.3297
   78SLPC   H4R 7115   6.442   5.012   6.691  1.0460  0.3637 -0.5471
   78SLPC   H4S 7116   6.476   5.149   6.805  1.9711  1.1510  0.4975
   78SLPC   C25 7117   6.570   4.971   6.866  0.4572  0.9286 -0.1165
   78SLPC   H5R 7118   6.655   5.025   6.914  1.6241 -1.2121  0.3581
   78SLPC   H5S 7119   6.610   4.879   6.818  0.7650  1.6502 -1.2683
   78SLPC   C26 7120   6.467   4.924   6.971  0.0010  0.5195  0.7679
   78SLPC   H6R 7121   6.512   4.856   7.046 -3.0693 -1.6892  0.8178
   78SLPC   H6S 7122   6.383   4.864   6.930  0.7757 -1.2085  1.5921
   78SLPC   C27 7123   6.410   5.041   7.058 -0.8407  0.1450  0.8310
   78SLPC   H7R 7124   6.384   5.120   6.984  1.8798  1.5171  1.2329
   78SLPC   H7S 7125   6.499   5.077   7.113 -1.4459  2.6390  0.3214
   78SLPC   C28 7126   6.291   4.992   7.154  0.0288  0.2803  0.1992
   78SLPC   H8R 7127   6.329   4.916   7.225 -1.8114 -1.2794 -0.3947
   78SLPC   H8S 7128   6.219   4.936   7.091  1.1240 -0.6396 -0.2626
   78SLPC   C29 7129   6.224   5.109   7.221 -0.5502 -0.3026 -0.3683
   78SLPC   H9R 7130   6.167   5.173   7.153  1.1488  1.0465 -0.5963
   78SLPC  C210 7131   6.218   5.117   7.355 -0.6118 -0.2146 -0.0318
   78SLPC  H10R 7132   6.177   5.215   7.385  0.5581  0.3757 -0.3024
   78SLPC  C211 7133   6.281   5.020   7.455  0.4125 -1.1468 -0.4212
   78SLPC  H11R 7134   6.306   5.073   7.549 -1.4527 -1.7666  0.4714
   78SLPC  H11S 7135   6.384   4.997   7.420  1.8256  1.7270  1.5055
   78SLPC  C212 7136   6.208   4.888   7.478  0.3259 -0.0954  0.2837
   78SLPC  H12R 7137   6.224   4.814   7.398 -0.2589 -0.1897  0.2454
   78SLPC  C213 7138   6.129   4.849   7.583 -0.6756 -0.6597  0.2846
   78SLPC  H13R 7139   6.081   4.750   7.585  1.2542 -1.6563  0.3317
   78SLPC  C214 7140   6.101   4.938   7.701 -0.2307  0.2490 -0.2114
   78SLPC  H14R 7141   6.125   5.044   7.679  2.3559 -0.6795 -2.3302
   78SLPC  H14S 7142   6.167   4.912   7.787  3.6824 -0.4097 -3.1593
   78SLPC  C215 7143   5.953   4.937   7.727 -0.6125  0.5646 -0.1943
   78SLPC  H15R 7144   5.911   4.836   7.715  1.2908  0.0017 -3.3888
   78SLPC  H15S 7145   5.899   5.004   7.656 -1.4071  0.4056  0.2602
   78SLPC  C216 7146   5.918   4.981   7.869 -0.2100 -0.2312  0.1498
   78SLPC  H16R 7147   5.998   4.940   7.934 -3.5157 -2.5784  3.1058
   78SLPC  H16S 7148   5.831   4.925   7.909  0.6042 -1.2948  0.4789
   78SLPC  C217 7149   5.902   5.132   7.883 -0.0758 -1.0464  0.2556
   78SLPC  H17R 7150   5.983   5.167   7.815  2.1935 -2.6328  1.9734
   78SLPC  H17S 7151   5.940   5.160   7.984  1.7855  0.7261 -0.8535
   78SLPC  C218 7152   5.764   5.194   7.854 -0.9131  0.1565  0.1270
   78SLPC  H18R 7153   5.730   5.177   7.749 -0.1980  0.7103 -0.2083
   78SLPC  H18S 7154   5.770   5.305   7.862  2.7108 -0.0352  1.6567
   78SLPC  H18T 7155   5.689   5.158   7.928  0.2307  0.0297  1.2402
   78SLPC   C33 7156   6.664   5.420   6.856  0.7844  0.8762  0.2913
   78SLPC   H3X 7157   6.733   5.339   6.886  0.2136  0.2418 -0.0571
   78SLPC   H3Y 7158   6.573   5.384   6.803  2.3147 -1.6503 -0.8286
   78SLPC   C34 7159   6.630   5.494   6.981  0.3467 -0.3735  0.0197
   78SLPC   H4X 7160   6.566   5.584   6.974 -2.0879 -1.9816  0.4820
   78SLPC   H4Y 7161   6.722   5.549   7.011 -0.4445  0.7080  0.5325
   78SLPC   C35 7162   6.590   5.408   7.106  0.0640  0.1996 -1.0511
   78SLPC   H5X 7163   6.676   5.351   7.145  1.5747  1.3125 -2.5887
   78SLPC   H5Y 7164   6.504   5.339   7.094 -0.1346 -0.0762  1.5240
   78SLPC   C36 7165   6.544   5.500   7.230  0.8313 -0.0799 -0.0740
   78SLPC   H6X 7166   6.462   5.566   7.197  0.9647 -0.0298 -0.3084
   78SLPC   H6Y 7167   6.617   5.578   7.262 -2.8376  2.8949  1.7697
   78SLPC   C37 7168   6.497   5.410   7.342  0.0164 -0.2686  0.6691
   78SLPC   H7X 7169   6.583   5.350   7.379  2.3851  1.8898 -1.0483
   78SLPC   H7Y 7170   6.409   5.353   7.305  0.2187  0.7694 -1.5370
   78SLPC   C38 7171   6.443   5.503   7.464 -1.0449  0.5892 -0.4084
   78SLPC   H8X 7172   6.358   5.569   7.434 -0.5558  1.2237 -0.4267
   78SLPC   H8Y 7173   6.525   5.570   7.498 -0.2152 -1.0472  0.9235
   78SLPC   C39 7174   6.398   5.424   7.590 -0.6618 -0.0783  0.2202
   78SLPC   H9X 7175   6.329   5.347   7.548  0.6594 -1.5820  0.6953
   78SLPC   H9Y 7176   6.343   5.495   7.655 -0.2498 -2.4746  3.4073
   78SLPC  C310 7177   6.502   5.346   7.668  0.3411 -0.0400 -0.5449
   78SLPC  H10X 7178   6.575   5.420   7.708  0.2383 -1.1195  1.7542
   78SLPC  H10Y 7179   6.552   5.289   7.587 -0.6724 -0.2750 -1.0167
   78SLPC  C311 7180   6.440   5.258   7.774  0.4719  0.1701 -0.3355
   78SLPC  H11X 7181   6.525   5.205   7.821  1.5294  1.4323 -0.7594
   78SLPC  H11Y 7182   6.370   5.187   7.725 -2.0774  1.5708  1.0699
   78SLPC  C312 7183   6.359   5.338   7.880  0.2677 -0.1587  0.1098
   78SLPC  H12X 7184   6.270   5.360   7.817  2.4604  1.7580 -2.5581
   78SLPC  H12Y 7185   6.412   5.434   7.899 -0.7931  0.4663  0.0516
   78SLPC  C313 7186   6.308   5.255   7.997 -0.1311  0.4815  0.0293
   78SLPC  H13X 7187   6.257   5.161   7.967  2.0705 -0.5563 -0.5982
   78SLPC  H13Y 7188   6.229   5.315   8.047  0.7568  0.7982  1.0935
   78SLPC  C314 7189   6.414   5.233   8.106  0.0928  0.2771 -0.1631
   78SLPC  H14X 7190   6.472   5.328   8.112 -1.1164  1.0860 -0.8291
   78SLPC  H14Y 7191   6.481   5.148   8.080  2.3718  1.1306  2.4236
   78SLPC  C315 7192   6.344   5.210   8.231 -0.0822 -0.2164 -0.3472
   78SLPC  H15X 7193   6.288   5.304   8.248 -2.2234 -1.2728 -1.1461
   78SLPC  H15Y 7194   6.412   5.194   8.317 -2.2190 -1.7245  1.1663
   78SLPC  C316 7195   6.244   5.092   8.238  0.5241  0.3792 -0.1521
   78SLPC  H16X 7196   6.292   4.992   8.241  0.4178  0.3447  0.9299
   78SLPC  H16Y 7197   6.178   5.086   8.149  0.6741  1.3460 -0.3331
   78SLPC  C317 7198   6.154   5.092   8.366 -0.0394 -0.0942  0.1448
   78SLPC  H17X 7199   6.101   4.995   8.358 -0.3672  0.2161 -2.4620
   78SLPC  H17Y 7200   6.080   5.173   8.351  0.7999  0.6439 -0.1212
   78SLPC  C318 7201   6.223   5.100   8.499  0.0994  0.0376 -0.0203
   78SLPC  H18X 7202   6.299   5.021   8.519  1.2728  1.0660 -0.3010
   78SLPC  H18Y 7203   6.143   5.100   8.576 -0.6443  2.3252 -0.7163
   78SLPC  H18Z 7204   6.270   5.199   8.516  1.1075 -0.3752 -0.3262
   79SLPC     N 7205   0.104   6.633   6.382  0.0622 -0.3243 -0.0375
   79SLPC   C13 7206   0.242   6.609   6.442  0.9062  0.1861  0.1197
   79SLPC  H13A 7207   0.320   6.666   6.394  1.3749  0.0817  0.7415
   79SLPC  H13B 7208   0.254   6.632   6.547  4.2914  0.4659 -0.2113
   79SLPC  H13C 7209   0.261   6.504   6.430  1.4030  0.3011 -0.1331
   79SLPC   C14 7210   0.005   6.536   6.454 -0.1557 -0.2190  0.4640
   79SLPC  H14A 7211  -0.078   6.512   6.388 -0.8521 -1.4530  1.7113
   79SLPC  H14B 7212   0.054   6.446   6.488  1.0332  0.6670  1.1550
   79SLPC  H14C 7213  -0.039   6.571   6.546 -0.4270 -1.2195  0.7316
   79SLPC   C15 7214   0.106   6.583   6.237  0.0415 -0.4705 -0.0961
   79SLPC  H15A 7215   0.007   6.571   6.197  0.3292  2.1649 -1.9023
   79SLPC  H15B 7216   0.164   6.638   6.164 -1.4064  0.0138 -0.9298
   79SLPC  H15C 7217   0.138   6.481   6.224 -0.0043 -0.3341 -1.4090
   79SLPC   C12 7218   0.053   6.778   6.376 -0.0892 -0.4907  0.6843
   79SLPC  H12A 7219  -0.051   6.777   6.347 -0.4772  1.9834  1.7675
   79SLPC  H12B 7220   0.107   6.836   6.303 -1.0129 -0.0735  0.3143
   79SLPC   C11 7221   0.040   6.847   6.512  0.1866 -0.1359 -0.1151
   79SLPC  H11A 7222  -0.002   6.777   6.587  0.3436 -1.0153 -0.8381
   79SLPC  H11B 7223  -0.021   6.940   6.511 -0.9720 -0.8770  0.3475
   79SLPC     P 7224   0.257   6.992   6.462 -0.0152 -0.1484  0.7481
   79SLPC   O13 7225   0.382   6.924   6.419  0.4031 -0.1067 -0.2668
   79SLPC   O14 7226   0.180   7.054   6.354  0.7956 -0.2642  0.1283
   79SLPC   O12 7227   0.172   6.892   6.545  0.4847  0.0244  0.7391
   79SLPC   O11 7228   0.292   7.099   6.570 -0.4127  0.8222 -0.2448
   79SLPC    C1 7229   0.235   7.084   6.701 -0.2759  0.0096 -0.4677
   79SLPC    HA 7230   0.125   7.068   6.700 -0.1838 -0.8607  0.8835
   79SLPC    HB 7231   0.271   6.999   6.763  0.7343  1.4148  0.9544
   79SLPC    C2 7232   0.275   7.207   6.787 -0.2185 -0.0269 -1.2594
   79SLPC    HS 7233   0.385   7.219   6.782  0.0070 -0.5904  1.3200
   79SLPC   O21 7234   0.236   7.194   6.926  0.8574 -0.0207  0.8309
   79SLPC   C21 7235   0.321   7.217   7.023  0.2236 -0.1805  0.5317
   79SLPC   O22 7236   0.438   7.231   6.996 -0.5133 -0.4386  0.5389
   79SLPC   C22 7237   0.253   7.207   7.157 -0.3899 -0.7483 -1.2588
   79SLPC   H2R 7238   0.177   7.287   7.157 -0.0507 -0.3529  1.1886
   79SLPC   H2S 7239   0.197   7.111   7.168 -0.2365 -0.9863 -2.4008
   79SLPC    C3 7240   0.215   7.345   6.739  0.0991  0.4237 -1.1224
   79SLPC    HX 7241   0.107   7.324   6.755  0.1623  1.3651  0.8985
   79SLPC    HY 7242   0.252   7.347   6.635  3.8033 -2.0528 -0.0581
   79SLPC   O31 7243   0.266   7.453   6.817 -0.3518 -0.1835 -0.4108
   79SLPC   C31 7244   0.191   7.567   6.800  0.1487  0.2520  0.0459
   79SLPC   O32 7245   0.107   7.581   6.716  0.0097  0.5314  0.2897
   79SLPC   C32 7246   0.227   7.665   6.912 -0.2902  0.4022  0.2175
   79SLPC   H2X 7247   0.154   7.748   6.902  0.8727  1.2844 -1.5595
   79SLPC   H2Y 7248   0.326   7.708   6.882 -0.3878 -0.8319 -2.1333
   79SLPC   C23 7249   0.352   7.222   7.273 -0.1767  0.4942  0.3662
   79SLPC   H3R 7250   0.409   7.317   7.275  1.1765 -0.2865  0.2626
   79SLPC   H3S 7251   0.430   7.145   7.253  0.1486  0.8554  0.2240
   79SLPC   C24 7252   0.279   7.200   7.406 -1.0078 -0.3914 -0.2610
   79SLPC   H4R 7253   0.330   7.121   7.465  0.9056  0.7370 -0.3028
   79SLPC   H4S 7254   0.172   7.174   7.396 -1.6453  0.8049  2.5107
   79SLPC   C25 7255   0.260   7.325   7.490  0.1489 -0.1481 -1.1512
   79SLPC   H5R 7256   0.188   7.388   7.434 -0.0184 -1.5145 -2.5174
   79SLPC   H5S 7257   0.356   7.375   7.514  0.7362 -1.1751 -1.3303
   79SLPC   C26 7258   0.194   7.301   7.635  0.2580  0.5283 -0.3217
   79SLPC   H6R 7259   0.097   7.248   7.629  0.6481 -0.0796 -1.8811
   79SLPC   H6S 7260   0.189   7.399   7.687 -2.2688 -0.5154  1.5708
   79SLPC   C27 7261   0.276   7.215   7.728 -0.4615 -0.4578  0.1549
   79SLPC   H7R 7262   0.307   7.125   7.670  0.7242  0.7722 -1.2123
   79SLPC   H7S 7263   0.210   7.170   7.805  0.3128 -2.6832 -0.3968
   79SLPC   C28 7264   0.397   7.299   7.785  0.3789  0.5610 -0.5365
   79SLPC   H8R 7265   0.369   7.394   7.835  0.0627 -1.1127  2.7071
   79SLPC   H8S 7266   0.475   7.327   7.711  0.9564 -1.0394 -0.5689
   79SLPC   C29 7267   0.480   7.211   7.876  0.4792  0.1209 -0.0168
   79SLPC   H9R 7268   0.519   7.130   7.812 -0.8335  0.3344 -1.1416
   79SLPC  C210 7269   0.512   7.234   8.004 -0.6205 -0.5970  0.2131
   79SLPC  H10R 7270   0.586   7.166   8.049 -0.4596 -0.0867  0.7279
   79SLPC  C211 7271   0.479   7.362   8.084  0.4703 -0.3577 -0.3869
   79SLPC  H11R 7272   0.508   7.334   8.188  0.0055  0.1160 -0.1287
   79SLPC  H11S 7273   0.372   7.391   8.091  1.0740  1.8422  0.4077
   79SLPC  C212 7274   0.555   7.489   8.047 -0.3395 -0.5206 -0.0643
   79SLPC  H12R 7275   0.592   7.493   7.943 -0.0062  3.3693  0.0721
   79SLPC  C213 7276   0.576   7.591   8.125  0.2919 -0.4031 -0.2347
   79SLPC  H13R 7277   0.630   7.680   8.089  0.4973  1.5021  4.1042
   79SLPC  C214 7278   0.522   7.596   8.266 -0.2443 -0.4200 -0.3314
   79SLPC  H14R 7279   0.602   7.567   8.337  0.4767  0.5239 -0.7267
   79SLPC  H14S 7280   0.430   7.536   8.279  0.1231 -0.9920 -0.3455
   79SLPC  C215 7281   0.479   7.734   8.318 -0.3115 -0.0015 -0.2202
   79SLPC  H15R 7282   0.440   7.719   8.421 -0.7697  0.4172 -0.3325
   79SLPC  H15S 7283   0.390   7.762   8.259 -0.3226 -0.6877 -0.5242
   79SLPC  C216 7284   0.581   7.846   8.316 -0.3251 -0.2983 -0.2159
   79SLPC  H16R 7285   0.612   7.850   8.210  1.5374 -0.2621  0.2914
   79SLPC  H16S 7286   0.668   7.813   8.377 -0.1991 -0.7686 -0.6470
   79SLPC  C217 7287   0.542   7.992   8.357  0.0017 -0.3521 -0.3279
   79SLPC  H17R 7288   0.630   8.059   8.364  0.0603 -0.4890  0.3235
   79SLPC  H17S 7289   0.505   7.984   8.461  0.5825 -2.3194 -0.2389
   79SLPC  C218 7290   0.441   8.074   8.268 -0.0961  0.5128 -0.0303
   79SLPC  H18R 7291   0.453   8.179   8.303  2.1917  0.2392  0.1643
   79SLPC  H18S 7292   0.337   8.035   8.281  1.2197 -3.0035  1.1777
   79SLPC  H18T 7293   0.477   8.071   8.164  3.6735  1.8936  1.0783
   79SLPC   C33 7294   0.243   7.603   7.052  0.5330  0.4834  0.1366
   79SLPC   H3X 7295   0.292   7.504   7.054 -1.0411 -0.3203  0.7031
   79SLPC   H3Y 7296   0.140   7.582   7.088 -0.0494  2.2093 -0.4329
   79SLPC   C34 7297   0.318   7.700   7.148  0.2340  0.1213 -0.2738
   79SLPC   H4X 7298   0.279   7.803   7.130  1.6042  0.8973  1.0455
   79SLPC   H4Y 7299   0.423   7.712   7.115  0.6528 -0.3995  0.8508
   79SLPC   C35 7300   0.310   7.665   7.303  0.6637  0.1334  0.9837
   79SLPC   H5X 7301   0.377   7.577   7.316  1.8385  0.8238 -0.1398
   79SLPC   H5Y 7302   0.214   7.614   7.325 -1.9123  3.4395 -1.5924
   79SLPC   C36 7303   0.340   7.776   7.408 -0.1118  0.3001 -0.0825
   79SLPC   H6X 7304   0.272   7.865   7.409 -1.0531 -0.4037  0.3918
   79SLPC   H6Y 7305   0.441   7.811   7.378 -0.0925 -1.1164 -1.8029
   79SLPC   C37 7306   0.360   7.729   7.552 -0.2048 -0.1491  0.4670
   79SLPC   H7X 7307   0.398   7.625   7.546 -0.9750 -0.6094  2.4648
   79SLPC   H7Y 7308   0.258   7.715   7.595 -0.9217 -2.6880 -1.7823
   79SLPC   C38 7309   0.439   7.824   7.647 -0.0794  1.1097  0.0463
   79SLPC   H8X 7310   0.420   7.930   7.618 -1.4499  1.0160  0.5020
   79SLPC   H8Y 7311   0.545   7.799   7.627 -1.1461 -3.3116 -1.0151
   79SLPC   C39 7312   0.413   7.790   7.794 -0.1446  0.2028 -0.2650
   79SLPC   H9X 7313   0.491   7.843   7.854 -2.3799  1.5107  1.6331
   79SLPC   H9Y 7314   0.429   7.681   7.807 -1.3749  0.0787  0.3195
   79SLPC  C310 7315   0.273   7.822   7.848 -0.2264 -0.4478  0.4864
   79SLPC  H10X 7316   0.199   7.748   7.811 -1.5662  1.8098 -1.6472
   79SLPC  H10Y 7317   0.236   7.924   7.823 -0.1986 -0.1636  1.5489
   79SLPC  C311 7318   0.281   7.819   8.000  0.4524  0.0490  0.1592
   79SLPC  H11X 7319   0.354   7.898   8.027 -2.3898  3.2747 -0.9684
   79SLPC  H11Y 7320   0.307   7.716   8.034 -1.4787 -0.2606  0.8392
   79SLPC  C312 7321   0.140   7.849   8.069 -0.0564 -0.3397 -0.5856
   79SLPC  H12X 7322   0.147   7.811   8.173  0.1255 -0.5494 -0.6746
   79SLPC  H12Y 7323   0.066   7.775   8.030 -0.0372 -0.2919 -0.7147
   79SLPC  C313 7324   0.077   7.991   8.068 -0.5195  0.5326 -0.3852
   79SLPC  H13X 7325   0.026   8.000   7.969  0.0162 -2.4359 -1.0312
   79SLPC  H13Y 7326   0.145   8.074   8.096  1.2183  0.4256 -3.7802
   79SLPC  C314 7327  -0.046   7.986   8.166  0.1580 -0.0631  0.3532
   79SLPC  H14X 7328  -0.004   7.955   8.264  3.4765 -3.0336 -1.7602
   79SLPC  H14Y 7329  -0.123   7.912   8.135 -0.3004  0.7641 -0.5412
   79SLPC  C315 7330  -0.112   8.126   8.184 -0.7399  0.1023  0.5306
   79SLPC  H15X 7331  -0.187   8.137   8.103 -1.9332 -1.2949  1.4018
   79SLPC  H15Y 7332  -0.037   8.208   8.186 -0.8600  0.2078  0.6487
   79SLPC  C316 7333  -0.199   8.134   8.313  0.2717  0.4231  1.0110
   79SLPC  H16X 7334  -0.133   8.121   8.401  1.9580  0.2686 -0.2065
   79SLPC  H16Y 7335  -0.262   8.044   8.329  1.9360 -0.5380  2.5387
   79SLPC  C317 7336  -0.292   8.251   8.320 -0.3139 -0.3423  0.5673
   79SLPC  H17X 7337  -0.372   8.257   8.397 -1.5866  5.7360 -0.6799
   79SLPC  H17Y 7338  -0.349   8.252   8.224 -1.8270 -1.4066  1.4050
   79SLPC  C318 7339  -0.215   8.379   8.325  0.2850 -0.5661  0.0821
   79SLPC  H18X 7340  -0.114   8.380   8.278 -0.1676  0.4349 -0.9181
   79SLPC  H18Y 7341  -0.191   8.409   8.429 -0.5823 -0.0342  0.1321
   79SLPC  H18Z 7342  -0.277   8.461   8.283 -0.6150 -0.5962  1.3183
   80SLPC     N 7343   3.063   4.334   5.916 -0.0670  0.0567 -0.3442
   80SLPC   C13 7344   3.194   4.272   5.891 -0.5200  0.2108  0.0127
   80SLPC  H13A 7345   3.270   4.332   5.938  0.5808  0.1863 -1.6341
   80SLPC  H13B 7346   3.199   4.173   5.933  1.5926  0.3578  0.1929
   80SLPC  H13C 7347   3.215   4.257   5.786  0.7532 -0.0335  0.2915
   80SLPC   C14 7348   2.962   4.247   5.837  0.1773  0.1667  0.3067
   80SLPC  H14A 7349   2.861   4.284   5.851  0.5585  1.8599 -1.1218
   80SLPC  H14B 7350   2.984   4.236   5.732  1.4090 -1.4638  0.6897
   80SLPC  H14C 7351   2.967   4.143   5.868 -1.9292  0.1765  0.8563
   80SLPC   C15 7352   3.060   4.471   5.855 -0.2182 -0.1278 -0.0993
   80SLPC  H15A 7353   3.035   4.472   5.750 -2.1614  0.9063  0.3222
   80SLPC  H15B 7354   2.991   4.538   5.904 -0.1608 -1.0200  1.2740
   80SLPC  H15C 7355   3.156   4.520   5.867 -1.3559  1.9165  1.3236
   80SLPC   C12 7356   3.030   4.337   6.069  0.3034  0.0761  0.6807
   80SLPC  H12A 7357   3.042   4.235   6.104 -2.7812 -0.5314  0.2931
   80SLPC  H12B 7358   2.930   4.373   6.084  1.1275  2.9775 -0.2143
   80SLPC   C11 7359   3.107   4.437   6.163  0.4710 -0.2655 -0.3398
   80SLPC  H11A 7360   3.216   4.431   6.141  0.6216 -1.3682  0.6286
   80SLPC  H11B 7361   3.090   4.404   6.268  0.3615 -1.5237 -0.7404
   80SLPC     P 7362   2.925   4.624   6.209 -0.0038 -0.7765  0.1691
   80SLPC   O13 7363   2.915   4.766   6.178  0.4500  0.2008 -0.5055
   80SLPC   O14 7364   2.813   4.533   6.165  0.3091 -0.2095  0.2306
   80SLPC   O12 7365   3.061   4.572   6.145 -0.3939 -0.5756  0.0830
   80SLPC   O11 7366   2.954   4.610   6.363 -0.0494 -0.0164 -0.0213
   80SLPC    C1 7367   2.864   4.683   6.448  0.6418 -0.4991  0.3453
   80SLPC    HA 7368   2.862   4.793   6.429  1.3420 -0.2572  1.5963
   80SLPC    HB 7369   2.762   4.640   6.454 -0.9913  3.0137  0.5118
   80SLPC    C2 7370   2.917   4.661   6.590  0.1024 -0.2602 -0.4475
   80SLPC    HS 7371   2.835   4.680   6.662 -1.4613 -0.8560 -2.0168
   80SLPC   O21 7372   3.038   4.741   6.603 -0.1718 -0.2904  0.7071
   80SLPC   C21 7373   3.060   4.789   6.731  0.7812 -0.6215  0.2571
   80SLPC   O22 7374   2.972   4.796   6.815 -0.1146 -0.2336 -0.2493
   80SLPC   C22 7375   3.201   4.851   6.754  0.4664 -0.1055 -0.5260
   80SLPC   H2R 7376   3.275   4.769   6.758 -2.3599 -2.7649  0.7486
   80SLPC   H2S 7377   3.219   4.915   6.664  1.5826  0.6087  0.1746
   80SLPC    C3 7378   2.958   4.507   6.613  0.8113 -0.4188 -0.1436
   80SLPC    HX 7379   3.042   4.480   6.546  1.2243  0.2643  0.0907
   80SLPC    HY 7380   2.876   4.438   6.582  0.2929 -1.0767  2.4017
   80SLPC   O31 7381   2.999   4.477   6.754 -0.3392  0.1852  0.1398
   80SLPC   C31 7382   2.902   4.497   6.842 -0.5868 -0.0944  0.3206
   80SLPC   O32 7383   2.796   4.545   6.826 -0.2562  0.4533  0.6101
   80SLPC   C32 7384   2.967   4.477   6.983  0.2836 -0.5498 -0.0831
   80SLPC   H2X 7385   2.903   4.398   7.027  0.9054  0.1593  2.2159
   80SLPC   H2Y 7386   2.959   4.575   7.035  2.4755  0.1405 -0.9092
   80SLPC   C23 7387   3.209   4.926   6.892  0.9664  0.2125  0.3548
   80SLPC   H3R 7388   3.161   4.863   6.970 -0.6721  0.8559 -0.0873
   80SLPC   H3S 7389   3.156   5.023   6.884 -0.4022 -0.5811 -0.7845
   80SLPC   C24 7390   3.359   4.953   6.935  0.2530 -0.6663 -0.6157
   80SLPC   H4R 7391   3.402   5.034   6.871  2.0841  0.6932  2.1705
   80SLPC   H4S 7392   3.427   4.870   6.906  0.7602 -0.7581  0.7879
   80SLPC   C25 7393   3.385   4.986   7.089  0.0921 -0.2383  0.0234
   80SLPC   H5R 7394   3.334   5.081   7.119 -0.3592 -0.3906 -0.2586
   80SLPC   H5S 7395   3.493   5.012   7.091 -0.1002  0.5791  0.1564
   80SLPC   C26 7396   3.355   4.874   7.183  0.0095  0.1070  0.2157
   80SLPC   H6R 7397   3.422   4.798   7.137  1.3693  1.7798 -0.6846
   80SLPC   H6S 7398   3.255   4.828   7.168  0.7270 -1.3001 -0.5045
   80SLPC   C27 7399   3.397   4.891   7.330 -0.4368  0.0300  0.1181
   80SLPC   H7R 7400   3.319   4.955   7.376 -1.5160  0.0769 -1.6564
   80SLPC   H7S 7401   3.496   4.941   7.329 -0.9342  1.0752 -1.7132
   80SLPC   C28 7402   3.401   4.764   7.409 -0.1878  0.4691  1.1118
   80SLPC   H8R 7403   3.434   4.688   7.334 -4.4760 -0.3467 -0.2572
   80SLPC   H8S 7404   3.296   4.742   7.437 -0.0337 -1.2858  0.5085
   80SLPC   C29 7405   3.489   4.753   7.529 -0.1903 -0.8616  0.8079
   80SLPC   H9R 7406   3.595   4.728   7.509  0.4605  2.3698 -0.4705
   80SLPC  C210 7407   3.444   4.790   7.651 -1.4263  0.2305  0.5125
   80SLPC  H10R 7408   3.519   4.779   7.730 -1.5786 -3.0768  0.3733
   80SLPC  C211 7409   3.311   4.860   7.682 -0.3724  0.1949 -0.1125
   80SLPC  H11R 7410   3.243   4.779   7.718  0.2680 -0.5440 -0.5371
   80SLPC  H11S 7411   3.265   4.892   7.586  1.4959 -0.3991 -1.2650
   80SLPC  C212 7412   3.324   4.976   7.768 -0.1203 -0.1187  0.2448
   80SLPC  H12R 7413   3.369   5.061   7.716 -0.9580  0.6301  0.7193
   80SLPC  C213 7414   3.294   4.988   7.899 -0.1402  0.3925  0.1337
   80SLPC  H13R 7415   3.313   5.086   7.946 -0.7616  0.2752  0.6510
   80SLPC  C214 7416   3.243   4.887   7.998 -0.4363  0.1278 -0.6181
   80SLPC  H14R 7417   3.329   4.849   8.058  0.8294  1.4438 -1.5213
   80SLPC  H14S 7418   3.190   4.796   7.963 -1.3061 -0.6519  2.4233
   80SLPC  C215 7419   3.144   4.942   8.107 -0.2085 -0.2131  0.6544
   80SLPC  H15R 7420   3.043   4.969   8.069 -0.1330  0.9702  1.2684
   80SLPC  H15S 7421   3.197   5.026   8.156  1.0616 -1.2334  1.0946
   80SLPC  C216 7422   3.117   4.836   8.218 -0.4296  0.4733  0.8163
   80SLPC  H16R 7423   3.214   4.793   8.252 -0.4454  0.0876  0.3794
   80SLPC  H16S 7424   3.049   4.759   8.177 -0.2470  0.3126  0.8155
   80SLPC  C217 7425   3.054   4.899   8.334 -0.6580 -0.0556 -0.6823
   80SLPC  H17R 7426   2.972   4.969   8.309  0.5399  1.9848  0.7883
   80SLPC  H17S 7427   3.105   4.984   8.384  0.1171 -0.5390 -0.6360
   80SLPC  C218 7428   3.007   4.801   8.448  0.6941 -0.1789 -0.0259
   80SLPC  H18R 7429   3.085   4.730   8.484 -0.4483 -0.6721  1.6211
   80SLPC  H18S 7430   2.929   4.739   8.399  1.5146  0.4599 -2.2831
   80SLPC  H18T 7431   2.955   4.846   8.535 -0.8778 -2.0587  0.0837
   80SLPC   C33 7432   3.122   4.451   6.981  0.2263  0.6814  0.2434
   80SLPC   H3X 7433   3.171   4.549   6.962  0.7384  0.2042 -0.9532
   80SLPC   H3Y 7434   3.156   4.377   6.905  3.7732  0.8054  1.4809
   80SLPC   C34 7435   3.176   4.405   7.118  0.6534  0.1445  0.3430
   80SLPC   H4X 7436   3.285   4.424   7.114  0.3758  2.1924  1.0049
   80SLPC   H4Y 7437   3.150   4.299   7.137  1.3532 -0.0359  0.3248
   80SLPC   C35 7438   3.135   4.496   7.243 -0.4268  0.3988  0.1898
   80SLPC   H5X 7439   3.024   4.504   7.250 -0.6692 -0.7688 -1.5950
   80SLPC   H5Y 7440   3.177   4.597   7.227 -1.0608  0.6736  0.2025
   80SLPC   C36 7441   3.191   4.440   7.378  1.2488 -0.1350 -0.7331
   80SLPC   H6X 7442   3.284   4.492   7.408  1.6515 -1.2169 -0.0231
   80SLPC   H6Y 7443   3.217   4.332   7.371 -2.6547 -1.3780  0.9471
   80SLPC   C37 7444   3.094   4.469   7.494  0.4253  0.3350 -0.1176
   80SLPC   H7X 7445   2.992   4.446   7.457  0.0525  2.3856 -0.4996
   80SLPC   H7Y 7446   3.102   4.576   7.522  1.5337  0.2414 -0.0212
   80SLPC   C38 7447   3.132   4.396   7.619 -0.4087  1.0583  0.5509
   80SLPC   H8X 7448   3.134   4.286   7.598  3.1547  1.1774 -0.4430
   80SLPC   H8Y 7449   3.045   4.405   7.688  0.6963 -1.0753  2.3606
   80SLPC   C39 7450   3.265   4.441   7.675  1.3310 -0.0191  0.7618
   80SLPC   H9X 7451   3.271   4.551   7.660  0.0823 -0.1866 -1.2586
   80SLPC   H9Y 7452   3.347   4.390   7.621  0.9760 -0.1115  0.3138
   80SLPC  C310 7453   3.286   4.413   7.826 -0.2774 -0.2433  0.0575
   80SLPC  H10X 7454   3.261   4.310   7.860  2.6210 -1.0182  0.0888
   80SLPC  H10Y 7455   3.211   4.474   7.881 -0.9075 -1.2842  0.3846
   80SLPC  C311 7456   3.429   4.441   7.864  0.3752 -0.2568  0.3541
   80SLPC  H11X 7457   3.481   4.532   7.827 -0.4164  0.8356  1.7751
   80SLPC  H11Y 7458   3.493   4.354   7.839  0.5439 -0.3856  1.2002
   80SLPC  C312 7459   3.432   4.464   8.019 -0.4182 -0.1984 -0.4014
   80SLPC  H12X 7460   3.408   4.369   8.072 -1.7039 -0.8876 -2.1112
   80SLPC  H12Y 7461   3.352   4.540   8.032 -0.1716 -0.0158  0.0466
   80SLPC  C313 7462   3.567   4.516   8.069  0.7542 -0.1528  0.2912
   80SLPC  H13X 7463   3.578   4.616   8.023  0.1704 -0.8488 -1.4658
   80SLPC  H13Y 7464   3.639   4.441   8.029 -1.9330 -3.5753  1.3694
   80SLPC  C314 7465   3.577   4.509   8.225 -0.7129 -0.5811 -0.6857
   80SLPC  H14X 7466   3.555   4.407   8.264  2.6827 -1.1606  0.0011
   80SLPC  H14Y 7467   3.506   4.582   8.270 -1.0460 -1.7515  0.7650
   80SLPC  C315 7468   3.712   4.550   8.275 -0.0342  0.1654  0.1726
   80SLPC  H15X 7469   3.746   4.655   8.261 -0.2409  0.0124 -1.7245
   80SLPC  H15Y 7470   3.784   4.491   8.214 -1.4098  0.6523 -2.0400
   80SLPC  C316 7471   3.745   4.518   8.423 -0.6394  0.1135  0.3928
   80SLPC  H16X 7472   3.856   4.514   8.426 -0.6573 -0.5155  0.3387
   80SLPC  H16Y 7473   3.705   4.416   8.440 -1.2507  0.3698  0.5315
   80SLPC  C317 7474   3.687   4.612   8.533  0.5072  0.4982  0.3301
   80SLPC  H17X 7475   3.580   4.593   8.514  0.4768 -0.5544  1.4227
   80SLPC  H17Y 7476   3.719   4.715   8.508 -1.9780  1.1273 -0.5474
   80SLPC  C318 7477   3.710   4.565   8.681  0.0434 -0.1435 -0.2110
   80SLPC  H18X 7478   3.819   4.557   8.696 -0.1369  0.1740  1.3580
   80SLPC  H18Y 7479   3.664   4.469   8.714 -0.6189  0.2832  0.1221
   80SLPC  H18Z 7480   3.677   4.642   8.753 -1.7421  0.2606 -1.3898
   81SAPS     N 7481   4.372   1.143  10.835 -0.2225  0.1316  0.5367
   81SAPS   HN1 7482   4.384   1.070  10.762 -1.1498 -0.6215  1.1082
   81SAPS   HN2 7483   4.272   1.135  10.862  0.5079 -0.5406  3.4054
   81SAPS   HN3 7484   4.386   1.235  10.789 -0.1917 -0.6461 -1.0458
   81SAPS   C12 7485   4.455   1.123  10.961  0.6665  0.3325  0.2536
   81SAPS  H12A 7486   4.556   1.157  10.947  1.1655 -0.7738  0.9629
   81SAPS   C13 7487   4.398   1.196  11.080  0.6248  0.4926 -0.3611
   81SAPS  O13A 7488   4.308   1.282  11.056  0.4759  0.1441  0.1178
   81SAPS  O13B 7489   4.456   1.191  11.192 -0.5821  0.0360  0.2456
   81SAPS   C11 7490   4.462   0.966  10.993  0.1434 -0.5040 -0.0902
   81SAPS  H11A 7491   4.526   0.971  11.084  1.3182  1.9834 -0.9761
   81SAPS  H11B 7492   4.515   0.914  10.911  1.1821 -0.0809  0.3023
   81SAPS     P 7493   4.322   0.757  11.031 -0.3715 -0.5927 -0.4113
   81SAPS   O13 7494   4.447   0.702  10.985  0.8720  0.2466 -0.0589
   81SAPS   O14 7495   4.288   0.724  11.169  0.6185 -0.0578 -0.0488
   81SAPS   O12 7496   4.327   0.919  11.019 -0.6599 -0.3327 -0.3229
   81SAPS   O11 7497   4.199   0.722  10.944 -0.2495  0.6645  0.6781
   81SAPS    C1 7498   4.171   0.770  10.813  0.3204  0.7434 -0.4259
   81SAPS    HA 7499   4.064   0.749  10.791 -0.2177  0.5700  2.1374
   81SAPS    HB 7500   4.191   0.879  10.817  3.6067  0.2454  3.4190
   81SAPS    C2 7501   4.265   0.709  10.703 -0.3109 -0.2601  0.3055
   81SAPS    HS 7502   4.373   0.719  10.727 -0.0465  1.0878 -1.2147
   81SAPS   O21 7503   4.230   0.776  10.582 -0.1384  0.3271 -0.1834
   81SAPS   C21 7504   4.280   0.896  10.568 -0.0558  0.2546 -0.8436
   81SAPS   O22 7505   4.332   0.966  10.655  0.1819  0.2720  0.2573
   81SAPS   C22 7506   4.270   0.943  10.424  0.2234 -0.0094 -1.0361
   81SAPS   H2R 7507   4.351   0.903  10.359 -0.8030  0.3207 -2.5800
   81SAPS   H2S 7508   4.175   0.897  10.387  1.1291 -0.7599 -2.5284
   81SAPS    C3 7509   4.232   0.550  10.691  0.1578  0.1265 -0.0828
   81SAPS    HX 7510   4.127   0.520  10.713  0.5317  0.0160  1.6589
   81SAPS    HY 7511   4.293   0.506  10.772  0.6090 -2.7602 -1.8220
   81SAPS   O31 7512   4.264   0.498  10.559  0.4873  0.0698 -0.1071
   81SAPS   C31 7513   4.397   0.477  10.538  0.4982  0.5299 -0.2232
   81SAPS   O32 7514   4.480   0.504  10.621  0.9362  0.7403 -0.4152
   81SAPS   C32 7515   4.418   0.419  10.396  0.7199  0.0620 -0.4635
   81SAPS   H2X 7516   4.355   0.328  10.392 -0.0747  0.6273 -1.1432
   81SAPS   H2Y 7517   4.523   0.381  10.397  0.3008 -1.1507 -0.9043
   81SAPS   C23 7518   4.275   1.102  10.412 -0.1515  0.1307  0.4424
   81SAPS   H3R 7519   4.376   1.143  10.438 -0.6788  0.9699  1.2330
   81SAPS   H3S 7520   4.199   1.147  10.479 -0.3891 -2.1166  1.7910
   81SAPS   C24 7521   4.232   1.150  10.274 -0.0607  0.3013 -0.7154
   81SAPS   H4R 7522   4.122   1.161  10.263  0.0431  2.3784 -0.0791
   81SAPS   H4S 7523   4.285   1.091  10.196  2.3188 -1.8004  2.2759
   81SAPS   C25 7524   4.272   1.297  10.257  1.0535  0.1555  0.1806
   81SAPS   H5R 7525   4.312   1.339  10.351  0.2272  1.6971 -0.1124
   81SAPS   C26 7526   4.266   1.377  10.148  0.2544 -0.8730 -0.4329
   81SAPS   H6R 7527   4.295   1.482  10.163 -1.3286 -0.6586  1.6574
   81SAPS   C27 7528   4.221   1.350  10.010 -0.1355  0.2085 -0.1179
   81SAPS   H7R 7529   4.275   1.258   9.978 -0.6540 -0.2043  0.1922
   81SAPS   H7S 7530   4.258   1.426   9.938  0.7145 -1.1006 -1.1236
   81SAPS   C28 7531   4.070   1.327   9.996 -0.0198 -0.0967 -0.0844
   81SAPS   H8R 7532   4.028   1.293  10.092 -0.4355 -0.8437 -0.5244
   81SAPS   C29 7533   3.993   1.351   9.887  0.0131 -0.6336 -0.8414
   81SAPS   H9R 7534   3.884   1.342   9.889 -0.0334  0.0561  0.7729
   81SAPS  C210 7535   4.034   1.412   9.754 -0.3479 -1.0630 -0.2984
   81SAPS  H10R 7536   4.062   1.519   9.765 -0.7923 -0.8594 -1.0633
   81SAPS  H10S 7537   3.946   1.416   9.686 -0.9593  2.8148  0.4754
   81SAPS  C211 7538   4.151   1.348   9.685  0.5438 -0.6050  0.1045
   81SAPS  H11R 7539   4.154   1.242   9.715 -1.0850 -0.3906  1.1348
   81SAPS  C212 7540   4.225   1.389   9.581  0.2115 -0.0051 -0.1358
   81SAPS  H12R 7541   4.313   1.331   9.548 -0.1796  0.7166 -2.6172
   81SAPS  C213 7542   4.222   1.519   9.505  0.3447 -0.1943  0.6260
   81SAPS  H13R 7543   4.324   1.563   9.498  0.2521 -0.2947 -2.4413
   81SAPS  H13S 7544   4.147   1.591   9.545 -0.6873 -1.0911  0.3384
   81SAPS  C214 7545   4.171   1.473   9.370 -0.2922  0.2700 -0.0547
   81SAPS  H14R 7546   4.063   1.484   9.357 -0.6708 -2.0063  0.7561
   81SAPS  C215 7547   4.248   1.445   9.262 -0.3507 -0.3811  0.0411
   81SAPS  H15R 7548   4.189   1.423   9.172 -2.1969  0.7169  0.9264
   81SAPS  C216 7549   4.403   1.448   9.254 -0.1948 -0.2803 -0.1920
   81SAPS  H16R 7550   4.441   1.386   9.170 -1.0373 -0.1434 -0.6876
   81SAPS  H16S 7551   4.445   1.424   9.354 -0.4977 -3.0480 -0.6600
   81SAPS  C217 7552   4.454   1.588   9.221  0.8662 -0.2393 -0.3310
   81SAPS  H17R 7553   4.565   1.582   9.227  0.7273 -2.0162  1.5052
   81SAPS  H17S 7554   4.417   1.662   9.294  0.7082 -2.5031  2.0130
   81SAPS  C218 7555   4.406   1.661   9.083  0.0801 -0.1069  0.0239
   81SAPS  H18R 7556   4.300   1.684   9.105 -0.4467 -0.9863 -1.4703
   81SAPS  H18S 7557   4.416   1.580   9.007  2.6043  0.9500 -0.8921
   81SAPS  C219 7558   4.480   1.790   9.055 -0.7066  1.3272 -0.4433
   81SAPS  H19R 7559   4.590   1.782   9.058 -0.7682 -1.2370 -2.0476
   81SAPS  H19S 7560   4.461   1.853   9.145 -2.7036 -1.3438  1.1782
   81SAPS  C220 7561   4.425   1.863   8.920 -0.4320  0.1789 -0.1029
   81SAPS  H20R 7562   4.486   1.955   8.908  0.6111 -0.4195  0.4729
   81SAPS  H20S 7563   4.319   1.891   8.936 -0.5069  0.2600 -0.7059
   81SAPS  H20T 7564   4.436   1.793   8.835 -1.5443  2.9740 -2.7269
   81SAPS   C33 7565   4.387   0.522  10.287 -0.8849 -0.3104  0.1871
   81SAPS   H3X 7566   4.444   0.614  10.310  0.6491 -0.4509 -2.6017
   81SAPS   H3Y 7567   4.280   0.549  10.298 -0.8016 -0.9115  3.3245
   81SAPS   C34 7568   4.424   0.469  10.144  0.0019  0.5403 -0.1462
   81SAPS   H4X 7569   4.342   0.401  10.112  1.3916 -1.6729  0.7475
   81SAPS   H4Y 7570   4.519   0.413  10.154 -1.5054 -2.0076  1.0592
   81SAPS   C35 7571   4.429   0.584  10.031 -0.2319 -0.3926 -0.7926
   81SAPS   H5X 7572   4.442   0.543   9.928  0.9519 -0.0551 -0.8003
   81SAPS   H5Y 7573   4.515   0.648  10.062 -0.6446 -0.7223  1.1085
   81SAPS   C36 7574   4.298   0.666  10.036 -0.2183  0.3847 -0.7128
   81SAPS   H6X 7575   4.281   0.727  10.128  0.0399  0.8749 -0.9904
   81SAPS   H6Y 7576   4.210   0.603  10.015 -0.6627  1.2015 -1.3606
   81SAPS   C37 7577   4.286   0.759   9.914 -0.1746 -0.0983 -0.5660
   81SAPS   H7X 7578   4.181   0.795   9.905  0.0872  0.7822 -0.2793
   81SAPS   H7Y 7579   4.309   0.703   9.821  0.1258  1.4055 -1.4423
   81SAPS   C38 7580   4.371   0.880   9.950 -0.2681  0.7832  0.5485
   81SAPS   H8X 7581   4.481   0.863   9.949 -0.6053 -1.8110  0.0532
   81SAPS   H8Y 7582   4.346   0.917  10.052  0.0540  0.4544  0.7465
   81SAPS   C39 7583   4.347   0.993   9.843 -0.5500  0.8426 -0.8390
   81SAPS   H9X 7584   4.418   1.075   9.870 -0.1181  0.4235 -0.6841
   81SAPS   H9Y 7585   4.250   1.041   9.869 -0.1839  1.5969 -0.8412
   81SAPS  C310 7586   4.366   0.949   9.705  0.0524 -0.4011  0.3495
   81SAPS  H10X 7587   4.435   0.862   9.704 -0.4766 -0.8275 -0.3925
   81SAPS  H10Y 7588   4.427   1.030   9.659  1.5063 -1.9339 -0.5227
   81SAPS  C311 7589   4.242   0.929   9.620  0.5502  0.2925 -0.0027
   81SAPS  H11X 7590   4.184   1.021   9.596  0.5616  0.1007 -0.7928
   81SAPS  H11Y 7591   4.171   0.863   9.674  1.4965  0.4947  1.5337
   81SAPS  C312 7592   4.267   0.866   9.478 -0.4127  0.3906 -0.3815
   81SAPS  H12X 7593   4.355   0.914   9.429 -0.6899  0.3392 -0.9441
   81SAPS  H12Y 7594   4.188   0.882   9.401  0.6095 -0.0730 -1.5725
   81SAPS  C313 7595   4.294   0.713   9.495  0.6531 -0.1156  0.4292
   81SAPS  H13X 7596   4.197   0.674   9.532  0.4683 -1.3847 -1.2206
   81SAPS  H13Y 7597   4.375   0.684   9.566  2.3609 -0.2699 -1.4659
   81SAPS  C314 7598   4.325   0.653   9.357 -0.0212 -0.0462 -0.1106
   81SAPS  H14X 7599   4.414   0.711   9.324  0.0685  0.5205  1.0884
   81SAPS  H14Y 7600   4.239   0.679   9.291  0.9453  2.4029 -0.5074
   81SAPS  C315 7601   4.353   0.500   9.359 -0.2571 -0.7689  0.0581
   81SAPS  H15X 7602   4.268   0.440   9.320 -1.4269 -0.5375  2.0768
   81SAPS  H15Y 7603   4.380   0.475   9.464  3.2603  2.7386  0.2369
   81SAPS  C316 7604   4.477   0.471   9.266  0.3338 -0.2742  0.3816
   81SAPS  H16X 7605   4.497   0.363   9.256  0.8955 -0.1170 -0.2168
   81SAPS  H16Y 7606   4.560   0.535   9.303  0.2260 -0.0123  0.1714
   81SAPS  C317 7607   4.449   0.509   9.118 -0.0852 -0.3100  0.5254
   81SAPS  H17X 7608   4.395   0.605   9.102  1.8443  0.9163  1.1096
   81SAPS  H17Y 7609   4.387   0.432   9.067  0.5094 -0.3650 -0.1363
   81SAPS  C318 7610   4.580   0.532   9.027  0.7301 -0.2318 -0.3493
   81SAPS  H18X 7611   4.607   0.437   8.976 -1.5615 -0.9047 -0.4466
   81SAPS  H18Y 7612   4.656   0.565   9.100 -1.9564 -0.5932  2.8776
   81SAPS  H18Z 7613   4.560   0.610   8.952 -0.2837  0.2343  0.3737
   82SAPS     N 7614   3.429   6.322  11.264 -0.6671  0.3993  0.5497
   82SAPS   HN1 7615   3.403   6.412  11.219 -1.5019 -0.4052 -0.5985
   82SAPS   HN2 7616   3.475   6.356  11.352 -1.6082  3.7582 -0.0964
   82SAPS   HN3 7617   3.502   6.285  11.200  0.1048  3.8518 -0.8200
   82SAPS   C12 7618   3.316   6.233  11.293 -1.0262  0.5037  0.1686
   82SAPS  H12A 7619   3.350   6.136  11.325  1.3896  1.3323  0.3268
   82SAPS   C13 7620   3.219   6.282  11.398 -0.1650 -0.8349  0.3446
   82SAPS  O13A 7621   3.255   6.382  11.468  0.1361  0.0301 -0.8102
   82SAPS  O13B 7622   3.113   6.219  11.427 -0.5692  0.0624  0.4610
   82SAPS   C11 7623   3.246   6.213  11.159  0.3605  0.2524 -0.0290
   82SAPS  H11A 7624   3.322   6.178  11.086 -1.0540  1.0725 -1.9802
   82SAPS  H11B 7625   3.209   6.314  11.130  0.5925  0.2318 -0.4114
   82SAPS     P 7626   3.109   6.009  11.072 -0.1286  0.2583  0.3688
   82SAPS   O13 7627   3.209   5.910  11.116 -0.4196  0.4050  0.2769
   82SAPS   O14 7628   2.969   5.968  11.059 -0.2392 -0.3813 -0.1125
   82SAPS   O12 7629   3.130   6.136  11.168 -0.4147 -0.5769 -1.0965
   82SAPS   O11 7630   3.155   6.079  10.932  0.0495  0.3628 -0.5329
   82SAPS    C1 7631   3.053   6.174  10.885 -0.1023  0.4436 -0.5493
   82SAPS    HA 7632   2.955   6.132  10.854 -0.2284  0.7998 -0.6373
   82SAPS    HB 7633   3.028   6.251  10.961 -0.0273 -1.5598  1.5841
   82SAPS    C2 7634   3.107   6.241  10.754 -0.1812  0.1607 -0.1576
   82SAPS    HS 7635   3.032   6.303  10.700 -0.5176 -0.7929 -0.8298
   82SAPS   O21 7636   3.164   6.132  10.674 -0.0945 -0.5297 -0.7063
   82SAPS   C21 7637   3.064   6.083  10.589 -0.8642 -0.2374  0.2464
   82SAPS   O22 7638   2.951   6.119  10.593  0.1940 -0.2438 -0.3321
   82SAPS   C22 7639   3.125   5.984  10.495  0.0016  0.0352 -0.0354
   82SAPS   H2R 7640   3.189   6.045  10.428 -0.8800  2.1647  0.9726
   82SAPS   H2S 7641   3.194   5.923  10.557 -0.0994 -0.2287 -0.1781
   82SAPS    C3 7642   3.224   6.347  10.760 -0.4165  0.0377 -0.2626
   82SAPS    HX 7643   3.316   6.297  10.797 -0.4691 -1.1972 -1.7359
   82SAPS    HY 7644   3.189   6.423  10.833  1.6572 -0.1100  0.9633
   82SAPS   O31 7645   3.234   6.410  10.629  0.1096  0.3577 -0.8026
   82SAPS   C31 7646   3.326   6.346  10.547  1.2125 -0.5249  0.4349
   82SAPS   O32 7647   3.424   6.286  10.594  0.1886  0.1084 -0.1897
   82SAPS   C32 7648   3.303   6.363  10.398 -0.5838 -0.3532  0.3360
   82SAPS   H2X 7649   3.328   6.467  10.369 -1.3164 -0.0096  0.9062
   82SAPS   H2Y 7650   3.196   6.352  10.370 -0.3048  0.8168 -1.3772
   82SAPS   C23 7651   3.029   5.910  10.403 -0.1107 -0.1110  0.2578
   82SAPS   H3R 7652   2.966   5.986  10.351 -0.8350  0.4514  1.9050
   82SAPS   H3S 7653   2.966   5.849  10.472  0.8575 -0.4895  0.8304
   82SAPS   C24 7654   3.101   5.817  10.308  0.1369  0.3144 -0.2489
   82SAPS   H4R 7655   3.189   5.790  10.370  1.5595  3.7866 -0.5837
   82SAPS   H4S 7656   3.132   5.870  10.216 -3.2455  0.4811 -1.4585
   82SAPS   C25 7657   3.013   5.695  10.278 -0.3955 -0.3306  0.2103
   82SAPS   H5R 7658   3.049   5.611  10.339  1.5876 -0.4395 -1.0367
   82SAPS   C26 7659   2.914   5.689  10.187  0.1286  0.2346  0.1524
   82SAPS   H6R 7660   2.846   5.603  10.177 -1.4960  1.5536 -0.6189
   82SAPS   C27 7661   2.865   5.796  10.098 -0.0572  0.2967 -0.4150
   82SAPS   H7R 7662   2.942   5.813  10.019  3.0881 -1.7795  1.9751
   82SAPS   H7S 7663   2.846   5.889  10.156 -0.8050  1.3193 -2.2078
   82SAPS   C28 7664   2.731   5.761  10.034  0.7968  0.0941  0.1369
   82SAPS   H8R 7665   2.651   5.760  10.110 -0.2302 -0.4540 -0.9283
   82SAPS   C29 7666   2.713   5.710   9.910  0.0254 -0.1507 -0.3563
   82SAPS   H9R 7667   2.606   5.693   9.887 -0.0199 -3.3798  1.5797
   82SAPS  C210 7668   2.826   5.668   9.814  0.3677 -0.0673  0.0702
   82SAPS  H10R 7669   2.904   5.603   9.858 -0.9534 -1.3570  0.5644
   82SAPS  H10S 7670   2.892   5.748   9.774  1.2738 -0.2602  1.1395
   82SAPS  C211 7671   2.767   5.585   9.705  0.3905 -0.2973  0.1518
   82SAPS  H11R 7672   2.701   5.506   9.745 -0.7767  0.9375  0.7702
   82SAPS  C212 7673   2.791   5.594   9.572 -0.6601  0.4101 -0.5238
   82SAPS  H12R 7674   2.734   5.521   9.514  1.1039 -2.1200  0.7245
   82SAPS  C213 7675   2.880   5.682   9.487 -0.5651 -0.1165 -0.1532
   82SAPS  H13R 7676   2.857   5.789   9.505  1.3258  0.1358  1.0577
   82SAPS  H13S 7677   2.864   5.667   9.378 -0.1602  1.1283 -0.4007
   82SAPS  C214 7678   3.029   5.673   9.526 -0.0030  0.4772 -0.2097
   82SAPS  H14R 7679   3.044   5.697   9.632 -1.2150  0.4944 -0.0308
   82SAPS  C215 7680   3.136   5.653   9.450 -0.2149 -0.3138  0.5888
   82SAPS  H15R 7681   3.235   5.658   9.498 -0.8079 -0.8381  1.9218
   82SAPS  C216 7682   3.141   5.615   9.305 -0.8682  0.0922  0.2878
   82SAPS  H16R 7683   3.038   5.598   9.265 -1.4577  1.2323  1.2708
   82SAPS  H16S 7684   3.188   5.515   9.305  1.9030  1.3041  1.1651
   82SAPS  C217 7685   3.210   5.696   9.199 -0.2377 -0.0503 -0.1231
   82SAPS  H17R 7686   3.292   5.759   9.238  2.2892 -2.1284 -1.8058
   82SAPS  H17S 7687   3.125   5.753   9.156 -0.5436  0.1524  0.7137
   82SAPS  C218 7688   3.264   5.628   9.073  0.9374 -0.2776 -0.1255
   82SAPS  H18R 7689   3.310   5.532   9.104  3.2227  1.1629  1.2802
   82SAPS  H18S 7690   3.348   5.691   9.035 -0.1962 -0.1356 -2.6026
   82SAPS  C219 7691   3.147   5.606   8.970  0.2723 -0.5249  0.3400
   82SAPS  H19R 7692   3.095   5.703   8.953 -2.0275 -1.6349  0.6639
   82SAPS  H19S 7693   3.077   5.531   9.011 -1.3160 -0.1406 -1.5263
   82SAPS  C220 7694   3.206   5.551   8.837 -0.5964 -0.3991 -0.0242
   82SAPS  H20R 7695   3.219   5.443   8.858 -1.5399 -0.3376  0.9314
   82SAPS  H20S 7696   3.303   5.594   8.802  0.3899 -2.9581 -0.6661
   82SAPS  H20T 7697   3.128   5.562   8.759 -0.2839  2.1071 -0.0788
   82SAPS   C33 7698   3.406   6.269  10.319  0.0502  0.0612  0.2186
   82SAPS   H3X 7699   3.415   6.165  10.356  1.8308 -0.8579 -2.4722
   82SAPS   H3Y 7700   3.505   6.316  10.336  0.2011 -0.7208  1.6433
   82SAPS   C34 7701   3.373   6.265  10.173  0.2981  0.1435  0.1586
   82SAPS   H4X 7702   3.454   6.211  10.120 -0.0915  0.1402 -0.4481
   82SAPS   H4Y 7703   3.362   6.366  10.128 -2.0457 -1.0243 -2.1622
   82SAPS   C35 7704   3.234   6.186  10.158 -0.0065 -0.6408 -0.1817
   82SAPS   H5X 7705   3.163   6.223  10.235  0.9868 -0.2591  0.5693
   82SAPS   H5Y 7706   3.255   6.080  10.182 -2.9183 -1.6999 -1.8472
   82SAPS   C36 7707   3.176   6.197  10.017 -0.4500 -0.9201  0.4219
   82SAPS   H6X 7708   3.249   6.138   9.957 -0.1905 -0.7596  0.5801
   82SAPS   H6Y 7709   3.163   6.303   9.986 -1.2517 -1.3224 -0.7017
   82SAPS   C37 7710   3.041   6.129   9.994 -0.2846  0.7167  0.2652
   82SAPS   H7X 7711   2.963   6.207   9.994 -1.7575 -0.6709 -1.0228
   82SAPS   H7Y 7712   3.034   6.060  10.081  1.0166  0.1923 -0.0233
   82SAPS   C38 7713   3.029   6.034   9.866 -0.3963 -0.8889  0.3463
   82SAPS   H8X 7714   2.925   5.995   9.866 -0.6980 -0.4009 -3.0182
   82SAPS   H8Y 7715   3.095   5.945   9.864 -0.0765 -0.7946 -3.9812
   82SAPS   C39 7716   3.056   6.109   9.738 -0.3575 -0.6333 -0.0093
   82SAPS   H9X 7717   3.162   6.144   9.737 -0.1744 -1.1335 -1.4325
   82SAPS   H9Y 7718   2.991   6.197   9.722  0.1000 -0.2178  0.3868
   82SAPS  C310 7719   3.062   6.022   9.614  0.1506 -0.3981 -0.1002
   82SAPS  H10X 7720   2.967   5.968   9.595  1.2262 -1.2182 -4.0817
   82SAPS  H10Y 7721   3.140   5.946   9.633  1.5406  1.1843  0.6977
   82SAPS  C311 7722   3.098   6.100   9.488 -0.7247  0.1506  0.1306
   82SAPS  H11X 7723   3.180   6.166   9.523  0.5818 -2.1110  1.5963
   82SAPS  H11Y 7724   3.011   6.162   9.457 -0.6153  0.1607 -0.1550
   82SAPS  C312 7725   3.147   6.023   9.358  0.2266  0.0026 -1.1532
   82SAPS  H12X 7726   3.060   5.966   9.318 -0.2314  0.5384 -0.9306
   82SAPS  H12Y 7727   3.234   5.955   9.373 -2.4296 -3.6545 -0.9045
   82SAPS  C313 7728   3.181   6.121   9.242  0.0791  0.5534  0.3764
   82SAPS  H13X 7729   3.269   6.186   9.264 -0.4915  0.9538  1.6034
   82SAPS  H13Y 7730   3.097   6.190   9.220 -2.7181 -2.8500 -0.4449
   82SAPS  C314 7731   3.215   6.061   9.096 -0.0712 -0.3477  0.4538
   82SAPS  H14X 7732   3.124   6.006   9.062 -0.9333  1.4478 -0.2923
   82SAPS  H14Y 7733   3.297   5.987   9.106 -1.3991 -2.3987 -2.2255
   82SAPS  C315 7734   3.247   6.171   8.994  0.4578  1.0485  0.0780
   82SAPS  H15X 7735   3.333   6.229   9.035  0.6548 -0.3955  1.8419
   82SAPS  H15Y 7736   3.154   6.230   8.976 -0.4253 -0.1414  0.5938
   82SAPS  C316 7737   3.301   6.116   8.867 -0.0048 -0.0621 -0.4890
   82SAPS  H16X 7738   3.322   6.008   8.882  1.7817  0.3679  0.3146
   82SAPS  H16Y 7739   3.392   6.174   8.840 -0.4938  1.1196  0.3042
   82SAPS  C317 7740   3.200   6.124   8.760  0.0251  0.3811 -0.1842
   82SAPS  H17X 7741   3.177   6.233   8.747 -0.4353  0.5587  1.8838
   82SAPS  H17Y 7742   3.105   6.072   8.783  0.5034 -0.8385 -0.8853
   82SAPS  C318 7743   3.238   6.060   8.628 -0.4765 -0.0135  0.6154
   82SAPS  H18X 7744   3.342   6.079   8.595 -1.0477  0.0591 -1.3071
   82SAPS  H18Y 7745   3.168   6.105   8.553 -1.1241 -0.6825  0.8006
   82SAPS  H18Z 7746   3.218   5.951   8.638  1.4955 -0.3418  1.2742
   83SAPS     N 7747   5.227   0.287  11.104  0.0727 -0.8623 -0.5483
   83SAPS   HN1 7748   5.208   0.373  11.160 -0.4461 -1.2367 -0.1351
   83SAPS   HN2 7749   5.158   0.280  11.026 -0.7782  0.3049  0.0732
   83SAPS   HN3 7750   5.210   0.206  11.167  0.5905 -0.5711 -0.0316
   83SAPS   C12 7751   5.373   0.288  11.056  0.6070  0.3903  0.4858
   83SAPS  H12A 7752   5.447   0.289  11.135  3.1539 -0.3052 -1.7276
   83SAPS   C13 7753   5.400   0.155  10.978  0.4145 -0.3304 -0.6492
   83SAPS  O13A 7754   5.320   0.058  10.978 -0.1836 -0.0483 -0.0995
   83SAPS  O13B 7755   5.515   0.141  10.931 -0.4115 -0.1139  0.4677
   83SAPS   C11 7756   5.402   0.414  10.964  0.1359  0.2341 -0.2044
   83SAPS  H11A 7757   5.327   0.420  10.883 -1.0957 -3.4175  0.4855
   83SAPS  H11B 7758   5.504   0.402  10.920  0.4091  3.0303 -0.4733
   83SAPS     P 7759   5.436   0.675  10.982  0.0948  0.2617  0.1106
   83SAPS   O13 7760   5.453   0.774  11.091  0.2503 -0.3001  0.6351
   83SAPS   O14 7761   5.548   0.678  10.890 -0.8443 -0.2494 -0.5725
   83SAPS   O12 7762   5.395   0.535  11.042  0.3262 -0.0592  0.4983
   83SAPS   O11 7763   5.307   0.718  10.901 -0.2289  0.8289 -0.8367
   83SAPS    C1 7764   5.178   0.671  10.931  0.5297 -0.0235 -0.3284
   83SAPS    HA 7765   5.168   0.560  10.926 -0.2456 -0.0414  1.0927
   83SAPS    HB 7766   5.158   0.688  11.039 -0.2428 -3.7823  0.2562
   83SAPS    C2 7767   5.071   0.717  10.841  0.2138 -0.3011  0.7027
   83SAPS    HS 7768   4.976   0.663  10.857  0.1952 -0.3493  0.4268
   83SAPS   O21 7769   5.126   0.708  10.708  0.1250  0.0002  0.0761
   83SAPS   C21 7770   5.098   0.588  10.657  0.1327 -0.4048  0.8443
   83SAPS   O22 7771   5.027   0.503  10.707 -0.1281  0.3157 -0.3843
   83SAPS   C22 7772   5.161   0.569  10.524  0.8574 -0.3977  0.2746
   83SAPS   H2R 7773   5.103   0.490  10.473 -0.1390 -0.4294  1.3968
   83SAPS   H2S 7774   5.162   0.668  10.473  1.3712  0.1800  1.3377
   83SAPS    C3 7775   5.041   0.862  10.875 -0.6274 -0.0094  0.1969
   83SAPS    HX 7776   5.140   0.912  10.881  0.4020 -1.5946 -2.1323
   83SAPS    HY 7777   4.996   0.862  10.977 -1.9575 -1.4754 -0.3440
   83SAPS   O31 7778   4.955   0.922  10.782 -0.7239 -0.2403 -0.1294
   83SAPS   C31 7779   4.823   0.892  10.785 -0.1466 -0.2088 -0.1513
   83SAPS   O32 7780   4.773   0.822  10.867 -0.2042  0.0006  0.6723
   83SAPS   C32 7781   4.747   0.988  10.698  0.0393  0.1493  0.1831
   83SAPS   H2X 7782   4.822   1.037  10.633 -1.8015  0.0758 -2.1316
   83SAPS   H2Y 7783   4.708   1.058  10.774  0.7673 -1.6374  2.3267
   83SAPS   C23 7784   5.312   0.526  10.535  0.3769 -0.1022 -0.0853
   83SAPS   H3R 7785   5.318   0.419  10.566 -0.5966 -0.2467 -0.3422
   83SAPS   H3S 7786   5.366   0.576  10.617 -1.2311 -0.0490  0.9966
   83SAPS   C24 7787   5.395   0.531  10.406 -0.3115  0.1384  0.4974
   83SAPS   H4R 7788   5.361   0.455  10.332  1.4569 -0.0353 -0.1776
   83SAPS   H4S 7789   5.496   0.498  10.439 -0.9461 -1.9973  0.5016
   83SAPS   C25 7790   5.399   0.669  10.340  0.4285 -0.1293  0.0749
   83SAPS   H5R 7791   5.403   0.760  10.403  1.7427 -1.7138  2.4479
   83SAPS   C26 7792   5.399   0.692  10.207 -0.4779 -0.1588  0.0633
   83SAPS   H6R 7793   5.417   0.795  10.172 -0.5977 -0.1845 -0.0784
   83SAPS   C27 7794   5.386   0.588  10.098  0.3843 -0.0642 -0.3165
   83SAPS   H7R 7795   5.380   0.482  10.133  2.7745 -1.0270 -2.5417
   83SAPS   H7S 7796   5.483   0.589  10.045 -0.2061  0.4583 -1.4104
   83SAPS   C28 7797   5.272   0.606  10.002  0.4911  0.3033  0.1907
   83SAPS   H8R 7798   5.176   0.601  10.055  1.7967 -0.8682  2.6321
   83SAPS   C29 7799   5.291   0.623   9.872 -0.0880  0.1722 -0.0073
   83SAPS   H9R 7800   5.196   0.638   9.818 -1.1566 -0.0335  1.7597
   83SAPS  C210 7801   5.415   0.637   9.786 -0.1703 -1.4447 -0.4076
   83SAPS  H10R 7802   5.506   0.613   9.845 -0.3464  1.8199  1.4118
   83SAPS  H10S 7803   5.439   0.744   9.767 -0.6973 -1.4296 -1.0156
   83SAPS  C211 7804   5.421   0.566   9.656  0.3518  0.0872  0.7704
   83SAPS  H11R 7805   5.418   0.457   9.665 -1.2783  0.1619  1.4457
   83SAPS  C212 7806   5.450   0.621   9.535 -0.6950  0.5254 -0.8156
   83SAPS  H12R 7807   5.442   0.556   9.446 -1.0603 -0.3298 -0.1718
   83SAPS  C213 7808   5.480   0.767   9.516 -0.1393  0.0061  0.7807
   83SAPS  H13R 7809   5.560   0.807   9.581  2.4083 -0.1820 -2.0219
   83SAPS  H13S 7810   5.383   0.820   9.531 -0.2935 -0.3144  0.9329
   83SAPS  C214 7811   5.534   0.792   9.378 -0.1343  0.4479 -0.4195
   83SAPS  H14R 7812   5.623   0.733   9.353 -0.6508 -0.3309 -0.4301
   83SAPS  C215 7813   5.478   0.869   9.280 -0.2601 -0.5011 -0.1072
   83SAPS  H15R 7814   5.534   0.866   9.185 -0.5409 -1.7848 -0.2521
   83SAPS  C216 7815   5.365   0.968   9.289 -0.1538  0.9785 -0.3533
   83SAPS  H16R 7816   5.388   1.059   9.229  1.4660 -0.0221 -1.3236
   83SAPS  H16S 7817   5.342   0.988   9.395 -0.1278 -1.7951  0.2605
   83SAPS  C217 7818   5.233   0.917   9.228  0.3911 -0.5975  0.2831
   83SAPS  H17R 7819   5.154   0.980   9.273 -2.3338 -2.7449 -1.1584
   83SAPS  H17S 7820   5.222   0.815   9.271 -1.4828  0.2985  2.0943
   83SAPS  C218 7821   5.224   0.916   9.071  0.4473 -0.2611  0.1349
   83SAPS  H18R 7822   5.163   0.834   9.029 -0.4807  0.7780 -0.6024
   83SAPS  H18S 7823   5.319   0.898   9.017 -1.1025  2.0160 -3.7389
   83SAPS  C219 7824   5.165   1.042   9.018  0.0679  1.1636 -0.0345
   83SAPS  H19R 7825   5.235   1.125   9.042  0.4623  0.2907  1.9831
   83SAPS  H19S 7826   5.067   1.078   9.057  0.7916  2.4065  0.6912
   83SAPS  C220 7827   5.152   1.044   8.865  0.7282 -0.0480  0.2097
   83SAPS  H20R 7828   5.080   0.966   8.834  0.1528 -0.0569  1.4960
   83SAPS  H20S 7829   5.248   1.014   8.818  1.6350  0.3713  1.7052
   83SAPS  H20T 7830   5.114   1.142   8.831  0.8259  0.1494  0.6500
   83SAPS   C33 7831   4.627   0.934  10.628  0.4555 -0.1740  0.1574
   83SAPS   H3X 7832   4.589   1.021  10.570  0.7224 -0.3844 -0.3354
   83SAPS   H3Y 7833   4.559   0.900  10.709  2.5196  0.0218  2.0759
   83SAPS   C34 7834   4.652   0.814  10.545 -0.4745  0.1700 -0.1404
   83SAPS   H4X 7835   4.560   0.759  10.516  0.1435  0.2830 -2.5651
   83SAPS   H4Y 7836   4.713   0.741  10.603 -0.8253  0.3437  0.4580
   83SAPS   C35 7837   4.719   0.852  10.420  0.7205  0.1233  0.2678
   83SAPS   H5X 7838   4.816   0.905  10.434  1.6198 -1.2936 -0.2659
   83SAPS   H5Y 7839   4.647   0.914  10.363 -0.3899 -1.0862  0.3236
   83SAPS   C36 7840   4.760   0.720  10.338  0.5078  0.2579 -0.0247
   83SAPS   H6X 7841   4.665   0.669  10.309 -0.6323  1.4538  1.4695
   83SAPS   H6Y 7842   4.831   0.669  10.406  0.3812 -0.7636 -0.6416
   83SAPS   C37 7843   4.848   0.755  10.222  0.1814  0.2936  0.3962
   83SAPS   H7X 7844   4.875   0.665  10.162  0.3301  1.4270 -1.2881
   83SAPS   H7Y 7845   4.950   0.789  10.248  1.6738 -0.0601 -4.1107
   83SAPS   C38 7846   4.774   0.857  10.126  0.3503 -0.0572 -0.0490
   83SAPS   H8X 7847   4.755   0.952  10.181 -0.1043 -1.0332  1.5241
   83SAPS   H8Y 7848   4.678   0.812  10.092  0.6304 -1.5220  1.0324
   83SAPS   C39 7849   4.839   0.892   9.998  0.1181  0.4997  0.4022
   83SAPS   H9X 7850   4.878   0.793   9.967  4.0724  1.2267  2.4151
   83SAPS   H9Y 7851   4.930   0.952  10.021  1.0092 -0.8210  0.4358
   83SAPS  C310 7852   4.745   0.950   9.894  0.0119 -0.0235 -0.4737
   83SAPS  H10X 7853   4.669   1.022   9.930  0.3911  1.3906 -2.3596
   83SAPS  H10Y 7854   4.676   0.872   9.856 -0.1652  0.4943 -1.2114
   83SAPS  C311 7855   4.824   1.008   9.778 -1.0109 -0.3976  0.3436
   83SAPS  H11X 7856   4.892   0.931   9.737  0.2862  0.3029  1.1414
   83SAPS  H11Y 7857   4.901   1.081   9.809 -0.3977 -1.5862  1.7189
   83SAPS  C312 7858   4.728   1.070   9.675  0.0032  0.1686  0.1072
   83SAPS  H12X 7859   4.695   1.172   9.705  1.0429  1.3391 -2.4936
   83SAPS  H12Y 7860   4.639   1.005   9.661  1.6300 -1.8340 -1.5602
   83SAPS  C313 7861   4.800   1.099   9.538  0.0241 -1.4658  0.1035
   83SAPS  H13X 7862   4.831   0.998   9.504 -1.0307 -1.7017 -0.2043
   83SAPS  H13Y 7863   4.893   1.158   9.549 -0.9939  0.3974 -0.7885
   83SAPS  C314 7864   4.707   1.152   9.430  0.4300 -0.2226 -0.0583
   83SAPS  H14X 7865   4.713   1.263   9.435 -1.5857 -0.0665 -0.4167
   83SAPS  H14Y 7866   4.605   1.117   9.457  0.3334 -0.2625 -0.4704
   83SAPS  C315 7867   4.745   1.094   9.294  0.0767  0.7904  0.3359
   83SAPS  H15X 7868   4.848   1.120   9.263  0.3166 -0.0675  0.3779
   83SAPS  H15Y 7869   4.679   1.156   9.231 -0.3016 -0.4765 -0.5589
   83SAPS  C316 7870   4.721   0.944   9.294  0.5206  0.0467 -0.2774
   83SAPS  H16X 7871   4.636   0.916   9.360  2.3529 -0.7279  1.8750
   83SAPS  H16Y 7872   4.809   0.886   9.331  1.3284  0.8002 -0.9720
   83SAPS  C317 7873   4.695   0.878   9.156  0.2231 -0.3544  0.0592
   83SAPS  H17X 7874   4.605   0.921   9.108  0.8783 -0.0773 -0.9421
   83SAPS  H17Y 7875   4.678   0.768   9.166  3.1278 -0.7972  1.0228
   83SAPS  C318 7876   4.812   0.912   9.071  0.4016  0.1658 -0.5223
   83SAPS  H18X 7877   4.798   1.009   9.018  3.0893  0.1492 -1.4618
   83SAPS  H18Y 7878   4.828   0.855   8.977  0.2951  0.6005 -0.8076
   83SAPS  H18Z 7879   4.911   0.905   9.122  1.4675 -0.6465 -2.5821
   84SAPS     N 7880   1.441   6.658  11.030 -0.0542 -0.6742 -0.1871
   84SAPS   HN1 7881   1.489   6.747  11.006  0.1479 -0.5704  0.5709
   84SAPS   HN2 7882   1.507   6.578  11.025  0.8458 -0.2094  2.4403
   84SAPS   HN3 7883   1.372   6.657  10.952  0.1109 -1.4130 -0.3286
   84SAPS   C12 7884   1.377   6.663  11.164  1.2395 -0.2501  0.9895
   84SAPS  H12A 7885   1.458   6.681  11.233  1.4174 -0.1628  0.7581
   84SAPS   C13 7886   1.291   6.798  11.186 -0.3838 -0.0547 -0.4541
   84SAPS  O13A 7887   1.339   6.909  11.144 -0.2053  0.4137  0.1346
   84SAPS  O13B 7888   1.202   6.791  11.271  0.1286  0.4732  0.3892
   84SAPS   C11 7889   1.300   6.529  11.205 -0.4014 -0.3842 -0.7707
   84SAPS  H11A 7890   1.280   6.538  11.315  2.3800 -0.8975 -0.1572
   84SAPS  H11B 7891   1.382   6.455  11.206  0.3275  0.4063 -0.8667
   84SAPS     P 7892   1.107   6.367  11.144 -0.6424  0.1543 -0.0264
   84SAPS   O13 7893   1.190   6.244  11.130  0.3583  0.2151 -0.4572
   84SAPS   O14 7894   1.028   6.379  11.270  0.2787 -0.0950 -0.4853
   84SAPS   O12 7895   1.188   6.499  11.125  0.0592 -0.1591 -0.5032
   84SAPS   O11 7896   1.002   6.370  11.020  0.1203 -0.4469 -0.1752
   84SAPS    C1 7897   0.919   6.487  11.010 -1.2281  0.3730  0.4076
   84SAPS    HA 7898   0.818   6.454  10.978 -0.6404 -2.1223  0.9164
   84SAPS    HB 7899   0.905   6.537  11.108 -1.9994 -0.0446  0.5180
   84SAPS    C2 7900   0.981   6.591  10.908  0.4074  0.0552  0.8198
   84SAPS    HS 7901   1.052   6.664  10.953  2.0678  0.9842 -2.8794
   84SAPS   O21 7902   0.872   6.662  10.836  0.2446  1.1566  0.1217
   84SAPS   C21 7903   0.787   6.728  10.905  0.0578 -0.0010 -0.1673
   84SAPS   O22 7904   0.810   6.773  11.018  0.6544  0.6780  0.1581
   84SAPS   C22 7905   0.655   6.742  10.826 -0.3393 -0.6613  0.0087
   84SAPS   H2R 7906   0.657   6.849  10.798 -1.6990 -1.0017 -1.5753
   84SAPS   H2S 7907   0.663   6.686  10.730 -3.7580  0.0995 -0.8512
   84SAPS    C3 7908   1.063   6.523  10.788 -0.0411  1.0833  0.4644
   84SAPS    HX 7909   1.001   6.443  10.741 -0.9086  2.3460 -0.6127
   84SAPS    HY 7910   1.151   6.471  10.830  0.9773  1.9361 -0.5347
   84SAPS   O31 7911   1.109   6.606  10.677 -0.4910  0.1881  0.0783
   84SAPS   C31 7912   1.224   6.665  10.705  0.7094  0.1276 -0.8551
   84SAPS   O32 7913   1.273   6.679  10.818  0.0881 -0.0494 -0.2434
   84SAPS   C32 7914   1.290   6.731  10.581 -0.1519  0.4244 -0.3247
   84SAPS   H2X 7915   1.400   6.730  10.593 -0.2204 -2.2572  0.6492
   84SAPS   H2Y 7916   1.251   6.835  10.575 -2.0553 -0.2765 -1.1628
   84SAPS   C23 7917   0.532   6.706  10.900 -0.1175 -0.4830  0.0408
   84SAPS   H3R 7918   0.512   6.767  10.990 -2.4827  2.2512 -2.1449
   84SAPS   H3S 7919   0.528   6.600  10.934 -0.3981 -0.4687  0.0545
   84SAPS   C24 7920   0.404   6.721  10.809 -0.2296  0.4476  0.1619
   84SAPS   H4R 7921   0.314   6.672  10.852  0.0171 -0.2430 -0.0837
   84SAPS   H4S 7922   0.432   6.658  10.722 -2.0306 -1.2734  0.7557
   84SAPS   C25 7923   0.385   6.858  10.773 -0.2149 -1.0248 -0.4489
   84SAPS   H5R 7924   0.343   6.921  10.854 -1.6986 -0.6683 -1.4504
   84SAPS   C26 7925   0.411   6.915  10.652  0.2330  0.4365  0.3137
   84SAPS   H6R 7926   0.388   7.022  10.638 -0.6788  0.4435  1.6495
   84SAPS   C27 7927   0.472   6.839  10.531  0.0097 -0.1251  0.0680
   84SAPS   H7R 7928   0.563   6.785  10.563 -0.1392 -1.3324 -1.4362
   84SAPS   H7S 7929   0.496   6.920  10.459 -0.6989  0.3480  0.3437
   84SAPS   C28 7930   0.378   6.734  10.462  0.2827  0.4814 -0.1220
   84SAPS   H8R 7931   0.322   6.663  10.525  3.0049 -2.4849 -0.8148
   84SAPS   C29 7932   0.380   6.708  10.328 -0.1641  0.8367  0.1930
   84SAPS   H9R 7933   0.326   6.616  10.300 -1.9466  1.2756  2.0311
   84SAPS  C210 7934   0.462   6.766  10.218 -0.1024  0.1839 -0.0560
   84SAPS  H10R 7935   0.530   6.847  10.252 -0.4676 -0.0227  1.2024
   84SAPS  H10S 7936   0.405   6.823  10.142  0.5594  2.2022  0.9060
   84SAPS  C211 7937   0.553   6.666  10.146  0.4225  0.0961 -0.1749
   84SAPS  H11R 7938   0.620   6.601  10.204  0.4260 -0.2714 -0.5853
   84SAPS  C212 7939   0.563   6.653  10.014  0.5343  0.1303  0.4940
   84SAPS  H12R 7940   0.635   6.583   9.969  1.5240 -0.7362  3.2655
   84SAPS  C213 7941   0.479   6.741   9.922  0.0041  0.4818  0.4922
   84SAPS  H13R 7942   0.513   6.847   9.922  2.1185 -0.0884 -2.0138
   84SAPS  H13S 7943   0.378   6.721   9.964 -0.2827 -1.8289 -1.1267
   84SAPS  C214 7944   0.471   6.710   9.771 -0.3859 -0.2303 -0.6485
   84SAPS  H14R 7945   0.514   6.793   9.712 -0.5367  1.6793  1.7332
   84SAPS  C215 7946   0.413   6.607   9.702 -0.5271  0.3859  0.5794
   84SAPS  H15R 7947   0.431   6.596   9.594 -1.6184 -0.3255  0.4502
   84SAPS  C216 7948   0.341   6.487   9.765  1.2971  0.3891 -0.4822
   84SAPS  H16R 7949   0.232   6.508   9.760  0.9099 -1.4152 -0.3398
   84SAPS  H16S 7950   0.360   6.461   9.871  0.1971  0.3061 -0.3024
   84SAPS  C217 7951   0.357   6.362   9.678 -0.1998  0.0898 -0.2284
   84SAPS  H17R 7952   0.313   6.270   9.723 -1.4763  0.7299 -0.1054
   84SAPS  H17S 7953   0.460   6.324   9.697 -0.6352  0.0321  2.4611
   84SAPS  C218 7954   0.300   6.369   9.533 -0.1016 -0.2934  0.4675
   84SAPS  H18R 7955   0.353   6.448   9.476 -0.4561 -0.1831  0.2913
   84SAPS  H18S 7956   0.192   6.396   9.539 -0.6955 -2.6727  2.2566
   84SAPS  C219 7957   0.319   6.238   9.447  0.6163  0.8230  0.8519
   84SAPS  H19R 7958   0.266   6.156   9.500 -0.2187 -0.6564 -2.0819
   84SAPS  H19S 7959   0.426   6.215   9.430  0.3432  0.3564 -0.2861
   84SAPS  C220 7960   0.252   6.236   9.307 -0.6341 -0.3882  0.0509
   84SAPS  H20R 7961   0.151   6.279   9.293 -0.2804  1.0776  1.7212
   84SAPS  H20S 7962   0.259   6.133   9.266 -2.0400 -0.5575  0.1833
   84SAPS  H20T 7963   0.314   6.296   9.237  1.3999 -0.5293  1.6398
   84SAPS   C33 7964   1.251   6.661  10.446  0.1762  0.6256 -0.0475
   84SAPS   H3X 7965   1.143   6.679  10.424 -0.2745  1.1594  2.3277
   84SAPS   H3Y 7966   1.270   6.552  10.459 -2.4147  0.1513  0.4761
   84SAPS   C34 7967   1.341   6.719  10.332  0.1803 -0.4467  0.4215
   84SAPS   H4X 7968   1.445   6.730  10.368 -0.0437  0.0490  0.9312
   84SAPS   H4Y 7969   1.304   6.820  10.306 -1.1969 -0.8862  0.5464
   84SAPS   C35 7970   1.337   6.643  10.200  0.3758 -0.2479  0.2133
   84SAPS   H5X 7971   1.229   6.622  10.181 -0.3068  0.8273  2.4805
   84SAPS   H5Y 7972   1.385   6.544  10.212  0.5071 -0.0904  1.0235
   84SAPS   C36 7973   1.402   6.703  10.080 -0.1092 -0.3480 -0.5641
   84SAPS   H6X 7974   1.507   6.732  10.103 -0.6352  1.6099 -0.5230
   84SAPS   H6Y 7975   1.349   6.798  10.063  0.6088  0.2831  0.5673
   84SAPS   C37 7976   1.403   6.613   9.965  0.1094  0.0036 -0.0554
   84SAPS   H7X 7977   1.448   6.517   9.997  1.4621  1.0434  1.3553
   84SAPS   H7Y 7978   1.470   6.657   9.887 -0.3239  2.3733  0.8334
   84SAPS   C38 7979   1.262   6.588   9.913 -0.2967 -0.5677 -0.2426
   84SAPS   H8X 7980   1.207   6.684   9.922 -0.9850 -1.0443  0.7257
   84SAPS   H8Y 7981   1.209   6.518   9.981 -0.7402  1.7625  1.9728
   84SAPS   C39 7982   1.266   6.548   9.769  0.1002 -0.3255  0.2008
   84SAPS   H9X 7983   1.171   6.497   9.745  0.1732 -0.1203 -0.5290
   84SAPS   H9Y 7984   1.348   6.473   9.762  0.2266 -0.1288 -0.5411
   84SAPS  C310 7985   1.288   6.661   9.669  0.6339 -0.6112 -0.4109
   84SAPS  H10X 7986   1.385   6.712   9.687 -0.6635  1.7286  0.3885
   84SAPS  H10Y 7987   1.203   6.732   9.684  0.8455 -0.5885  0.8306
   84SAPS  C311 7988   1.309   6.605   9.525 -0.6692 -1.3814  0.5874
   84SAPS  H11X 7989   1.395   6.536   9.510 -0.0166 -0.1432 -2.0067
   84SAPS  H11Y 7990   1.335   6.690   9.459 -1.6249 -0.3211  1.5296
   84SAPS  C312 7991   1.182   6.557   9.458 -0.0248 -0.1750  1.0127
   84SAPS  H12X 7992   1.136   6.648   9.414  1.3974  0.1370  0.0963
   84SAPS  H12Y 7993   1.113   6.515   9.534  1.2602 -1.6693  1.4131
   84SAPS  C313 7994   1.199   6.434   9.361  0.6397 -0.2301  0.3767
   84SAPS  H13X 7995   1.234   6.345   9.417  0.8549  1.0085  2.2878
   84SAPS  H13Y 7996   1.275   6.452   9.282  2.4062 -0.2000  2.0228
   84SAPS  C314 7997   1.073   6.402   9.283 -0.7052 -0.5596  0.3442
   84SAPS  H14X 7998   1.053   6.496   9.228 -0.4759 -0.4837  0.3867
   84SAPS  H14Y 7999   0.999   6.374   9.361 -0.5502  0.0205  0.7043
   84SAPS  C315 8000   1.082   6.271   9.197  0.3650 -0.4593 -1.0193
   84SAPS  H15X 8001   0.979   6.252   9.160  0.4720  1.9411 -2.8031
   84SAPS  H15Y 8002   1.127   6.186   9.253  3.5610  0.8367 -1.4274
   84SAPS  C316 8003   1.171   6.270   9.073  0.2796  0.2743  0.1366
   84SAPS  H16X 8004   1.167   6.171   9.024  0.3680  1.8179 -3.2869
   84SAPS  H16Y 8005   1.274   6.303   9.101 -0.0136  1.6156 -0.3034
   84SAPS  C317 8006   1.123   6.353   8.958 -0.5161  0.0692  0.2333
   84SAPS  H17X 8007   1.094   6.453   8.998 -1.5070 -0.9936  2.4035
   84SAPS  H17Y 8008   1.022   6.318   8.927 -0.9982  1.6797 -0.0596
   84SAPS  C318 8009   1.208   6.367   8.829 -0.1764  0.0255 -0.2315
   84SAPS  H18X 8010   1.296   6.429   8.857  0.8968 -0.2157 -2.7833
   84SAPS  H18Y 8011   1.154   6.425   8.751 -0.2557  2.1400  1.3137
   84SAPS  H18Z 8012   1.236   6.265   8.793 -0.9234 -1.0806  2.1404
   85SAPS     N 8013   2.969   3.866  11.254 -0.4826  0.3536 -0.9047
   85SAPS   HN1 8014   2.918   3.802  11.317 -1.0265  1.2494 -0.4144
   85SAPS   HN2 8015   3.042   3.812  11.203  0.3049 -0.3395  0.8809
   85SAPS   HN3 8016   3.026   3.932  11.311  0.1144 -0.0127 -1.0698
   85SAPS   C12 8017   2.870   3.935  11.169  1.2863 -0.1247  0.2600
   85SAPS  H12A 8018   2.806   3.868  11.114  1.0512  1.8313 -2.0428
   85SAPS   C13 8019   2.763   4.033  11.239  0.0168  0.9164  1.3088
   85SAPS  O13A 8020   2.789   4.070  11.354  0.4773 -0.0575  0.1194
   85SAPS  O13B 8021   2.685   4.095  11.157  0.2108  0.4018  0.6337
   85SAPS   C11 8022   2.956   4.013  11.061 -0.1681 -0.0598  0.1667
   85SAPS  H11A 8023   3.024   4.075  11.123 -1.9998 -0.2495  2.5127
   85SAPS  H11B 8024   2.895   4.064  10.984 -0.4979 -3.3060 -1.9246
   85SAPS     P 8025   3.172   3.926  10.935  0.0044 -0.8838  0.4205
   85SAPS   O13 8026   3.249   4.023  11.019  0.1632 -0.4511  0.2356
   85SAPS   O14 8027   3.236   3.795  10.915 -0.2707  0.1321 -0.0675
   85SAPS   O12 8028   3.029   3.904  11.000 -0.2950 -0.3253  0.0491
   85SAPS   O11 8029   3.141   3.994  10.793  0.4877 -0.4146 -0.1425
   85SAPS    C1 8030   3.204   3.952  10.670 -0.1482 -0.1471 -0.7443
   85SAPS    HA 8031   3.222   4.040  10.605 -1.1031  2.0881  1.8093
   85SAPS    HB 8032   3.307   3.916  10.690  0.2278  1.4173  0.4118
   85SAPS    C2 8033   3.119   3.841  10.590  0.5236 -0.1107  0.4504
   85SAPS    HS 8034   3.145   3.736  10.617 -1.7473 -0.7790  0.2892
   85SAPS   O21 8035   3.129   3.877  10.447  0.0933  0.2427  0.2984
   85SAPS   C21 8036   3.211   3.794  10.382 -0.2605 -0.4454 -0.3614
   85SAPS   O22 8037   3.297   3.731  10.434 -0.0594  0.1944  0.5514
   85SAPS   C22 8038   3.176   3.800  10.227 -0.5256 -0.5240 -0.0737
   85SAPS   H2R 8039   3.093   3.869  10.206  0.4883  0.0292 -2.6512
   85SAPS   H2S 8040   3.264   3.850  10.181 -0.9039 -0.8955 -1.2333
   85SAPS    C3 8041   2.974   3.861  10.617  0.0869  0.4253  0.2760
   85SAPS    HX 8042   2.946   3.968  10.603 -0.2647  0.1254 -1.5229
   85SAPS    HY 8043   2.956   3.838  10.724 -0.1098  2.4184  0.7169
   85SAPS   O31 8044   2.896   3.764  10.542  0.2746  0.2001  0.4078
   85SAPS   C31 8045   2.805   3.820  10.471  0.2914 -0.6389  0.2158
   85SAPS   O32 8046   2.772   3.936  10.472 -1.1321  0.2313  0.3434
   85SAPS   C32 8047   2.748   3.715  10.382 -0.0156 -0.2218  0.2526
   85SAPS   H2X 8048   2.672   3.660  10.442  0.0296  1.6707  2.2045
   85SAPS   H2Y 8049   2.824   3.641  10.350  0.8607  1.3536 -1.4835
   85SAPS   C23 8050   3.150   3.663  10.160 -0.2388 -0.2547  0.1035
   85SAPS   H3R 8051   3.052   3.619  10.189 -0.4347  1.2290  1.8873
   85SAPS   H3S 8052   3.228   3.602  10.211  1.3722  1.1937 -0.5288
   85SAPS   C24 8053   3.174   3.661  10.012 -0.6152  0.2226 -0.4910
   85SAPS   H4R 8054   3.096   3.733   9.978 -1.5089  0.0746  1.1384
   85SAPS   H4S 8055   3.140   3.560   9.979  0.0115 -0.2871  0.3773
   85SAPS   C25 8056   3.312   3.698   9.962 -0.1096 -0.5648  0.0483
   85SAPS   H5R 8057   3.399   3.656  10.014  0.3001  1.6887  1.3097
   85SAPS   C26 8058   3.335   3.785   9.854 -0.3030  0.6101 -1.1128
   85SAPS   H6R 8059   3.435   3.809   9.816 -0.0094  1.7722  0.2783
   85SAPS   C27 8060   3.234   3.848   9.761 -0.4673  0.2487  0.6891
   85SAPS   H7R 8061   3.138   3.863   9.814 -1.1686  1.1063 -0.7981
   85SAPS   H7S 8062   3.216   3.789   9.669  1.6896  2.4693 -1.2953
   85SAPS   C28 8063   3.275   3.987   9.715 -0.0103 -0.3356  0.6655
   85SAPS   H8R 8064   3.239   4.060   9.789  2.1840  1.4139  0.1087
   85SAPS   C29 8065   3.345   4.025   9.601  0.1964  0.2733 -0.3831
   85SAPS   H9R 8066   3.371   4.131   9.593  2.7682 -0.2678 -0.0088
   85SAPS  C210 8067   3.401   3.933   9.496 -0.7586  0.3771 -0.1398
   85SAPS  H10R 8068   3.383   3.826   9.520 -1.1474  0.2868 -0.8364
   85SAPS  H10S 8069   3.512   3.941   9.483 -0.4468 -1.0186  1.3100
   85SAPS  C211 8070   3.324   3.952   9.364  0.2915 -0.1702 -1.3185
   85SAPS  H11R 8071   3.214   3.957   9.369  0.4214  2.2851  0.9625
   85SAPS  C212 8072   3.376   3.962   9.241 -0.5866 -0.5744  0.2804
   85SAPS  H12R 8073   3.304   3.958   9.158 -0.6262  0.1453  0.2765
   85SAPS  C213 8074   3.529   3.951   9.209 -0.0222  0.0304  0.6204
   85SAPS  H13R 8075   3.570   3.864   9.266  0.3815 -0.4991 -0.4396
   85SAPS  H13S 8076   3.598   4.032   9.241  0.8721 -0.9889  1.3856
   85SAPS  C214 8077   3.555   3.906   9.065  0.3891 -0.3182  0.0660
   85SAPS  H14R 8078   3.528   3.801   9.046  0.9643 -0.8604  2.0368
   85SAPS  C215 8079   3.622   3.973   8.966  0.1026  0.0564  0.2205
   85SAPS  H15R 8080   3.629   3.916   8.873 -1.4448  0.8955 -0.4430
   85SAPS  C216 8081   3.669   4.119   8.968  0.0125 -0.0699 -0.1101
   85SAPS  H16R 8082   3.779   4.129   8.960 -0.1243  1.4956 -0.3309
   85SAPS  H16S 8083   3.637   4.159   9.067 -1.8170 -0.1892 -0.6109
   85SAPS  C217 8084   3.613   4.201   8.854  0.7381  0.1658  0.5079
   85SAPS  H17R 8085   3.633   4.167   8.750  0.6939 -0.8171  0.8148
   85SAPS  H17S 8086   3.645   4.306   8.871 -0.2378  0.5211  0.1915
   85SAPS  C218 8087   3.454   4.196   8.860 -0.0713  0.6436  0.0483
   85SAPS  H18R 8088   3.425   4.209   8.966 -0.4630 -0.2946  0.0680
   85SAPS  H18S 8089   3.425   4.091   8.839 -0.7489  0.5206  1.4536
   85SAPS  C219 8090   3.398   4.295   8.761  0.0937  0.1372 -0.7684
   85SAPS  H19R 8091   3.395   4.265   8.655  0.2646 -0.3088 -0.6493
   85SAPS  H19S 8092   3.455   4.390   8.757 -1.3741  1.2070  1.4095
   85SAPS  C220 8093   3.262   4.330   8.792  0.4293  0.0236  0.3085
   85SAPS  H20R 8094   3.238   4.369   8.893 -1.2128  0.6954 -0.3081
   85SAPS  H20S 8095   3.189   4.247   8.779  0.4765  0.0684 -0.2671
   85SAPS  H20T 8096   3.229   4.401   8.714  2.6678  1.8176  0.8916
   85SAPS   C33 8097   2.692   3.766  10.245  0.9146  0.1483 -0.3850
   85SAPS   H3X 8098   2.639   3.862  10.262  2.3237  0.7222  1.0589
   85SAPS   H3Y 8099   2.626   3.691  10.197  0.0682 -0.2891  1.3873
   85SAPS   C34 8100   2.797   3.787  10.142  0.2830 -0.8345  1.2872
   85SAPS   H4X 8101   2.848   3.695  10.108  2.1959  0.6430 -0.0718
   85SAPS   H4Y 8102   2.876   3.855  10.180 -0.0234 -0.7767  1.8354
   85SAPS   C35 8103   2.737   3.862  10.023 -0.8342  0.2021  0.7034
   85SAPS   H5X 8104   2.699   3.961  10.059 -1.5728 -0.4010  1.6210
   85SAPS   H5Y 8105   2.644   3.809   9.992 -0.3466 -0.3613  0.2012
   85SAPS   C36 8106   2.834   3.888   9.910 -0.0883  0.6821 -0.3493
   85SAPS   H6X 8107   2.872   3.789   9.876 -0.8142 -1.0400  3.4268
   85SAPS   H6Y 8108   2.920   3.952   9.940  0.3551 -0.2205  0.3374
   85SAPS   C37 8109   2.783   3.980   9.790 -0.5285  0.3488 -0.6210
   85SAPS   H7X 8110   2.775   4.087   9.822  0.1593  0.6332 -1.3745
   85SAPS   H7Y 8111   2.701   3.926   9.739  0.7326 -1.9904 -0.3259
   85SAPS   C38 8112   2.891   3.971   9.680 -0.0677  0.1678  0.2883
   85SAPS   H8X 8113   2.909   3.866   9.647 -1.1389  0.7942 -2.4636
   85SAPS   H8Y 8114   2.984   4.012   9.727  1.8331 -1.3659 -1.8887
   85SAPS   C39 8115   2.867   4.077   9.568  0.0676  0.6485 -0.5821
   85SAPS   H9X 8116   2.855   4.169   9.628  1.5366 -0.7171  1.9567
   85SAPS   H9Y 8117   2.769   4.058   9.520 -0.1841 -1.4002  0.6238
   85SAPS  C310 8118   2.976   4.083   9.465  0.2939  0.1680  1.3515
   85SAPS  H10X 8119   2.980   3.994   9.399  0.2915  0.3368  1.1246
   85SAPS  H10Y 8120   3.077   4.086   9.511  0.9219  0.5723 -0.0241
   85SAPS  C311 8121   2.952   4.204   9.374  0.1639  0.5495 -0.7614
   85SAPS  H11X 8122   2.915   4.289   9.434  1.2762  0.2214  0.4343
   85SAPS  H11Y 8123   2.871   4.173   9.304 -0.6256  0.1474  0.3100
   85SAPS  C312 8124   3.080   4.225   9.293  0.6811  0.0069  1.0724
   85SAPS  H12X 8125   3.111   4.142   9.225  0.1857  1.4618 -1.0042
   85SAPS  H12Y 8126   3.168   4.256   9.355  2.5616  0.6099 -1.7205
   85SAPS  C313 8127   3.060   4.329   9.175 -0.3784  0.6396  0.4155
   85SAPS  H13X 8128   2.954   4.319   9.143  0.0822 -1.4094 -0.6049
   85SAPS  H13Y 8129   3.141   4.304   9.103 -0.1320 -3.2018  1.8196
   85SAPS  C314 8130   3.096   4.465   9.224  0.0038 -0.9455  0.2427
   85SAPS  H14X 8131   3.183   4.463   9.293  2.6685 -0.7595 -2.8781
   85SAPS  H14Y 8132   3.007   4.503   9.277  1.1861  1.3951  0.6906
   85SAPS  C315 8133   3.123   4.565   9.110 -0.1292 -0.1098  0.2411
   85SAPS  H15X 8134   3.204   4.520   9.048 -0.3020  0.6568 -0.5726
   85SAPS  H15Y 8135   3.167   4.658   9.153 -0.1677  0.0472 -0.0486
   85SAPS  C316 8136   3.001   4.600   9.023 -0.4331  0.1771 -0.9387
   85SAPS  H16X 8137   2.927   4.631   9.100  1.6494  2.6779  0.2207
   85SAPS  H16Y 8138   2.963   4.515   8.962 -0.9123  0.0496 -0.4676
   85SAPS  C317 8139   3.032   4.708   8.923 -0.1309  0.2683  0.1438
   85SAPS  H17X 8140   3.111   4.663   8.859 -1.2160 -0.5085 -0.6975
   85SAPS  H17Y 8141   3.073   4.792   8.983 -2.1172  1.2414  0.2435
   85SAPS  C318 8142   2.918   4.767   8.833 -0.7255  0.0117 -0.9055
   85SAPS  H18X 8143   2.954   4.858   8.781 -0.0479 -0.4523 -1.2623
   85SAPS  H18Y 8144   2.834   4.809   8.892 -0.4128  0.2900 -0.6476
   85SAPS  H18Z 8145   2.894   4.691   8.756  1.1360 -0.5755 -0.9470
   86SAPS     N 8146   3.327   1.627  11.084 -0.7044  0.8514  0.2098
   86SAPS   HN1 8147   3.281   1.685  11.157 -3.2389 -0.7735  0.0340
   86SAPS   HN2 8148   3.343   1.690  11.002  0.5271 -0.8509 -0.9256
   86SAPS   HN3 8149   3.253   1.563  11.048 -0.8401  1.2436 -0.2319
   86SAPS   C12 8150   3.453   1.566  11.115  0.6034 -0.7874  0.0127
   86SAPS  H12A 8151   3.529   1.642  11.120  1.6304 -1.5946 -2.0718
   86SAPS   C13 8152   3.468   1.499  11.253  0.3543 -0.1716 -0.0274
   86SAPS  O13A 8153   3.378   1.514  11.341 -0.1505  0.0347 -0.6040
   86SAPS  O13B 8154   3.578   1.453  11.289 -0.2605 -0.2754  0.0749
   86SAPS   C11 8155   3.481   1.458  11.009  0.0199  0.7445 -1.1298
   86SAPS  H11A 8156   3.398   1.387  11.029  0.3079  0.9106  0.8759
   86SAPS  H11B 8157   3.581   1.412  11.024 -0.4970 -0.0292  0.1273
   86SAPS     P 8158   3.367   1.471  10.773  0.2343  0.1221  0.2563
   86SAPS   O13 8159   3.242   1.497  10.850  0.2892 -0.5336  0.1569
   86SAPS   O14 8160   3.398   1.552  10.649 -0.0206 -0.2027 -0.8970
   86SAPS   O12 8161   3.483   1.507  10.881  0.5916 -0.0688  0.5055
   86SAPS   O11 8162   3.387   1.321  10.745  0.3076 -0.3156 -0.1645
   86SAPS    C1 8163   3.516   1.261  10.718 -1.0751  0.0839 -0.5923
   86SAPS    HA 8164   3.599   1.333  10.738 -0.2664 -1.4867  2.1628
   86SAPS    HB 8165   3.525   1.173  10.784 -1.7865 -0.0635 -0.6920
   86SAPS    C2 8166   3.519   1.207  10.567  0.0274 -0.1252  0.0989
   86SAPS    HS 8167   3.621   1.166  10.553 -0.8909 -2.3398 -0.7524
   86SAPS   O21 8168   3.488   1.310  10.469  0.2988  0.5072 -0.0828
   86SAPS   C21 8169   3.599   1.387  10.447  0.3631 -0.7829 -0.1608
   86SAPS   O22 8170   3.714   1.348  10.457 -0.5233 -0.1903 -0.2516
   86SAPS   C22 8171   3.549   1.509  10.370 -0.3653  0.8594 -0.3219
   86SAPS   H2R 8172   3.451   1.483  10.325  0.8650 -3.4541 -1.0580
   86SAPS   H2S 8173   3.547   1.589  10.446 -1.4883  1.6806 -1.1916
   86SAPS    C3 8174   3.415   1.095  10.546 -0.2848  0.1440  0.3188
   86SAPS    HX 8175   3.319   1.142  10.515  0.8286  0.3805 -3.1906
   86SAPS    HY 8176   3.401   1.037  10.639  0.1755 -1.2227 -0.4379
   86SAPS   O31 8177   3.452   0.991  10.446  0.0416 -0.2331 -0.3598
   86SAPS   C31 8178   3.390   1.015  10.323  0.1796  0.2640  0.2927
   86SAPS   O32 8179   3.305   1.099  10.299 -0.0107  0.7334  0.3855
   86SAPS   C32 8180   3.406   0.887  10.229  0.5054 -0.2237  0.4943
   86SAPS   H2X 8181   3.318   0.825  10.256 -1.2086  1.5434 -0.7966
   86SAPS   H2Y 8182   3.501   0.834  10.250  0.4318 -0.4565  0.2462
   86SAPS   C23 8183   3.662   1.552  10.273 -0.3163 -0.3068  0.1519
   86SAPS   H3R 8184   3.746   1.578  10.341  1.0803 -0.0556 -1.6007
   86SAPS   H3S 8185   3.631   1.643  10.218  0.5339  1.0104  1.7839
   86SAPS   C24 8186   3.724   1.460  10.170  0.7055  0.5925 -0.4591
   86SAPS   H4R 8187   3.795   1.395  10.225 -0.6984  0.1463  0.9196
   86SAPS   H4S 8188   3.787   1.513  10.096  1.4081  0.3837 -0.0229
   86SAPS   C25 8189   3.612   1.379  10.094 -0.1987 -0.3318 -0.2316
   86SAPS   H5R 8190   3.563   1.296  10.147 -1.1935  0.7007  0.5063
   86SAPS   C26 8191   3.557   1.412   9.976 -0.6423  0.5339 -0.7580
   86SAPS   H6R 8192   3.482   1.341   9.940  0.1111  0.4789 -2.2726
   86SAPS   C27 8193   3.575   1.538   9.893 -0.1949  0.5506 -0.2355
   86SAPS   H7R 8194   3.659   1.528   9.820 -0.8047  0.4786 -0.9399
   86SAPS   H7S 8195   3.600   1.622   9.961  1.6309 -0.1202 -0.0027
   86SAPS   C28 8196   3.452   1.585   9.830  0.1923 -1.3961 -0.4717
   86SAPS   H8R 8197   3.386   1.638   9.900 -0.0397 -1.9810 -0.2366
   86SAPS   C29 8198   3.419   1.574   9.701 -1.2202  1.1068  0.2577
   86SAPS   H9R 8199   3.331   1.633   9.669 -1.4384  1.4506  1.4443
   86SAPS  C210 8200   3.497   1.505   9.592 -0.4313  0.0039  0.7779
   86SAPS  H10R 8201   3.465   1.398   9.590  0.7259 -0.3511  0.3731
   86SAPS  H10S 8202   3.602   1.498   9.627 -1.1222 -3.3705  2.7077
   86SAPS  C211 8203   3.493   1.580   9.459 -0.0577  0.0280  0.9124
   86SAPS  H11R 8204   3.559   1.668   9.452  1.5794 -1.0706  1.8254
   86SAPS  C212 8205   3.435   1.543   9.346  0.2604 -0.1918 -0.0331
   86SAPS  H12R 8206   3.462   1.600   9.256  1.4469  2.2050  1.7075
   86SAPS  C213 8207   3.347   1.422   9.327 -0.1735  0.2323  0.2964
   86SAPS  H13R 8208   3.259   1.427   9.394 -1.1015  1.3416 -0.9693
   86SAPS  H13S 8209   3.409   1.341   9.371 -0.1156 -0.4097 -0.9257
   86SAPS  C214 8210   3.307   1.388   9.183  0.0099 -0.2922  0.4478
   86SAPS  H14R 8211   3.207   1.425   9.156  0.4916  0.2014 -0.7167
   86SAPS  C215 8212   3.382   1.335   9.082  0.0874  0.6545 -0.8661
   86SAPS  H15R 8213   3.343   1.337   8.979 -0.2083 -0.3800 -0.7794
   86SAPS  C216 8214   3.519   1.286   9.091 -0.3831  0.5003 -0.3986
   86SAPS  H16R 8215   3.515   1.175   9.092  0.8181  0.3614  3.1000
   86SAPS  H16S 8216   3.565   1.310   9.190  0.4879 -1.0410 -0.3884
   86SAPS  C217 8217   3.613   1.334   8.984 -0.0016 -0.1920  0.4679
   86SAPS  H17R 8218   3.563   1.303   8.889  0.4167  0.9783 -0.1520
   86SAPS  H17S 8219   3.706   1.273   8.984 -1.7703 -3.1516 -1.1941
   86SAPS  C218 8220   3.650   1.491   8.982  0.3690  0.5140  0.1131
   86SAPS  H18R 8221   3.672   1.516   9.088 -1.0837 -0.2275  0.6230
   86SAPS  H18S 8222   3.568   1.557   8.945  2.7176  2.8092 -1.3135
   86SAPS  C219 8223   3.781   1.522   8.906  0.0792 -0.2268  1.1146
   86SAPS  H19R 8224   3.854   1.446   8.943  1.5790  0.6425  0.0669
   86SAPS  H19S 8225   3.823   1.620   8.937 -1.7044  0.8741  0.2308
   86SAPS  C220 8226   3.753   1.497   8.753 -0.4149 -0.0480 -0.4117
   86SAPS  H20R 8227   3.807   1.406   8.718 -0.6678 -0.9842  1.5072
   86SAPS  H20S 8228   3.777   1.586   8.691  0.2143 -1.3811 -2.1623
   86SAPS  H20T 8229   3.643   1.484   8.740 -0.2296 -0.0002 -2.4152
   86SAPS   C33 8230   3.405   0.927  10.082  0.1510 -0.6018  0.0968
   86SAPS   H3X 8231   3.313   0.984  10.059  0.2989 -0.2952  0.2601
   86SAPS   H3Y 8232   3.392   0.832  10.025 -1.1546  0.2871 -1.1372
   86SAPS   C34 8233   3.537   0.987  10.024  0.0202  0.2037  0.1233
   86SAPS   H4X 8234   3.612   0.906  10.017  0.9738  1.1568 -1.0838
   86SAPS   H4Y 8235   3.590   1.066  10.081 -0.1459  0.5412 -0.1891
   86SAPS   C35 8236   3.504   1.045   9.883 -0.4286  0.2744  0.5562
   86SAPS   H5X 8237   3.448   1.140   9.890  0.0677  0.6421 -0.3507
   86SAPS   H5Y 8238   3.443   0.976   9.821  1.9002  0.5246 -2.2317
   86SAPS   C36 8239   3.634   1.065   9.800  1.5572 -0.1866 -0.2492
   86SAPS   H6X 8240   3.698   0.975   9.795 -0.3173 -1.8023  2.2954
   86SAPS   H6Y 8241   3.677   1.146   9.864 -0.8878 -1.0740  2.8108
   86SAPS   C37 8242   3.599   1.116   9.662  0.2554 -0.6560 -0.5304
   86SAPS   H7X 8243   3.515   1.190   9.661 -0.8254 -1.8258 -2.3358
   86SAPS   H7Y 8244   3.558   1.026   9.612 -2.3632  0.5837 -0.8300
   86SAPS   C38 8245   3.711   1.184   9.586  0.6561 -0.8119 -0.7634
   86SAPS   H8X 8246   3.811   1.139   9.600  0.8602  0.4401  2.6613
   86SAPS   H8Y 8247   3.711   1.291   9.613  0.2994 -0.6601 -1.3636
   86SAPS   C39 8248   3.689   1.174   9.433  0.0242 -0.3955  0.4169
   86SAPS   H9X 8249   3.596   1.230   9.411  0.0250  0.7998  2.9870
   86SAPS   H9Y 8250   3.671   1.070   9.398  1.2091  0.5409 -3.4295
   86SAPS  C310 8251   3.802   1.235   9.356 -0.0935  0.2097 -0.4720
   86SAPS  H10X 8252   3.889   1.233   9.425 -2.4258  0.8775  2.6493
   86SAPS  H10Y 8253   3.764   1.338   9.342  2.5622  1.5954  1.5967
   86SAPS  C311 8254   3.848   1.164   9.226  0.3175  0.4888 -0.1103
   86SAPS  H11X 8255   3.930   1.219   9.175  2.0199  0.0944  2.0444
   86SAPS  H11Y 8256   3.763   1.159   9.154 -0.6640  1.4170  0.9369
   86SAPS  C312 8257   3.889   1.018   9.253  0.1130 -0.3177  0.5860
   86SAPS  H12X 8258   3.801   0.959   9.286  0.4394 -0.7906  0.6142
   86SAPS  H12Y 8259   3.965   1.035   9.331  0.8048  1.8346 -0.4683
   86SAPS  C313 8260   3.963   0.964   9.134  0.6735 -0.4108 -0.1423
   86SAPS  H13X 8261   3.901   0.971   9.042  1.3554 -0.6040 -0.6247
   86SAPS  H13Y 8262   3.974   0.854   9.145  0.9202 -0.3423  0.3325
   86SAPS  C314 8263   4.104   1.016   9.101  0.7654  0.1004 -0.5250
   86SAPS  H14X 8264   4.147   1.012   9.203 -1.1711  1.6762  0.4290
   86SAPS  H14Y 8265   4.111   1.121   9.065 -2.2253  0.3129 -0.7219
   86SAPS  C315 8266   4.179   0.927   9.005 -0.2672  0.0960  0.0624
   86SAPS  H15X 8267   4.144   0.932   8.899 -0.4625  1.3523  0.1753
   86SAPS  H15Y 8268   4.158   0.825   9.044  0.6089 -0.3162 -0.5110
   86SAPS  C316 8269   4.326   0.945   9.012  0.5146 -0.1864 -0.3175
   86SAPS  H16X 8270   4.362   0.931   9.116 -0.0757  0.6832  0.0123
   86SAPS  H16Y 8271   4.355   1.051   8.994 -2.2336  0.5846 -0.5937
   86SAPS  C317 8272   4.401   0.856   8.915 -0.5489 -0.5466  0.3020
   86SAPS  H17X 8273   4.397   0.746   8.931  2.6788 -0.8774 -0.4661
   86SAPS  H17Y 8274   4.510   0.873   8.928 -0.9199  2.0933  0.3813
   86SAPS  C318 8275   4.359   0.868   8.769  0.4732 -0.2416  0.2656
   86SAPS  H18X 8276   4.432   0.826   8.696 -1.3896  0.4235 -2.0889
   86SAPS  H18Y 8277   4.347   0.978   8.756 -0.2876 -0.0368  2.2173
   86SAPS  H18Z 8278   4.266   0.810   8.749  0.1800 -0.3669  1.8595
   87SAPS     N 8279   2.970   1.517  10.897 -0.4098 -0.2913 -0.1949
   87SAPS   HN1 8280   3.073   1.528  10.890 -0.5537  0.6817 -1.0640
   87SAPS   HN2 8281   2.950   1.416  10.909 -0.5575 -0.3331 -0.7492
   87SAPS   HN3 8282   2.933   1.560  10.809 -1.5102  1.4437  1.0294
   87SAPS   C12 8283   2.922   1.587  11.021  0.7898 -0.1783 -0.5027
   87SAPS  H12A 8284   2.822   1.549  11.036  0.7873  0.0732  0.1640
   87SAPS   C13 8285   3.005   1.550  11.151 -0.2516 -0.3918  0.6316
   87SAPS  O13A 8286   3.112   1.482  11.145  0.4759 -0.2145  0.2116
   87SAPS  O13B 8287   2.944   1.574  11.259 -0.1164 -0.2270  0.0201
   87SAPS   C11 8288   2.927   1.745  11.003  1.0178 -0.5793  0.8227
   87SAPS  H11A 8289   2.900   1.794  11.099  3.1911 -0.4226  1.3945
   87SAPS  H11B 8290   2.854   1.780  10.927 -0.3942 -2.0664  1.4167
   87SAPS     P 8291   3.124   1.919  10.968  0.3749 -0.2729  0.0041
   87SAPS   O13 8292   3.038   2.020  11.033  0.1358  0.4975 -0.6068
   87SAPS   O14 8293   3.267   1.907  11.016  0.1018  0.7318  0.1815
   87SAPS   O12 8294   3.063   1.771  10.967  0.4812 -0.0959 -0.3155
   87SAPS   O11 8295   3.135   1.947  10.818  0.3938 -0.3613  0.3632
   87SAPS    C1 8296   3.146   1.848  10.719  0.1012 -0.3309 -0.0222
   87SAPS    HA 8297   3.202   1.762  10.761 -1.6222 -0.7497  1.5241
   87SAPS    HB 8298   3.048   1.809  10.686  0.5022 -1.2142 -0.1856
   87SAPS    C2 8299   3.221   1.895  10.590 -0.6199 -0.0605 -0.4460
   87SAPS    HS 8300   3.322   1.923  10.624 -1.2671  0.3328  1.2453
   87SAPS   O21 8301   3.143   2.013  10.548  0.2735  0.2579  0.5652
   87SAPS   C21 8302   3.212   2.125  10.550  0.4426 -0.7565  0.6675
   87SAPS   O22 8303   3.323   2.148  10.583 -0.4751 -0.3938 -0.4032
   87SAPS   C22 8304   3.129   2.230  10.486  0.1198  0.5169 -0.6760
   87SAPS   H2R 8305   3.075   2.182  10.402  1.1966 -2.0156 -0.0230
   87SAPS   H2S 8306   3.056   2.273  10.558  1.6655  2.6536 -0.2743
   87SAPS    C3 8307   3.224   1.783  10.484  0.8137 -0.2866 -0.0045
   87SAPS    HX 8308   3.124   1.736  10.480  0.7549 -0.0813 -1.5028
   87SAPS    HY 8309   3.293   1.707  10.528 -1.2973 -1.9544  0.5696
   87SAPS   O31 8310   3.249   1.840  10.355  0.2550  0.1018 -0.0426
   87SAPS   C31 8311   3.376   1.873  10.332  0.0955 -0.3245  0.5009
   87SAPS   O32 8312   3.471   1.843  10.399  0.9544 -0.2776  0.0836
   87SAPS   C32 8313   3.384   1.930  10.190  0.1060 -0.0452  1.2975
   87SAPS   H2X 8314   3.319   2.021  10.191  0.3877  0.2076  3.6936
   87SAPS   H2Y 8315   3.332   1.858  10.123 -0.6345  1.4501  0.2121
   87SAPS   C23 8316   3.220   2.344  10.428 -0.0932 -0.3556  0.2104
   87SAPS   H3R 8317   3.305   2.365  10.497 -1.0803 -1.6900  1.8868
   87SAPS   H3S 8318   3.155   2.434  10.427  0.4053  0.0366 -1.7865
   87SAPS   C24 8319   3.279   2.311  10.291 -0.5742  0.0527 -0.2789
   87SAPS   H4R 8320   3.213   2.257  10.220 -2.3772  0.0424  1.3159
   87SAPS   H4S 8321   3.357   2.236  10.311 -0.5619 -0.0083 -0.5485
   87SAPS   C25 8322   3.336   2.436  10.224  0.5917  0.2468  0.7639
   87SAPS   H5R 8323   3.385   2.509  10.290  1.6822  1.4697 -1.3150
   87SAPS   C26 8324   3.330   2.468  10.091  0.2503  0.3058 -0.4634
   87SAPS   H6R 8325   3.381   2.559  10.056  1.7185 -0.3229 -0.0360
   87SAPS   C27 8326   3.285   2.381   9.980 -0.0682  0.0807 -0.0583
   87SAPS   H7R 8327   3.289   2.275  10.015  1.5267  0.2313  0.3033
   87SAPS   H7S 8328   3.361   2.384   9.899 -0.3805 -0.4078 -0.3772
   87SAPS   C28 8329   3.150   2.414   9.925 -0.0375  0.2562  0.1388
   87SAPS   H8R 8330   3.089   2.456  10.006 -3.2650 -1.5232 -1.2314
   87SAPS   C29 8331   3.106   2.413   9.799 -0.6095 -0.0891 -0.1717
   87SAPS   H9R 8332   3.007   2.453   9.777  0.9006  2.6392 -2.7237
   87SAPS  C210 8333   3.186   2.372   9.675  0.5958 -0.3241  1.5159
   87SAPS  H10R 8334   3.296   2.377   9.690  1.0170  1.1366 -1.4787
   87SAPS  H10S 8335   3.175   2.456   9.604  3.8471  0.7591  2.1080
   87SAPS  C211 8336   3.142   2.239   9.620  0.1910 -0.1569  0.6685
   87SAPS  H11R 8337   3.155   2.159   9.694 -2.2923 -1.9834 -0.7202
   87SAPS  C212 8338   3.076   2.219   9.504  0.2509 -0.1606 -0.2434
   87SAPS  H12R 8339   3.036   2.117   9.493  1.2996 -0.5559 -0.5496
   87SAPS  C213 8340   3.049   2.322   9.401  0.2413 -0.1870  0.0693
   87SAPS  H13R 8341   3.062   2.265   9.307  0.5628 -4.4103  2.4483
   87SAPS  H13S 8342   3.119   2.408   9.407  0.8744 -0.7093  0.3166
   87SAPS  C214 8343   2.907   2.375   9.422  0.2332 -0.3132 -0.1635
   87SAPS  H14R 8344   2.899   2.453   9.499  1.6082 -1.2100  0.9441
   87SAPS  C215 8345   2.801   2.351   9.337 -0.0119 -0.4420 -0.5595
   87SAPS  H15R 8346   2.710   2.407   9.361  1.3257  2.4650 -1.8285
   87SAPS  C216 8347   2.807   2.266   9.208 -0.1126 -0.2362 -0.1982
   87SAPS  H16R 8348   2.714   2.207   9.194 -0.3275  0.1862 -0.5515
   87SAPS  H16S 8349   2.892   2.196   9.194  0.2446  0.0584  0.4464
   87SAPS  C217 8350   2.822   2.359   9.077 -0.0021 -0.3572 -0.1649
   87SAPS  H17R 8351   2.924   2.401   9.085 -0.2374 -0.1093  2.9152
   87SAPS  H17S 8352   2.749   2.439   9.102 -0.6641 -1.0703  0.2298
   87SAPS  C218 8353   2.786   2.297   8.938 -0.7681  0.0853  0.3336
   87SAPS  H18R 8354   2.677   2.277   8.954 -1.1057 -0.1382 -1.9749
   87SAPS  H18S 8355   2.843   2.207   8.908 -1.3247  0.2936 -1.4848
   87SAPS  C219 8356   2.788   2.398   8.820 -1.0372 -0.0772  0.5753
   87SAPS  H19R 8357   2.895   2.428   8.811 -0.4795 -1.6101  1.7137
   87SAPS  H19S 8358   2.727   2.487   8.846  1.3998  1.8935 -0.0196
   87SAPS  C220 8359   2.750   2.334   8.682 -0.1202 -0.1046  0.0357
   87SAPS  H20R 8360   2.837   2.269   8.660  1.0287  1.0692  0.9872
   87SAPS  H20S 8361   2.736   2.413   8.605  0.5499  0.3754  0.3991
   87SAPS  H20T 8362   2.661   2.268   8.699 -0.2665  0.7426  3.3023
   87SAPS   C33 8363   3.517   1.964  10.128  0.3613  0.4429 -0.2443
   87SAPS   H3X 8364   3.581   1.873  10.118 -0.7498 -0.2540 -1.4094
   87SAPS   H3Y 8365   3.573   2.034  10.193  0.7733  0.9036 -1.0803
   87SAPS   C34 8366   3.513   2.051  10.000 -0.2803 -0.0360 -0.7801
   87SAPS   H4X 8367   3.613   2.095   9.979 -0.2249 -0.6706 -1.9059
   87SAPS   H4Y 8368   3.440   2.130  10.031 -0.0066 -0.1800  0.2630
   87SAPS   C35 8369   3.482   1.975   9.874  0.0044  0.3134  0.0894
   87SAPS   H5X 8370   3.389   1.914   9.868 -1.0685  1.9325 -0.3934
   87SAPS   H5Y 8371   3.568   1.914   9.839  0.2783  1.7056 -1.9028
   87SAPS   C36 8372   3.464   2.063   9.754 -0.4391 -0.1983  0.0360
   87SAPS   H6X 8373   3.554   2.127   9.735  0.2329 -1.5010 -1.4312
   87SAPS   H6Y 8374   3.376   2.123   9.784  0.6184  0.8334  1.1978
   87SAPS   C37 8375   3.451   1.978   9.626 -0.1324 -0.4261  0.6995
   87SAPS   H7X 8376   3.352   1.930   9.636 -0.7082  0.4140 -0.6733
   87SAPS   H7Y 8377   3.521   1.892   9.624  1.4979  0.7990  1.8527
   87SAPS   C38 8378   3.482   2.050   9.495 -0.0892 -0.6349  0.5146
   87SAPS   H8X 8379   3.588   2.081   9.487 -0.1805 -0.3535  0.3781
   87SAPS   H8Y 8380   3.413   2.138   9.490  0.3397 -0.2007  1.7612
   87SAPS   C39 8381   3.454   1.961   9.369  0.3087  0.1735 -0.0117
   87SAPS   H9X 8382   3.358   1.909   9.387  1.8002 -2.3171  1.3911
   87SAPS   H9Y 8383   3.524   1.875   9.368 -1.9707 -1.8019 -0.9520
   87SAPS  C310 8384   3.437   2.029   9.231 -0.6589  0.1659 -0.5912
   87SAPS  H10X 8385   3.444   1.954   9.150 -1.4570 -0.8122  0.2243
   87SAPS  H10Y 8386   3.506   2.115   9.221 -3.3604  2.5517 -0.1918
   87SAPS  C311 8387   3.290   2.087   9.228 -0.5083 -0.6108 -0.1922
   87SAPS  H11X 8388   3.285   2.157   9.314 -0.1769 -0.5414 -0.2289
   87SAPS  H11Y 8389   3.209   2.014   9.250 -0.5088 -0.2263  1.1631
   87SAPS  C312 8390   3.274   2.174   9.106  0.3248 -0.1046  0.5847
   87SAPS  H12X 8391   3.356   2.249   9.100 -1.1885  1.5501 -0.5015
   87SAPS  H12Y 8392   3.181   2.234   9.106  0.6420  0.4409  2.1430
   87SAPS  C313 8393   3.276   2.097   8.978  0.2623 -0.6869 -0.7153
   87SAPS  H13X 8394   3.222   2.003   9.002 -2.7857  1.2309  0.5532
   87SAPS  H13Y 8395   3.379   2.062   8.960  0.0036 -1.3247 -1.0112
   87SAPS  C314 8396   3.207   2.161   8.854  1.1080  0.4598 -0.2228
   87SAPS  H14X 8397   3.259   2.251   8.815  0.0481  0.7935 -0.9435
   87SAPS  H14Y 8398   3.103   2.195   8.877  0.5233 -1.3186 -0.0898
   87SAPS  C315 8399   3.197   2.064   8.741 -0.7629  0.0344 -0.6997
   87SAPS  H15X 8400   3.165   1.964   8.776  0.3575 -0.0100  0.2857
   87SAPS  H15Y 8401   3.296   2.061   8.692 -1.0094 -2.1817 -1.1461
   87SAPS  C316 8402   3.103   2.112   8.640  0.0080 -0.4310 -0.1152
   87SAPS  H16X 8403   3.128   2.215   8.605  0.7204 -0.8137 -0.7502
   87SAPS  H16Y 8404   3.005   2.124   8.692  0.1493 -0.0273  0.0656
   87SAPS  C317 8405   3.082   2.008   8.528  0.0964 -0.0451  0.8912
   87SAPS  H17X 8406   3.051   1.911   8.574 -2.2687  1.0621  1.8157
   87SAPS  H17Y 8407   3.172   1.990   8.466 -0.8166  0.4544 -0.6379
   87SAPS  C318 8408   2.973   2.055   8.427 -0.5342  1.2000 -1.6789
   87SAPS  H18X 8409   3.010   2.153   8.389 -0.2729  2.3946  1.3846
   87SAPS  H18Y 8410   2.878   2.066   8.482  0.2582  0.0816  0.0097
   87SAPS  H18Z 8411   2.965   1.974   8.352 -0.1817  0.5322 -1.0152
   88SAPS     N 8412   1.104   3.528  11.103 -0.4863  0.2796  0.1594
   88SAPS   HN1 8413   1.145   3.583  11.181 -0.4462  0.4500  0.0217
   88SAPS   HN2 8414   1.032   3.465  11.145 -1.2176  0.9641 -0.0343
   88SAPS   HN3 8415   1.180   3.479  11.052 -0.8114  0.5534 -0.6029
   88SAPS   C12 8416   1.037   3.613  11.001 -0.2784  0.2248 -0.2726
   88SAPS  H12A 8417   1.016   3.561  10.909 -4.9043 -0.1657  0.7253
   88SAPS   C13 8418   0.899   3.679  11.036  0.1872 -0.2503 -0.1099
   88SAPS  O13A 8419   0.841   3.645  11.144 -0.8223 -0.0540  0.3559
   88SAPS  O13B 8420   0.845   3.753  10.951  0.1731  0.3070 -0.2331
   88SAPS   C11 8421   1.131   3.736  10.968 -0.3556 -0.1197  0.5393
   88SAPS  H11A 8422   1.114   3.794  11.061 -1.8930 -1.3049  1.0423
   88SAPS  H11B 8423   1.101   3.782  10.872  1.1288 -0.7753 -0.2793
   88SAPS     P 8424   1.377   3.785  10.887 -0.1818 -0.2455 -0.1834
   88SAPS   O13 8425   1.372   3.911  10.960  0.3193  0.0191 -0.1643
   88SAPS   O14 8426   1.506   3.711  10.892 -0.3952  0.0143 -0.5233
   88SAPS   O12 8427   1.269   3.687  10.951 -0.3468  0.3188  0.3121
   88SAPS   O11 8428   1.339   3.806  10.739 -0.4767  0.3521  0.1999
   88SAPS    C1 8429   1.287   3.701  10.646 -0.3288 -0.9610  0.1494
   88SAPS    HA 8430   1.252   3.611  10.702 -1.9547 -0.0358  0.6747
   88SAPS    HB 8431   1.206   3.732  10.577 -0.0943  1.2509  0.8030
   88SAPS    C2 8432   1.393   3.645  10.541 -0.1549  0.0422  0.4631
   88SAPS    HS 8433   1.490   3.629  10.593  0.5138 -0.0544 -0.7663
   88SAPS   O21 8434   1.401   3.738  10.431  0.2380 -0.3839 -0.2697
   88SAPS   C21 8435   1.481   3.841  10.444  0.1596 -0.3298  0.0337
   88SAPS   O22 8436   1.556   3.858  10.538  0.0493  0.2904 -0.0350
   88SAPS   C22 8437   1.476   3.939  10.325  1.0356  0.6299 -0.7741
   88SAPS   H2R 8438   1.493   3.881  10.232 -1.9491  1.7962 -2.1797
   88SAPS   H2S 8439   1.372   3.979  10.327  0.7740 -0.0185 -1.1541
   88SAPS    C3 8440   1.349   3.504  10.482  0.0864 -0.2504 -0.3311
   88SAPS    HX 8441   1.242   3.529  10.462 -0.2538 -0.7921  0.7344
   88SAPS    HY 8442   1.347   3.436  10.570 -0.5669  3.1559  2.5143
   88SAPS   O31 8443   1.425   3.465  10.367 -0.2090 -0.0952 -0.5711
   88SAPS   C31 8444   1.421   3.335  10.339  0.3992  0.5315 -0.7039
   88SAPS   O32 8445   1.363   3.253  10.413 -0.1314 -0.0913  0.1124
   88SAPS   C32 8446   1.504   3.310  10.214 -0.2614 -0.1756 -0.5025
   88SAPS   H2X 8447   1.531   3.202  10.209 -0.7578 -0.4294  1.6407
   88SAPS   H2Y 8448   1.606   3.351  10.234 -1.0582  0.8874  1.6921
   88SAPS   C23 8449   1.583   4.044  10.334 -0.7718 -0.8192  0.1165
   88SAPS   H3R 8450   1.682   3.994  10.327  0.4505  1.5628 -0.7101
   88SAPS   H3S 8451   1.592   4.109  10.424  1.0071  1.1002 -1.3282
   88SAPS   C24 8452   1.571   4.148  10.210 -0.1282  0.8818  0.1643
   88SAPS   H4R 8453   1.478   4.208  10.215 -1.1954 -0.3743 -2.6519
   88SAPS   H4S 8454   1.555   4.085  10.120  0.2507 -0.9359  1.3034
   88SAPS   C25 8455   1.702   4.232  10.209 -0.1342  0.0665  0.0511
   88SAPS   H5R 8456   1.692   4.315  10.280 -1.1763 -1.8413  2.2852
   88SAPS   C26 8457   1.808   4.219  10.132 -0.3026  0.0385  0.4341
   88SAPS   H6R 8458   1.884   4.297  10.136 -1.0630  0.7598  1.6054
   88SAPS   C27 8459   1.837   4.105  10.036  0.0255  0.0304  0.9317
   88SAPS   H7R 8460   1.828   4.154   9.936 -1.5390  0.7338  1.3896
   88SAPS   H7S 8461   1.747   4.040  10.034 -1.0156  1.3679  2.0206
   88SAPS   C28 8462   1.968   4.028  10.040  0.3071  0.2925 -0.0220
   88SAPS   H8R 8463   1.996   3.975  10.132 -1.8950 -2.4675 -0.7835
   88SAPS   C29 8464   2.050   4.006   9.933  0.0558  0.1859  0.1614
   88SAPS   H9R 8465   2.143   3.950   9.947  0.4384  0.9125  0.5854
   88SAPS  C210 8466   2.028   4.042   9.788  0.7791  0.1521 -0.0866
   88SAPS  H10R 8467   2.061   4.147   9.770  3.0366 -0.2588  1.3658
   88SAPS  H10S 8468   1.919   4.039   9.765  0.7311 -0.3562  0.2002
   88SAPS  C211 8469   2.100   3.957   9.688 -0.7434 -1.0810  0.4537
   88SAPS  H11R 8470   2.137   3.859   9.722 -0.9774 -0.5359  2.4532
   88SAPS  C212 8471   2.143   3.991   9.567 -0.4930 -0.4770 -0.2355
   88SAPS  H12R 8472   2.195   3.914   9.508 -0.5497 -1.6167  1.1494
   88SAPS  C213 8473   2.104   4.122   9.507  0.1503 -0.4681 -0.3842
   88SAPS  H13R 8474   2.190   4.163   9.449 -0.1250 -1.7114 -1.7277
   88SAPS  H13S 8475   2.064   4.195   9.580 -1.0634 -0.9070 -0.5785
   88SAPS  C214 8476   1.989   4.090   9.410  0.4871  0.4785 -0.2798
   88SAPS  H14R 8477   1.893   4.084   9.464  0.8290 -1.7902  0.1774
   88SAPS  C215 8478   1.984   4.064   9.277 -0.1507  0.1100 -0.9093
   88SAPS  H15R 8479   1.888   4.031   9.235 -0.3827 -2.2993  1.2797
   88SAPS  C216 8480   2.106   4.057   9.198  0.1563  0.4312  0.3789
   88SAPS  H16R 8481   2.197   4.035   9.258  0.2069  0.6453  0.3794
   88SAPS  H16S 8482   2.132   4.150   9.144 -0.3656 -0.2848 -1.1687
   88SAPS  C217 8483   2.102   3.950   9.088 -0.3586 -0.0794  0.0350
   88SAPS  H17R 8484   2.013   3.956   9.022 -1.4499 -1.3976  1.3329
   88SAPS  H17S 8485   2.114   3.848   9.130 -0.5661  0.1938  0.7636
   88SAPS  C218 8486   2.240   3.954   9.006  0.2720 -0.1908 -0.1272
   88SAPS  H18R 8487   2.248   3.859   8.948  1.9153 -0.8467  1.0898
   88SAPS  H18S 8488   2.334   3.960   9.066  1.0150 -0.2035 -1.2497
   88SAPS  C219 8489   2.251   4.075   8.913 -0.3286  0.6376 -0.1021
   88SAPS  H19R 8490   2.256   4.170   8.971 -0.0994  1.8628 -2.0357
   88SAPS  H19S 8491   2.159   4.088   8.852 -0.7506 -0.5652  0.2621
   88SAPS  C220 8492   2.380   4.070   8.829 -0.4626 -0.2015  0.7889
   88SAPS  H20R 8493   2.394   4.156   8.761  2.5474 -0.5817  0.7816
   88SAPS  H20S 8494   2.385   3.980   8.765 -0.1769 -0.6239  1.3878
   88SAPS  H20T 8495   2.476   4.074   8.886  0.2014 -3.5152  0.1057
   88SAPS   C33 8496   1.443   3.368  10.085  0.1498 -0.3392  0.6437
   88SAPS   H3X 8497   1.433   3.478  10.099  0.1910 -0.2060 -0.3031
   88SAPS   H3Y 8498   1.339   3.330  10.075  0.5315 -1.4200  0.6130
   88SAPS   C34 8499   1.510   3.329   9.947  0.1328 -1.0583 -0.3175
   88SAPS   H4X 8500   1.515   3.219   9.927  1.3231 -0.8476 -1.2762
   88SAPS   H4Y 8501   1.617   3.355   9.957 -0.5605  1.8117  0.6097
   88SAPS   C35 8502   1.438   3.390   9.828 -0.0127  0.5734  1.0686
   88SAPS   H5X 8503   1.465   3.497   9.817 -2.5114  1.0479 -1.5749
   88SAPS   H5Y 8504   1.327   3.383   9.836 -0.1362 -0.3150 -0.8610
   88SAPS   C36 8505   1.474   3.323   9.694  0.9461 -0.0108 -0.1149
   88SAPS   H6X 8506   1.420   3.231   9.664 -0.2408  0.9747 -1.0819
   88SAPS   H6Y 8507   1.582   3.295   9.691  1.4524  1.8262 -1.8032
   88SAPS   C37 8508   1.450   3.412   9.574 -0.2849  0.3857  0.1302
   88SAPS   H7X 8509   1.519   3.499   9.570 -0.4304  0.4955 -0.0093
   88SAPS   H7Y 8510   1.348   3.456   9.569 -0.7698  0.4159  5.2063
   88SAPS   C38 8511   1.468   3.338   9.443 -0.0800  0.2696 -0.1840
   88SAPS   H8X 8512   1.371   3.287   9.425  0.8075 -0.8692 -2.1291
   88SAPS   H8Y 8513   1.548   3.261   9.444 -0.4409 -0.2347 -2.5120
   88SAPS   C39 8514   1.474   3.433   9.315 -0.3947  0.0009 -0.7839
   88SAPS   H9X 8515   1.546   3.516   9.325  0.4061 -0.7003 -0.6201
   88SAPS   H9Y 8516   1.376   3.485   9.310 -0.1420  0.7449  1.1337
   88SAPS  C310 8517   1.518   3.381   9.180 -0.2616  0.7783 -0.2838
   88SAPS  H10X 8518   1.624   3.347   9.180 -0.4078  0.3061 -1.2002
   88SAPS  H10Y 8519   1.513   3.467   9.111 -0.3290  1.7401  0.8833
   88SAPS  C311 8520   1.427   3.271   9.128  0.5072  0.7251  0.5995
   88SAPS  H11X 8521   1.318   3.276   9.149 -0.1281  1.7414 -2.5248
   88SAPS  H11Y 8522   1.465   3.178   9.176 -0.4153  1.4201  2.8150
   88SAPS  C312 8523   1.450   3.234   8.980  0.3188  0.2981  0.7550
   88SAPS  H12X 8524   1.557   3.229   8.952  0.3457 -2.4420  1.0834
   88SAPS  H12Y 8525   1.406   3.320   8.925  1.6672  2.2277  2.5757
   88SAPS  C313 8526   1.369   3.116   8.939  0.1110  0.5369  0.3366
   88SAPS  H13X 8527   1.274   3.127   8.996  1.1575  0.4476  2.1586
   88SAPS  H13Y 8528   1.420   3.022   8.966  0.2178  1.0581  2.0470
   88SAPS  C314 8529   1.342   3.108   8.789  0.6630 -0.2376 -0.2264
   88SAPS  H14X 8530   1.434   3.118   8.728  0.3723  1.9451 -0.3891
   88SAPS  H14Y 8531   1.272   3.192   8.767 -0.6856 -1.2166  0.1775
   88SAPS  C315 8532   1.281   2.971   8.748 -0.2122  0.4864  0.1429
   88SAPS  H15X 8533   1.192   2.953   8.813 -0.8158  1.9147 -0.2314
   88SAPS  H15Y 8534   1.356   2.891   8.764  0.0040  0.8765  1.1128
   88SAPS  C316 8535   1.233   2.971   8.600  0.3982 -0.4189  0.1576
   88SAPS  H16X 8536   1.183   3.062   8.561 -1.4937 -1.8310 -0.8741
   88SAPS  H16Y 8537   1.149   2.900   8.608  0.1815 -0.2991 -0.9696
   88SAPS  C317 8538   1.344   2.907   8.505 -0.6866  0.3478 -0.0208
   88SAPS  H17X 8539   1.385   2.812   8.547  0.9043  1.3456  0.7657
   88SAPS  H17Y 8540   1.427   2.980   8.500 -0.8461  0.4947 -0.6296
   88SAPS  C318 8541   1.269   2.873   8.376  0.1066  0.5214 -1.2501
   88SAPS  H18X 8542   1.202   2.785   8.385  0.9769 -0.3458 -2.9142
   88SAPS  H18Y 8543   1.336   2.852   8.290 -1.0102  1.5044 -2.4030
   88SAPS  H18Z 8544   1.209   2.964   8.359 -1.0978 -0.0544 -0.2548
   89SAPS     N 8545   0.933   4.724  10.842  0.0016 -0.0019 -0.3263
   89SAPS   HN1 8546   0.833   4.752  10.844 -0.3369 -1.1719  2.1304
   89SAPS   HN2 8547   0.983   4.790  10.904 -1.8029 -0.3795  1.6372
   89SAPS   HN3 8548   0.971   4.712  10.745 -0.2912 -0.8982 -0.3425
   89SAPS   C12 8549   0.917   4.587  10.895 -0.4600  0.0386 -0.5592
   89SAPS  H12A 8550   1.013   4.552  10.927 -0.3649 -1.9168 -2.7514
   89SAPS   C13 8551   0.824   4.584  11.021 -0.0161 -0.0004  0.4207
   89SAPS  O13A 8552   0.761   4.685  11.073  0.1312  0.8013  0.4652
   89SAPS  O13B 8553   0.811   4.469  11.065 -0.0821 -0.4831 -0.0354
   89SAPS   C11 8554   0.868   4.480  10.795 -0.9727  0.2672  0.5515
   89SAPS  H11A 8555   0.844   4.381  10.839 -0.6816  1.1899  2.8813
   89SAPS  H11B 8556   0.968   4.460  10.750 -0.2119  0.0547  2.2474
   89SAPS     P 8557   0.627   4.486  10.703 -0.0823  0.5127  0.1865
   89SAPS   O13 8558   0.601   4.359  10.782  0.3681 -0.3124 -0.1316
   89SAPS   O14 8559   0.543   4.599  10.730 -0.1305 -0.2551 -0.5873
   89SAPS   O12 8560   0.775   4.524  10.696 -0.4033 -0.4381 -0.4389
   89SAPS   O11 8561   0.600   4.437  10.558  0.5906 -0.3942  0.3514
   89SAPS    C1 8562   0.686   4.462  10.447 -0.1384 -0.5365  0.5818
   89SAPS    HA 8563   0.791   4.463  10.481  0.0382  0.7423  0.0465
   89SAPS    HB 8564   0.671   4.380  10.373 -0.7829 -1.1292  1.3535
   89SAPS    C2 8565   0.650   4.602  10.385  0.3789 -0.0478 -0.8431
   89SAPS    HS 8566   0.658   4.669  10.474 -1.7930 -3.4545  2.2024
   89SAPS   O21 8567   0.515   4.591  10.348  0.3275 -0.0890  0.1633
   89SAPS   C21 8568   0.445   4.704  10.342  0.4998 -0.1616  0.1787
   89SAPS   O22 8569   0.485   4.815  10.371  0.5163 -0.7781  0.1417
   89SAPS   C22 8570   0.305   4.658  10.286 -0.4923 -0.3548  0.1841
   89SAPS   H2R 8571   0.317   4.550  10.264  1.1881  0.1011 -1.4041
   89SAPS   H2S 8572   0.237   4.674  10.372 -0.2215  0.0099  0.3306
   89SAPS    C3 8573   0.743   4.633  10.272  0.0242  0.0581 -0.2891
   89SAPS    HX 8574   0.848   4.638  10.307  0.5595 -0.1903 -1.8298
   89SAPS    HY 8575   0.728   4.738  10.238 -0.9859 -0.0820 -0.2997
   89SAPS   O31 8576   0.740   4.534  10.161  0.1479 -0.2457 -0.4495
   89SAPS   C31 8577   0.648   4.568  10.071  0.2272 -0.0976 -0.0773
   89SAPS   O32 8578   0.569   4.656  10.078  0.4899 -0.3956  0.0437
   89SAPS   C32 8579   0.649   4.469   9.963  0.1492  0.0142  1.1285
   89SAPS   H2X 8580   0.547   4.425   9.957  0.1431  0.0712  0.7750
   89SAPS   H2Y 8581   0.718   4.385   9.982 -0.2206 -0.2311  1.4081
   89SAPS   C23 8582   0.256   4.746  10.169  0.7820 -0.1239 -0.1682
   89SAPS   H3R 8583   0.324   4.745  10.081 -2.0012  1.5980 -2.5031
   89SAPS   H3S 8584   0.252   4.852  10.203  0.0771  0.4597 -1.9251
   89SAPS   C24 8585   0.113   4.705  10.122  0.0404  0.0049 -0.6440
   89SAPS   H4R 8586   0.059   4.774  10.054  0.8158  0.3930 -0.8753
   89SAPS   H4S 8587   0.071   4.730  10.222  0.5890 -0.0150 -0.4036
   89SAPS   C25 8588   0.105   4.558  10.087 -0.6992 -0.4089  0.3564
   89SAPS   H5R 8589   0.104   4.492  10.175  0.5507  0.2566  0.8975
   89SAPS   C26 8590   0.105   4.510   9.964  0.6701 -0.1384  0.3350
   89SAPS   H6R 8591   0.100   4.401   9.949  0.0325 -0.0318 -0.2701
   89SAPS   C27 8592   0.097   4.591   9.834  0.5486 -0.0213 -0.4284
   89SAPS   H7R 8593   0.067   4.697   9.844  1.4222  0.4282 -2.1500
   89SAPS   H7S 8594   0.018   4.558   9.763  1.1369  1.4332 -1.8110
   89SAPS   C28 8595   0.238   4.586   9.783 -0.3499  0.9954  0.6031
   89SAPS   H8R 8596   0.315   4.622   9.853 -1.5882 -1.1852  3.2886
   89SAPS   C29 8597   0.279   4.539   9.663 -0.2034  0.1643  0.0819
   89SAPS   H9R 8598   0.384   4.522   9.638 -0.4853 -3.5631  0.9564
   89SAPS  C210 8599   0.193   4.480   9.553  0.5875  0.0613 -0.1280
   89SAPS  H10R 8600   0.117   4.416   9.604  0.1805  2.0693  1.9484
   89SAPS  H10S 8601   0.252   4.403   9.500  1.7422  0.5830  0.3762
   89SAPS  C211 8602   0.140   4.583   9.451 -0.0323 -0.0005  0.6505
   89SAPS  H11R 8603   0.063   4.648   9.496 -0.5643 -0.0957 -0.1025
   89SAPS  C212 8604   0.189   4.600   9.323 -0.5930 -0.2910  0.4583
   89SAPS  H12R 8605   0.139   4.660   9.245 -1.9379 -1.6878  0.1972
   89SAPS  C213 8606   0.298   4.523   9.260 -0.3497  0.1024 -0.1286
   89SAPS  H13R 8607   0.348   4.445   9.321  0.3759 -1.6346 -2.7319
   89SAPS  H13S 8608   0.375   4.595   9.225 -2.6490  1.3501 -3.1347
   89SAPS  C214 8609   0.235   4.448   9.147 -0.8464 -0.2492 -0.6387
   89SAPS  H14R 8610   0.160   4.371   9.167 -1.3779  1.0484  3.2301
   89SAPS  C215 8611   0.284   4.448   9.022  0.3487  0.2845  0.7800
   89SAPS  H15R 8612   0.229   4.377   8.959 -0.8290  0.2060  1.8595
   89SAPS  C216 8613   0.412   4.509   8.968  0.7336 -0.1908 -0.5093
   89SAPS  H16R 8614   0.490   4.433   8.988 -1.2065 -2.3863 -0.7965
   89SAPS  H16S 8615   0.442   4.604   9.017  0.2256 -1.5977  2.8011
   89SAPS  C217 8616   0.392   4.532   8.822 -0.0369 -0.6075  0.4125
   89SAPS  H17R 8617   0.455   4.617   8.789 -0.6116  0.0781  1.0563
   89SAPS  H17S 8618   0.292   4.576   8.802 -0.4682 -0.0524  3.3130
   89SAPS  C218 8619   0.429   4.408   8.733  0.3217 -0.1080 -0.0231
   89SAPS  H18R 8620   0.412   4.443   8.629  3.3099  0.8372 -0.3035
   89SAPS  H18S 8621   0.380   4.317   8.773 -1.2913  0.8697  0.3039
   89SAPS  C219 8622   0.580   4.381   8.741 -0.1758  0.2251 -0.1984
   89SAPS  H19R 8623   0.599   4.286   8.686 -1.4078 -0.4630  0.5243
   89SAPS  H19S 8624   0.608   4.361   8.847  0.7165  0.5376 -0.3619
   89SAPS  C220 8625   0.677   4.481   8.687  0.4401 -0.1031 -0.4167
   89SAPS  H20R 8626   0.665   4.577   8.742  1.9732  0.6655 -1.3435
   89SAPS  H20S 8627   0.656   4.501   8.580 -0.3753  3.1149  0.2307
   89SAPS  H20T 8628   0.783   4.455   8.713  0.0719 -1.3426 -0.0890
   89SAPS   C33 8629   0.674   4.535   9.822  0.0723 -0.3185  0.0141
   89SAPS   H3X 8630   0.778   4.572   9.820 -0.6341  1.7750 -1.6947
   89SAPS   H3Y 8631   0.601   4.618   9.809 -0.3575 -0.6365  0.3665
   89SAPS   C34 8632   0.658   4.429   9.712  0.5681  0.1891  0.5660
   89SAPS   H4X 8633   0.553   4.395   9.705  0.1336  1.6641 -0.8567
   89SAPS   H4Y 8634   0.717   4.336   9.722  0.4895  0.0976  0.1960
   89SAPS   C35 8635   0.691   4.486   9.577 -0.3736  0.5468 -0.6507
   89SAPS   H5X 8636   0.797   4.520   9.578 -0.6206  1.6945 -3.6347
   89SAPS   H5Y 8637   0.635   4.581   9.565  1.0213  1.4362 -0.3197
   89SAPS   C36 8638   0.660   4.392   9.463 -0.6717  0.2025  0.7398
   89SAPS   H6X 8639   0.551   4.373   9.461 -0.4402 -1.1875  0.1719
   89SAPS   H6Y 8640   0.700   4.289   9.474 -0.8788 -0.3009 -2.2232
   89SAPS   C37 8641   0.708   4.438   9.321  0.5251  0.3871 -0.2507
   89SAPS   H7X 8642   0.816   4.460   9.334  0.3058  0.4793  1.7234
   89SAPS   H7Y 8643   0.678   4.545   9.315  0.5867  0.3468 -1.4819
   89SAPS   C38 8644   0.699   4.342   9.205  0.2677  0.5078  0.2075
   89SAPS   H8X 8645   0.745   4.383   9.113 -2.6137  2.0911 -0.6660
   89SAPS   H8Y 8646   0.591   4.327   9.182 -0.3125  4.3597 -0.1928
   89SAPS   C39 8647   0.766   4.209   9.227  1.0314  0.1459  0.7211
   89SAPS   H9X 8648   0.699   4.148   9.290  1.2514 -0.0971  0.7221
   89SAPS   H9Y 8649   0.868   4.217   9.271  2.0837 -2.8210 -0.9084
   89SAPS  C310 8650   0.797   4.135   9.090  0.5500  0.4434 -0.2844
   89SAPS  H10X 8651   0.883   4.188   9.044 -0.2420  0.5891 -1.6457
   89SAPS  H10Y 8652   0.704   4.136   9.029 -0.0702 -1.1733  0.5707
   89SAPS  C311 8653   0.839   3.986   9.126  0.2432 -0.0715 -0.1002
   89SAPS  H11X 8654   0.754   3.948   9.187 -0.1590  0.5404 -0.2650
   89SAPS  H11Y 8655   0.937   3.986   9.179  0.2734 -1.0411 -0.1492
   89SAPS  C312 8656   0.879   3.901   9.006  0.5843  0.3992  0.2995
   89SAPS  H12X 8657   0.913   3.804   9.049  0.1744  0.3030  0.4131
   89SAPS  H12Y 8658   0.964   3.950   8.953 -1.2479  0.9555 -2.3107
   89SAPS  C313 8659   0.764   3.873   8.930  0.2746  0.2114  0.8760
   89SAPS  H13X 8660   0.703   3.959   8.896 -2.0654 -0.8140  2.2091
   89SAPS  H13Y 8661   0.685   3.820   8.988  0.4471 -0.2850  0.6637
   89SAPS  C314 8662   0.791   3.786   8.811  0.1322  0.1314 -0.0413
   89SAPS  H14X 8663   0.690   3.769   8.769  0.3553  0.0072 -0.5436
   89SAPS  H14Y 8664   0.827   3.682   8.830  0.5303  0.3347  0.3329
   89SAPS  C315 8665   0.879   3.852   8.702 -0.5211 -0.1048 -0.7755
   89SAPS  H15X 8666   0.906   3.761   8.644  0.8494  0.6126 -1.2808
   89SAPS  H15Y 8667   0.966   3.902   8.748 -2.3695  1.2810  1.4783
   89SAPS  C316 8668   0.793   3.941   8.608 -0.4790 -0.3892 -0.2219
   89SAPS  H16X 8669   0.723   4.013   8.656 -1.6109 -1.0959 -0.7955
   89SAPS  H16Y 8670   0.745   3.875   8.533  0.4506 -2.1502  0.6609
   89SAPS  C317 8671   0.877   4.048   8.533 -0.1213 -0.1823  0.4488
   89SAPS  H17X 8672   0.954   3.996   8.473  0.8582  0.7734  0.8361
   89SAPS  H17Y 8673   0.931   4.123   8.596 -0.8846  0.4908  0.3122
   89SAPS  C318 8674   0.791   4.133   8.436 -0.3520 -1.3185 -0.1005
   89SAPS  H18X 8675   0.760   4.064   8.354 -0.4646  0.2419 -1.4006
   89SAPS  H18Y 8676   0.837   4.212   8.374 -5.2131 -0.1643 -2.7782
   89SAPS  H18Z 8677   0.700   4.174   8.484  0.3337  0.4823 -0.2982
   90SAPS     N 8678   5.323   6.686  11.191 -0.9315  0.9403 -0.6106
   90SAPS   HN1 8679   5.375   6.741  11.263 -1.1736 -1.3720  1.4776
   90SAPS   HN2 8680   5.374   6.597  11.170  0.8540  1.6852  0.3850
   90SAPS   HN3 8681   5.296   6.740  11.106 -1.9433 -0.6273 -1.3346
   90SAPS   C12 8682   5.186   6.650  11.245 -0.6255 -0.4218 -0.2065
   90SAPS  H12A 8683   5.201   6.591  11.335 -1.7684  4.2801  3.4536
   90SAPS   C13 8684   5.114   6.775  11.300 -0.5577  0.9476 -0.1022
   90SAPS  O13A 8685   5.180   6.887  11.292 -0.4049  0.5304 -0.4978
   90SAPS  O13B 8686   5.004   6.762  11.357  0.0847 -0.2952  0.5326
   90SAPS   C11 8687   5.093   6.585  11.136 -0.6849 -0.0180  0.0813
   90SAPS  H11A 8688   5.086   6.654  11.050  0.2304 -1.1577 -0.9499
   90SAPS  H11B 8689   4.992   6.565  11.179 -0.3070 -2.3484  0.0195
   90SAPS     P 8690   5.099   6.394  10.954 -0.1034  0.0071 -0.0235
   90SAPS   O13 8691   5.196   6.300  10.895 -0.2030 -0.1771 -0.3313
   90SAPS   O14 8692   4.966   6.341  10.981 -0.5697  0.6067 -0.5319
   90SAPS   O12 8693   5.151   6.464  11.088 -0.4284  0.6716  0.2057
   90SAPS   O11 8694   5.078   6.515  10.853  0.3784 -0.3166 -0.2480
   90SAPS    C1 8695   5.182   6.598  10.806 -1.2494  0.2078  0.5198
   90SAPS    HA 8696   5.213   6.680  10.874  0.3846 -0.0621  0.1318
   90SAPS    HB 8697   5.269   6.529  10.798  0.7891  2.8890 -3.2006
   90SAPS    C2 8698   5.150   6.655  10.664 -0.5705  1.0736  0.1250
   90SAPS    HS 8699   5.040   6.670  10.666 -0.6323  0.6212  1.4171
   90SAPS   O21 8700   5.194   6.565  10.558  0.0068 -0.1429  0.7301
   90SAPS   C21 8701   5.101   6.541  10.466 -0.3099 -0.4752 -0.4873
   90SAPS   O22 8702   4.995   6.600  10.453  0.2571 -0.2841 -0.2779
   90SAPS   C22 8703   5.161   6.443  10.365  0.1011 -0.0116 -0.9397
   90SAPS   H2R 8704   5.230   6.505  10.304  3.2127 -0.3750  1.9314
   90SAPS   H2S 8705   5.218   6.366  10.421 -0.2365  0.6364  0.3341
   90SAPS    C3 8706   5.225   6.788  10.629  0.9029  0.4825 -0.1658
   90SAPS    HX 8707   5.331   6.758  10.613  0.0896 -3.6215  0.9372
   90SAPS    HY 8708   5.223   6.853  10.719 -0.3712 -1.3928  1.2631
   90SAPS   O31 8709   5.166   6.851  10.511 -0.0660  0.2744  0.7882
   90SAPS   C31 8710   5.053   6.913  10.541  0.0455 -1.1040  0.1399
   90SAPS   O32 8711   5.002   6.922  10.653  0.0728 -0.5546 -0.1861
   90SAPS   C32 8712   5.000   6.983  10.411 -0.5003  0.2893  0.0549
   90SAPS   H2X 8713   4.959   6.910  10.337 -0.2063  0.4946 -0.3199
   90SAPS   H2Y 8714   5.083   7.043  10.367  0.5262 -1.7401 -0.9426
   90SAPS   C23 8715   5.054   6.374  10.274  0.4709  0.3239 -0.1724
   90SAPS   H3R 8716   4.983   6.455  10.246  1.9120  2.2585  1.4699
   90SAPS   H3S 8717   4.994   6.300  10.331  2.9585 -1.9597 -0.3076
   90SAPS   C24 8718   5.122   6.317  10.142 -0.0004  0.1581 -0.2352
   90SAPS   H4R 8719   5.162   6.412  10.100 -1.2255  0.8008 -0.0139
   90SAPS   H4S 8720   5.039   6.298  10.071  0.4696  3.8963 -2.0418
   90SAPS   C25 8721   5.231   6.212  10.148 -0.2228 -0.3306 -0.3852
   90SAPS   H5R 8722   5.205   6.111  10.181  0.4344 -0.3616  0.0654
   90SAPS   C26 8723   5.358   6.234  10.113 -0.4806  0.2994 -0.3966
   90SAPS   H6R 8724   5.423   6.155  10.154 -1.3398  0.1572  0.7486
   90SAPS   C27 8725   5.422   6.363  10.063  0.4214 -0.4405  0.1331
   90SAPS   H7R 8726   5.372   6.459  10.086  0.7458 -0.1880 -0.1893
   90SAPS   H7S 8727   5.408   6.363   9.952 -2.4498 -1.6690  0.4076
   90SAPS   C28 8728   5.565   6.352  10.113 -0.3758  0.4727  0.5051
   90SAPS   H8R 8729   5.579   6.338  10.221  0.6430  1.1001  0.4770
   90SAPS   C29 8730   5.674   6.380  10.044  0.4868  0.4683  0.3861
   90SAPS   H9R 8731   5.771   6.363  10.094  0.2840  0.5145  0.7997
   90SAPS  C210 8732   5.670   6.432   9.903 -0.2767 -0.4755 -0.3055
   90SAPS  H10R 8733   5.576   6.486   9.881  0.3251  0.0566 -1.6443
   90SAPS  H10S 8734   5.677   6.345   9.834  2.1220  0.6503 -1.5827
   90SAPS  C211 8735   5.788   6.523   9.871 -0.6368 -0.0284 -0.3275
   90SAPS  H11R 8736   5.855   6.550   9.955  0.6911  0.5432 -1.5271
   90SAPS  C212 8737   5.816   6.564   9.746 -0.5255  0.0685  0.0725
   90SAPS  H12R 8738   5.914   6.611   9.729 -0.2867 -0.5153 -0.1847
   90SAPS  C213 8739   5.738   6.519   9.621  0.6632  0.2972 -0.1503
   90SAPS  H13R 8740   5.702   6.611   9.571 -1.6492  0.5549  1.8218
   90SAPS  H13S 8741   5.648   6.460   9.650  1.4727 -1.0257 -0.2431
   90SAPS  C214 8742   5.823   6.434   9.526 -0.7834 -0.1575 -0.5450
   90SAPS  H14R 8743   5.880   6.358   9.582 -1.3004  1.2096  2.0074
   90SAPS  C215 8744   5.843   6.463   9.395 -0.1304 -0.8593  0.3826
   90SAPS  H15R 8745   5.916   6.405   9.336 -0.0250  1.2026 -1.6290
   90SAPS  C216 8746   5.776   6.574   9.318  0.7237  0.3038 -0.4338
   90SAPS  H16R 8747   5.858   6.605   9.251  1.5313 -1.3905 -0.2757
   90SAPS  H16S 8748   5.748   6.665   9.376  2.0414 -1.3153  3.0251
   90SAPS  C217 8749   5.659   6.523   9.236 -0.0812  1.0098  0.3806
   90SAPS  H17R 8750   5.606   6.611   9.193 -0.4190  2.7581  3.9914
   90SAPS  H17S 8751   5.584   6.477   9.304  0.9160 -1.2554  0.0581
   90SAPS  C218 8752   5.681   6.408   9.126  0.2025  0.1031 -0.2241
   90SAPS  H18R 8753   5.714   6.326   9.194 -0.8291  0.6286  0.9601
   90SAPS  H18S 8754   5.757   6.435   9.050  0.8534 -0.2690  0.2782
   90SAPS  C219 8755   5.553   6.372   9.053  0.3415 -0.9910 -0.1497
   90SAPS  H19R 8756   5.509   6.459   9.000  0.9163  0.6073  1.8233
   90SAPS  H19S 8757   5.476   6.347   9.128  1.2349 -3.0515  0.1390
   90SAPS  C220 8758   5.564   6.251   8.951  0.0257 -0.1967 -0.0448
   90SAPS  H20R 8759   5.557   6.144   8.980  0.2067 -0.9195 -2.4580
   90SAPS  H20S 8760   5.649   6.257   8.881 -0.8717 -0.2583 -1.1637
   90SAPS  H20T 8761   5.474   6.265   8.888 -0.3329  1.2899  0.7503
   90SAPS   C33 8762   4.882   7.080  10.437  0.1005 -0.1906  0.0443
   90SAPS   H3X 8763   4.908   7.157  10.513 -1.7840  1.2498 -0.7009
   90SAPS   H3Y 8764   4.794   7.022  10.473  0.6902  0.1781  2.2392
   90SAPS   C34 8765   4.828   7.160  10.311 -0.3487  0.5552 -0.7196
   90SAPS   H4X 8766   4.904   7.240  10.299  1.5529 -0.7524  1.4747
   90SAPS   H4Y 8767   4.732   7.206  10.342 -0.2873 -0.7885  1.6852
   90SAPS   C35 8768   4.810   7.080  10.184 -0.0457 -1.1021  0.2690
   90SAPS   H5X 8769   4.717   7.020  10.194 -0.0490 -1.0387  0.6517
   90SAPS   H5Y 8770   4.890   7.007  10.157  1.3940  1.0001 -1.5290
   90SAPS   C36 8771   4.817   7.182  10.060 -0.2361  0.7846  0.2774
   90SAPS   H6X 8772   4.923   7.214  10.052 -0.0477  0.2031  0.4287
   90SAPS   H6Y 8773   4.759   7.275  10.082 -0.0387  0.7110  1.1276
   90SAPS   C37 8774   4.768   7.117   9.930 -0.6663 -0.2172 -0.2590
   90SAPS   H7X 8775   4.673   7.066   9.958  0.5411 -2.0651  0.6601
   90SAPS   H7Y 8776   4.838   7.039   9.891 -0.8126  0.0403 -1.0623
   90SAPS   C38 8777   4.751   7.222   9.813  0.0721 -0.0099  0.0204
   90SAPS   H8X 8778   4.692   7.300   9.865  0.5970 -1.2793  2.7087
   90SAPS   H8Y 8779   4.697   7.174   9.728  1.8635 -1.1011 -0.5509
   90SAPS   C39 8780   4.872   7.281   9.734  0.2429  0.6434  0.1261
   90SAPS   H9X 8781   4.915   7.210   9.661 -0.8783  1.4636 -1.3804
   90SAPS   H9Y 8782   4.949   7.293   9.813 -0.6020  3.1440  0.6542
   90SAPS  C310 8783   4.829   7.406   9.660 -0.5021 -0.2354 -0.4995
   90SAPS  H10X 8784   4.817   7.493   9.729  0.4463 -0.6893  0.2652
   90SAPS  H10Y 8785   4.734   7.385   9.606 -1.3209  1.4990  0.1778
   90SAPS  C311 8786   4.935   7.447   9.560  0.8190 -0.6441 -0.0310
   90SAPS  H11X 8787   5.036   7.412   9.589  0.9190 -1.0662 -0.8521
   90SAPS  H11Y 8788   4.936   7.558   9.560 -0.0472 -0.6179  1.0974
   90SAPS  C312 8789   4.910   7.389   9.420  0.3822  0.5048 -0.7422
   90SAPS  H12X 8790   4.809   7.422   9.388 -1.3781  1.1457  4.4638
   90SAPS  H12Y 8791   4.924   7.280   9.435  0.5239  0.0335 -3.6615
   90SAPS  C313 8792   5.011   7.441   9.322 -0.3161  0.2727  0.4289
   90SAPS  H13X 8793   5.113   7.417   9.359  0.3902  1.8454 -0.4095
   90SAPS  H13Y 8794   5.012   7.552   9.321  1.2690  0.2929  1.4991
   90SAPS  C314 8795   4.999   7.386   9.181 -0.0690 -0.4767 -0.7579
   90SAPS  H14X 8796   5.080   7.405   9.107  1.4542 -1.3469  0.6181
   90SAPS  H14Y 8797   4.910   7.439   9.141 -0.2012 -0.0311  0.0962
   90SAPS  C315 8798   4.982   7.233   9.161  0.2883  0.6496 -0.0023
   90SAPS  H15X 8799   4.889   7.202   9.213  1.2315  0.5846  1.7267
   90SAPS  H15Y 8800   5.056   7.171   9.215 -1.3618 -2.6851 -1.3116
   90SAPS  C316 8801   4.977   7.189   9.017  0.7622  0.2499  0.0073
   90SAPS  H16X 8802   5.064   7.234   8.965 -1.1028  1.4522 -2.2441
   90SAPS  H16Y 8803   4.876   7.219   8.983  0.2030 -2.2678 -0.8129
   90SAPS  C317 8804   4.984   7.033   9.020  0.4150  0.0787 -0.3802
   90SAPS  H17X 8805   5.079   6.999   9.068  1.9541 -0.6062 -3.6293
   90SAPS  H17Y 8806   4.992   7.005   8.913 -0.4367 -0.6469 -0.2606
   90SAPS  C318 8807   4.862   6.957   9.077  0.6370 -1.0867  0.4270
   90SAPS  H18X 8808   4.766   6.996   9.037  0.8094  0.6772  1.5910
   90SAPS  H18Y 8809   4.853   6.964   9.187 -0.6344 -1.2681  0.3436
   90SAPS  H18Z 8810   4.864   6.849   9.053 -1.5358 -0.7965 -1.4495
   91SAPS     N 8811   5.868   1.344   6.355 -0.1686 -0.0841  0.3836
   91SAPS   HN1 8812   5.870   1.277   6.434 -0.0678  2.2476  2.4515
   91SAPS   HN2 8813   5.967   1.360   6.328 -0.4106  2.2502  0.7111
   91SAPS   HN3 8814   5.842   1.440   6.385 -1.2932 -0.3279  0.2374
   91SAPS   C12 8815   5.782   1.292   6.239 -0.1679 -0.6136 -0.4456
   91SAPS  H12A 8816   5.808   1.342   6.147 -2.7707 -2.2988 -2.2177
   91SAPS   C13 8817   5.787   1.150   6.190  0.3687  0.2316  0.2880
   91SAPS  O13A 8818   5.848   1.062   6.256  0.3660 -0.6260 -0.3514
   91SAPS  O13B 8819   5.712   1.122   6.092 -0.2995 -0.0665 -0.1690
   91SAPS   C11 8820   5.643   1.349   6.285 -0.3199  0.7920  0.5004
   91SAPS  H11A 8821   5.626   1.303   6.384 -0.8771  2.5085  1.2302
   91SAPS  H11B 8822   5.564   1.306   6.220  0.0517  1.3785 -0.3682
   91SAPS     P 8823   5.536   1.569   6.199  0.2699  0.4830 -0.1143
   91SAPS   O13 8824   5.592   1.547   6.062 -0.1238  0.4860  0.1524
   91SAPS   O14 8825   5.395   1.518   6.209  0.4221  0.5641  0.4616
   91SAPS   O12 8826   5.632   1.493   6.311  0.7026  0.1063  0.0356
   91SAPS   O11 8827   5.537   1.721   6.219 -0.8170 -0.8223  0.3843
   91SAPS    C1 8828   5.641   1.804   6.271 -0.2580 -0.3564 -0.0752
   91SAPS    HA 8829   5.740   1.761   6.243 -1.0330  0.7064 -5.7591
   91SAPS    HB 8830   5.632   1.899   6.213 -0.2719  0.0030  0.5110
   91SAPS    C2 8831   5.633   1.835   6.424  0.0900  0.1128 -0.4271
   91SAPS    HS 8832   5.643   1.739   6.480 -1.6873  0.0151 -0.2091
   91SAPS   O21 8833   5.510   1.905   6.456  0.2230  0.0695 -0.2367
   91SAPS   C21 8834   5.454   1.857   6.564  0.4455  0.9664 -0.3603
   91SAPS   O22 8835   5.476   1.751   6.619  0.1724  0.5360  0.1926
   91SAPS   C22 8836   5.348   1.960   6.615 -0.2398  0.3496  0.2164
   91SAPS   H2R 8837   5.397   2.058   6.634 -1.4820  0.4378  3.8189
   91SAPS   H2S 8838   5.281   1.969   6.527  0.8594 -0.3738 -0.7311
   91SAPS    C3 8839   5.754   1.923   6.469  0.6420  0.2613 -0.1585
   91SAPS    HX 8840   5.750   2.012   6.403 -2.8272 -0.2933 -0.8503
   91SAPS    HY 8841   5.841   1.860   6.439 -0.1541 -0.7307 -0.4109
   91SAPS   O31 8842   5.753   1.959   6.611 -0.0459  0.0954 -0.0057
   91SAPS   C31 8843   5.813   1.876   6.690  0.0621 -0.5811 -0.4401
   91SAPS   O32 8844   5.876   1.778   6.652  0.3616 -0.1090 -0.5758
   91SAPS   C32 8845   5.774   1.924   6.836 -0.4015 -0.4176  0.6771
   91SAPS   H2X 8846   5.688   1.866   6.877 -3.2562  1.7375 -1.8193
   91SAPS   H2Y 8847   5.733   2.027   6.830 -1.3785 -0.8237  0.0507
   91SAPS   C23 8848   5.257   1.916   6.733 -0.1416 -0.2758 -0.3943
   91SAPS   H3R 8849   5.237   1.806   6.733 -0.2315 -0.2687 -1.1194
   91SAPS   H3S 8850   5.160   1.966   6.714  0.0115 -0.2957 -1.3051
   91SAPS   C24 8851   5.306   1.977   6.870 -0.3853  0.0796 -0.1125
   91SAPS   H4R 8852   5.327   2.083   6.844  0.2972 -0.0402 -0.0675
   91SAPS   H4S 8853   5.405   1.931   6.891  1.1238  2.8363 -0.7107
   91SAPS   C25 8854   5.211   1.960   6.985  0.3013 -0.4434  0.5093
   91SAPS   H5R 8855   5.106   1.988   6.972  0.2689  0.1709  1.9327
   91SAPS   C26 8856   5.246   1.920   7.104  0.3142 -0.2916 -0.4831
   91SAPS   H6R 8857   5.161   1.902   7.172 -0.3394  0.9266 -0.9572
   91SAPS   C27 8858   5.386   1.892   7.152 -0.2238  0.2892 -0.4145
   91SAPS   H7R 8859   5.454   1.834   7.086 -0.9738 -1.6466  0.4398
   91SAPS   H7S 8860   5.379   1.823   7.239  0.3120  0.3909 -0.2862
   91SAPS   C28 8861   5.469   2.012   7.193  0.3792  0.0949  1.1069
   91SAPS   H8R 8862   5.515   2.064   7.108 -1.4223 -1.0233 -0.6681
   91SAPS   C29 8863   5.478   2.064   7.316  0.0082 -0.5407 -0.0393
   91SAPS   H9R 8864   5.534   2.158   7.327 -0.1762 -0.0751 -2.3680
   91SAPS  C210 8865   5.412   2.007   7.442 -1.2439 -0.1562 -0.0239
   91SAPS  H10R 8866   5.476   1.950   7.513 -1.0803 -0.8478 -0.7138
   91SAPS  H10S 8867   5.333   1.934   7.417  0.0951 -2.6659  2.4971
   91SAPS  C211 8868   5.339   2.117   7.513 -0.6148 -0.8850 -0.2347
   91SAPS  H11R 8869   5.266   2.169   7.449  1.0302  1.4591 -0.3310
   91SAPS  C212 8870   5.374   2.170   7.636  0.2557  0.1540  0.5089
   91SAPS  H12R 8871   5.322   2.264   7.664 -0.1804 -0.2146  0.9602
   91SAPS  C213 8872   5.470   2.136   7.747  0.1047  0.7009  0.2650
   91SAPS  H13R 8873   5.511   2.036   7.719 -3.2735 -0.9546  0.6717
   91SAPS  H13S 8874   5.418   2.118   7.844  1.7988  2.3865  1.5524
   91SAPS  C214 8875   5.573   2.231   7.754 -0.8282  0.6326 -0.7626
   91SAPS  H14R 8876   5.628   2.241   7.659 -2.0271 -0.7407 -1.6516
   91SAPS  C215 8877   5.603   2.305   7.861 -0.1331 -0.6646  0.4304
   91SAPS  H15R 8878   5.690   2.372   7.849 -0.0828 -0.9175 -0.7791
   91SAPS  C216 8879   5.540   2.302   7.997 -0.0578 -0.0989  0.5785
   91SAPS  H16R 8880   5.437   2.261   7.991 -0.1118 -0.2516  2.2133
   91SAPS  H16S 8881   5.529   2.409   8.026  5.7909  0.7230  0.8655
   91SAPS  C217 8882   5.628   2.223   8.095 -0.1159  0.6060  0.3005
   91SAPS  H17R 8883   5.734   2.236   8.065  0.0117  3.1351  1.5932
   91SAPS  H17S 8884   5.604   2.115   8.086  1.1541  0.2168  1.2672
   91SAPS  C218 8885   5.625   2.285   8.235  0.1257  0.4374  0.1316
   91SAPS  H18R 8886   5.665   2.388   8.229  0.0622  0.4023 -4.0523
   91SAPS  H18S 8887   5.697   2.228   8.298 -0.3798  1.6354  1.8567
   91SAPS  C219 8888   5.489   2.270   8.301  0.4420  0.1421 -0.1464
   91SAPS  H19R 8889   5.461   2.162   8.304 -0.4117  0.3761  1.8220
   91SAPS  H19S 8890   5.417   2.335   8.247  2.0906  3.3634  1.2642
   91SAPS  C220 8891   5.498   2.321   8.449  0.4122 -0.7746 -0.3971
   91SAPS  H20R 8892   5.584   2.272   8.499  0.5920  0.6910  0.7779
   91SAPS  H20S 8893   5.403   2.299   8.502  0.7577 -0.2071  0.4784
   91SAPS  H20T 8894   5.523   2.429   8.459  0.0196 -0.6932 -0.2893
   91SAPS   C33 8895   5.890   1.909   6.937  0.2209  0.3999 -0.0353
   91SAPS   H3X 8896   5.973   1.979   6.913  1.1859 -1.0618 -1.1607
   91SAPS   H3Y 8897   5.930   1.805   6.931  0.9623  0.6567  0.3572
   91SAPS   C34 8898   5.837   1.946   7.079 -0.0165 -0.1293 -0.1062
   91SAPS   H4X 8899   5.741   1.900   7.113 -0.1004  1.2036  1.5971
   91SAPS   H4Y 8900   5.811   2.054   7.073 -0.1453 -0.2390 -2.4699
   91SAPS   C35 8901   5.943   1.943   7.190 -0.3407 -0.5071 -0.2359
   91SAPS   H5X 8902   6.032   1.996   7.151 -0.2456 -1.8269 -1.9088
   91SAPS   H5Y 8903   5.975   1.838   7.204 -0.2906 -0.4333  0.2370
   91SAPS   C36 8904   5.899   2.002   7.325 -0.1511  0.3971  0.0596
   91SAPS   H6X 8905   5.806   1.953   7.362 -0.0503  0.6474  0.6500
   91SAPS   H6Y 8906   5.874   2.108   7.299 -2.4941 -0.4668 -1.6542
   91SAPS   C37 8907   6.001   1.995   7.436 -0.3847 -0.6918  0.0271
   91SAPS   H7X 8908   6.100   2.028   7.399 -0.5858 -0.7977 -0.6300
   91SAPS   H7Y 8909   6.006   1.892   7.479  1.2100 -1.5076 -1.9702
   91SAPS   C38 8910   5.956   2.094   7.544  0.4233 -0.9548 -0.1744
   91SAPS   H8X 8911   5.852   2.068   7.571  0.1207  1.5065  1.3207
   91SAPS   H8Y 8912   5.951   2.195   7.498  2.3924 -0.5212  0.4458
   91SAPS   C39 8913   6.055   2.105   7.663  0.1280 -0.1753  0.1723
   91SAPS   H9X 8914   6.163   2.094   7.640  0.5610  1.5726  1.1887
   91SAPS   H9Y 8915   6.027   2.022   7.731  0.2282  0.2764  0.7750
   91SAPS  C310 8916   6.025   2.237   7.741  0.7695 -0.5634  0.2791
   91SAPS  H10X 8917   5.919   2.248   7.772  0.3826  1.0819 -1.4523
   91SAPS  H10Y 8918   6.049   2.326   7.678  0.6520  0.1720  1.2534
   91SAPS  C311 8919   6.119   2.258   7.863  0.1861  0.4846 -0.1384
   91SAPS  H11X 8920   6.221   2.300   7.848 -0.6854  3.2874  1.1086
   91SAPS  H11Y 8921   6.119   2.172   7.933  2.8166  1.7284  1.5381
   91SAPS  C312 8922   6.056   2.376   7.946  0.4092  0.0467  0.7321
   91SAPS  H12X 8923   5.955   2.340   7.974 -0.0372  1.0842  0.5185
   91SAPS  H12Y 8924   6.045   2.465   7.880  1.3580  0.7791  1.5275
   91SAPS  C313 8925   6.141   2.409   8.071 -0.0301  0.0391  0.4678
   91SAPS  H13X 8926   6.237   2.454   8.038 -0.0073 -0.2082  0.1970
   91SAPS  H13Y 8927   6.150   2.313   8.126 -0.2412 -1.2167 -1.5894
   91SAPS  C314 8928   6.083   2.508   8.178  0.0703  0.5125  0.0928
   91SAPS  H14X 8929   5.975   2.483   8.185  0.2789 -0.0498  1.5047
   91SAPS  H14Y 8930   6.086   2.609   8.131 -0.2591  0.3206 -0.3492
   91SAPS  C315 8931   6.155   2.501   8.314 -0.3680 -0.2324  0.5851
   91SAPS  H15X 8932   6.254   2.548   8.301 -0.6375  0.0599 -0.4857
   91SAPS  H15Y 8933   6.163   2.392   8.334  1.0591 -0.1472  0.5742
   91SAPS  C316 8934   6.077   2.577   8.420 -0.9533  0.1876 -0.5075
   91SAPS  H16X 8935   6.078   2.685   8.393 -0.5041  0.7593  1.6468
   91SAPS  H16Y 8936   6.126   2.572   8.519 -0.1124 -0.7155 -0.9582
   91SAPS  C317 8937   5.928   2.544   8.435 -0.5047  0.5125  0.4045
   91SAPS  H17X 8938   5.915   2.440   8.472 -2.4394  0.6821  0.3027
   91SAPS  H17Y 8939   5.874   2.555   8.338 -0.8712  1.6726  0.7165
   91SAPS  C318 8940   5.853   2.631   8.536 -0.0942  0.1409  0.4513
   91SAPS  H18X 8941   5.907   2.614   8.631 -0.1493 -0.6584  0.3520
   91SAPS  H18Y 8942   5.750   2.589   8.534 -0.2426  0.4368 -2.3067
   91SAPS  H18Z 8943   5.858   2.738   8.509  1.9371 -0.1943 -0.7197
   92SAPS     N 8944   0.676   5.889   6.167  0.3310 -0.5850  0.0310
   92SAPS   HN1 8945   0.634   5.828   6.240 -1.4585 -0.2240 -0.6404
   92SAPS   HN2 8946   0.650   5.864   6.070  0.0064 -0.9560  0.2113
   92SAPS   HN3 8947   0.779   5.903   6.177 -0.0139  1.6691  1.2478
   92SAPS   C12 8948   0.612   6.021   6.178 -0.3504  0.6689  0.1127
   92SAPS  H12A 8949   0.622   6.066   6.275  2.0146  2.3383 -0.8214
   92SAPS   C13 8950   0.694   6.134   6.091  1.0251  0.1610 -0.5064
   92SAPS  O13A 8951   0.806   6.096   6.053 -0.6448  0.3869  0.5099
   92SAPS  O13B 8952   0.646   6.244   6.063  0.1318 -0.0461 -0.2542
   92SAPS   C11 8953   0.468   6.011   6.132 -0.1283  0.3192  0.1977
   92SAPS  H11A 8954   0.454   5.974   6.028 -0.3326  1.1771 -0.0916
   92SAPS  H11B 8955   0.433   6.116   6.125  2.5318  1.2008 -1.2807
   92SAPS     P 8956   0.257   5.976   6.266  0.5180 -0.1210 -0.2714
   92SAPS   O13 8957   0.201   6.071   6.165  0.3263 -0.1950 -0.3006
   92SAPS   O14 8958   0.174   5.866   6.305  0.3197  0.1588 -0.3181
   92SAPS   O12 8959   0.395   5.928   6.216 -0.6518  0.1536  0.6698
   92SAPS   O11 8960   0.309   6.061   6.390  0.5495  0.0497  0.9173
   92SAPS    C1 8961   0.395   6.002   6.485  0.3613  0.0405 -0.1108
   92SAPS    HA 8962   0.424   5.899   6.456 -0.4984 -0.3174  0.2663
   92SAPS    HB 8963   0.485   6.065   6.501  0.0846  1.0278 -2.0977
   92SAPS    C2 8964   0.323   5.990   6.620 -0.4141  0.2565 -0.0631
   92SAPS    HS 8965   0.242   5.915   6.608 -1.5400  1.6111 -1.2918
   92SAPS   O21 8966   0.278   6.125   6.644  0.5423 -0.1034 -0.0084
   92SAPS   C21 8967   0.159   6.145   6.707 -0.2516  0.5803  0.3902
   92SAPS   O22 8968   0.094   6.051   6.746  0.3960 -0.4441 -0.3404
   92SAPS   C22 8969   0.133   6.291   6.724 -0.1604 -0.3994 -0.4829
   92SAPS   H2R 8970   0.193   6.335   6.807  0.0096 -1.5000 -0.0072
   92SAPS   H2S 8971   0.169   6.351   6.638 -1.5283  1.4493  0.1817
   92SAPS    C3 8972   0.420   5.949   6.736  0.2735 -1.5198 -0.6548
   92SAPS    HX 8973   0.488   6.037   6.741 -2.9747  1.3065 -1.7049
   92SAPS    HY 8974   0.483   5.863   6.705  2.3753 -0.3897  0.2810
   92SAPS   O31 8975   0.348   5.932   6.857  0.0828  0.1069 -0.0207
   92SAPS   C31 8976   0.279   5.828   6.862 -0.0907  0.4979  0.4422
   92SAPS   O32 8977   0.285   5.726   6.789 -0.1593 -0.6102 -0.1394
   92SAPS   C32 8978   0.186   5.842   6.986 -0.0615 -0.7554  0.4008
   92SAPS   H2X 8979   0.109   5.764   6.970 -1.1736  0.4587 -0.3895
   92SAPS   H2Y 8980   0.135   5.941   6.986 -2.0657 -1.7210  1.6965
   92SAPS   C23 8981  -0.019   6.332   6.743 -0.2965  0.1119  0.9671
   92SAPS   H3R 8982  -0.078   6.297   6.656 -0.8962 -0.2837  1.5242
   92SAPS   H3S 8983  -0.016   6.442   6.728  1.8257  0.0378  0.5179
   92SAPS   C24 8984  -0.073   6.289   6.874  0.5637 -0.1252 -0.0863
   92SAPS   H4R 8985  -0.045   6.186   6.908 -1.2547  0.0679  2.2273
   92SAPS   H4S 8986  -0.183   6.285   6.860  0.6699 -1.6372 -0.7761
   92SAPS   C25 8987  -0.043   6.390   6.976  0.3340  0.5837 -0.3696
   92SAPS   H5R 8988   0.061   6.386   7.011 -0.0655 -0.6496  0.7265
   92SAPS   C26 8989  -0.133   6.469   7.039 -0.5974  0.2705  0.5585
   92SAPS   H6R 8990  -0.106   6.527   7.128 -2.3881  0.2559  1.1600
   92SAPS   C27 8991  -0.279   6.482   7.008  0.1868  0.2791  0.3162
   92SAPS   H7R 8992  -0.336   6.432   7.089  1.2759 -1.7246 -0.0840
   92SAPS   H7S 8993  -0.319   6.424   6.922 -2.2086 -1.1003  2.2286
   92SAPS   C28 8994  -0.343   6.621   7.002 -1.0339 -0.1296 -0.0508
   92SAPS   H8R 8995  -0.397   6.657   6.913 -0.3834 -1.3143 -0.9445
   92SAPS   C29 8996  -0.356   6.716   7.105  0.1070  0.6839  0.4770
   92SAPS   H9R 8997  -0.416   6.807   7.090 -0.9324  0.2712  1.9572
   92SAPS  C210 8998  -0.310   6.704   7.249 -0.2348  0.5705  0.0160
   92SAPS  H10R 8999  -0.314   6.597   7.280 -1.4573  0.7910  0.6631
   92SAPS  H10S 9000  -0.398   6.735   7.308  0.0815 -0.0601  0.8494
   92SAPS  C211 9001  -0.174   6.755   7.279 -0.0266 -0.2788  0.4771
   92SAPS  H11R 9002  -0.123   6.790   7.187 -0.1675 -1.2102  0.0308
   92SAPS  C212 9003  -0.119   6.758   7.404  0.8898 -0.5882 -0.0741
   92SAPS  H12R 9004  -0.017   6.797   7.417  0.6684  0.3209 -0.9583
   92SAPS  C213 9005  -0.187   6.717   7.531  0.8962 -0.2836  0.0729
   92SAPS  H13R 9006  -0.289   6.678   7.512  1.1776 -1.8859  1.6447
   92SAPS  H13S 9007  -0.199   6.808   7.594  0.0338 -0.5260  0.2687
   92SAPS  C214 9008  -0.114   6.616   7.617 -0.8117  0.1767  0.3385
   92SAPS  H14R 9009  -0.105   6.518   7.568 -1.4214  1.1060 -1.7519
   92SAPS  C215 9010  -0.071   6.632   7.743 -0.3435 -0.2202 -0.3890
   92SAPS  H15R 9011  -0.020   6.546   7.790 -0.5744  0.1239  0.5178
   92SAPS  C216 9012  -0.080   6.750   7.830 -0.1316  0.2341  0.0784
   92SAPS  H16R 9013  -0.069   6.845   7.773 -0.3617  0.1064 -0.1843
   92SAPS  H16S 9014   0.012   6.743   7.891 -2.0112  0.3401  3.1109
   92SAPS  C217 9015  -0.210   6.768   7.916  0.4219 -0.0081  0.1369
   92SAPS  H17R 9016  -0.221   6.679   7.982  0.4722 -0.2600 -0.1919
   92SAPS  H17S 9017  -0.295   6.769   7.844  2.5064 -0.2262 -2.4375
   92SAPS  C218 9018  -0.207   6.893   8.001  0.3591 -0.3462  0.1667
   92SAPS  H18R 9019  -0.177   6.991   7.958 -0.6120  1.2248  2.8450
   92SAPS  H18S 9020  -0.124   6.871   8.072 -0.6016  0.6545  1.6572
   92SAPS  C219 9021  -0.337   6.904   8.083  0.6401  0.5839 -0.5718
   92SAPS  H19R 9022  -0.334   6.820   8.156 -2.2262 -0.6482 -1.7437
   92SAPS  H19S 9023  -0.427   6.896   8.020 -1.6915  4.3914  1.8820
   92SAPS  C220 9024  -0.351   7.040   8.154 -0.1847 -0.2273  0.1369
   92SAPS  H20R 9025  -0.319   7.117   8.081  1.8185 -1.6380 -0.5262
   92SAPS  H20S 9026  -0.291   7.053   8.247 -3.7471 -0.1612  2.6320
   92SAPS  H20T 9027  -0.454   7.071   8.184  0.9825  1.5577  2.6685
   92SAPS   C33 9028   0.251   5.830   7.126 -0.5570  0.1332  0.4630
   92SAPS   H3X 9029   0.218   5.920   7.183 -2.8745  0.5390 -1.3472
   92SAPS   H3Y 9030   0.361   5.840   7.121 -0.4375 -0.7788  1.1185
   92SAPS   C34 9031   0.216   5.707   7.205  0.4077 -0.1427  0.0240
   92SAPS   H4X 9032   0.290   5.632   7.168 -0.0254  0.2080 -1.6161
   92SAPS   H4Y 9033   0.115   5.677   7.171 -0.0741 -0.2154  1.4687
   92SAPS   C35 9034   0.208   5.726   7.356  0.4225 -0.0873 -0.1862
   92SAPS   H5X 9035   0.303   5.780   7.375  0.7513  0.4875 -3.0685
   92SAPS   H5Y 9036   0.219   5.628   7.407  0.6089  1.1572  2.3226
   92SAPS   C36 9037   0.075   5.795   7.407  0.1078  0.6961 -0.0387
   92SAPS   H6X 9038  -0.016   5.758   7.355 -1.2831  3.3454  0.3891
   92SAPS   H6Y 9039   0.074   5.904   7.386 -2.8706  0.6953 -0.2953
   92SAPS   C37 9040   0.038   5.777   7.562 -0.2377  0.1677  0.2801
   92SAPS   H7X 9041   0.027   5.668   7.580  2.8861  0.0822  2.4489
   92SAPS   H7Y 9042  -0.059   5.824   7.589 -0.8133 -1.8990  2.0606
   92SAPS   C38 9043   0.149   5.831   7.652 -0.1020  0.1224  0.5596
   92SAPS   H8X 9044   0.169   5.936   7.622  0.1753 -0.0168  0.2613
   92SAPS   H8Y 9045   0.240   5.768   7.644  0.5177  0.9750  0.7685
   92SAPS   C39 9046   0.111   5.835   7.800  0.6092 -0.4237  0.2507
   92SAPS   H9X 9047   0.074   5.734   7.829  0.2510 -0.4458 -0.2758
   92SAPS   H9Y 9048   0.034   5.912   7.822 -0.2241 -1.2910  0.4366
   92SAPS  C310 9049   0.237   5.864   7.884  0.3674 -0.2008  0.8357
   92SAPS  H10X 9050   0.265   5.967   7.853  0.4694 -1.0057 -2.0909
   92SAPS  H10Y 9051   0.321   5.797   7.856  0.1910 -0.5258  1.0764
   92SAPS  C311 9052   0.211   5.862   8.034 -0.5770  0.2678 -0.2331
   92SAPS  H11X 9053   0.236   5.768   8.088 -1.2848  0.6760  0.8323
   92SAPS  H11Y 9054   0.101   5.879   8.038 -1.0433 -1.7125 -2.2438
   92SAPS  C312 9055   0.285   5.976   8.115 -0.8904 -0.1183  0.1532
   92SAPS  H12X 9056   0.267   6.071   8.060 -1.5323 -0.9204 -1.0716
   92SAPS  H12Y 9057   0.394   5.960   8.105 -0.7673  0.6226  0.2943
   92SAPS  C313 9058   0.263   5.995   8.262 -0.7748  0.3370 -0.4182
   92SAPS  H13X 9059   0.347   6.052   8.308  1.5124 -0.9559 -2.7329
   92SAPS  H13Y 9060   0.265   5.895   8.310  0.6971  0.7187  0.3833
   92SAPS  C314 9061   0.128   6.073   8.267 -0.7991  0.0385  0.2037
   92SAPS  H14X 9062   0.049   6.024   8.206 -0.9644 -0.5101  0.8487
   92SAPS  H14Y 9063   0.146   6.171   8.219  0.5695 -0.0011  0.6088
   92SAPS  C315 9064   0.071   6.106   8.409 -0.9262  0.4657 -0.0631
   92SAPS  H15X 9065   0.155   6.157   8.459  1.5097 -2.4675 -0.8628
   92SAPS  H15Y 9066   0.053   6.006   8.456 -0.1564 -0.1706 -1.0759
   92SAPS  C316 9067  -0.067   6.171   8.405  0.4292 -0.2525 -0.0258
   92SAPS  H16X 9068  -0.067   6.267   8.349  0.0135  0.0177  0.4277
   92SAPS  H16Y 9069  -0.093   6.176   8.513 -1.5867  0.8991 -0.5309
   92SAPS  C317 9070  -0.181   6.093   8.345  0.4021  0.6883 -0.0912
   92SAPS  H17X 9071  -0.178   5.995   8.398  0.8373 -0.1019 -1.5000
   92SAPS  H17Y 9072  -0.162   6.071   8.238  0.1489 -0.5878  0.1068
   92SAPS  C318 9073  -0.318   6.160   8.355  0.8819  0.0150  0.1147
   92SAPS  H18X 9074  -0.347   6.196   8.457  1.9661  2.4236 -0.3676
   92SAPS  H18Y 9075  -0.398   6.091   8.320  0.4640 -0.1765  1.3731
   92SAPS  H18Z 9076  -0.333   6.252   8.294 -1.4272  0.1106  0.7150
   93SAPS     N 9077   5.691   0.873   6.365 -0.3250 -0.2162  0.5706
   93SAPS   HN1 9078   5.743   0.930   6.295 -1.6637  0.1308 -0.1664
   93SAPS   HN2 9079   5.663   0.939   6.440 -0.5515  0.2798  0.0585
   93SAPS   HN3 9080   5.750   0.801   6.411  1.5287 -0.8421 -2.4848
   93SAPS   C12 9081   5.578   0.810   6.299 -0.0485 -0.2162 -0.0811
   93SAPS  H12A 9082   5.535   0.893   6.245  0.7150  0.7321  0.7340
   93SAPS   C13 9083   5.611   0.695   6.209  0.7105  0.6756 -0.6266
   93SAPS  O13A 9084   5.730   0.663   6.192  0.3214  0.0951  0.2729
   93SAPS  O13B 9085   5.519   0.652   6.141  0.0440  0.4248  0.5500
   93SAPS   C11 9086   5.473   0.758   6.403  0.0504 -0.1260 -0.0210
   93SAPS  H11A 9087   5.525   0.685   6.468  2.0073 -1.4039 -2.8178
   93SAPS  H11B 9088   5.403   0.702   6.336 -1.0028  3.2573 -2.0122
   93SAPS     P 9089   5.251   0.867   6.498  0.0482 -0.2892 -0.3821
   93SAPS   O13 9090   5.227   0.996   6.566 -0.2795 -0.2006 -0.5385
   93SAPS   O14 9091   5.173   0.836   6.382  0.1371  0.1389 -0.0622
   93SAPS   O12 9092   5.404   0.861   6.469 -0.2150 -0.2946 -0.2108
   93SAPS   O11 9093   5.235   0.754   6.607  0.5445  0.3161 -0.2163
   93SAPS    C1 9094   5.116   0.707   6.672 -0.4603 -0.4514 -0.1474
   93SAPS    HA 9095   5.031   0.766   6.632  0.3053  0.8478  0.0937
   93SAPS    HB 9096   5.104   0.596   6.666  2.6400 -0.9874  1.4294
   93SAPS    C2 9097   5.124   0.731   6.828 -0.3617  0.2232  0.1990
   93SAPS    HS 9098   5.024   0.745   6.874 -0.3181  2.0444 -0.1816
   93SAPS   O21 9099   5.212   0.840   6.851  0.6411 -0.2896 -0.1058
   93SAPS   C21 9100   5.143   0.954   6.868  0.3547  0.0040  0.6552
   93SAPS   O22 9101   5.029   0.976   6.835  0.1362  0.0235  0.0714
   93SAPS   C22 9102   5.247   1.046   6.934  0.1789  0.4124 -0.3634
   93SAPS   H2R 9103   5.334   0.992   6.977  0.2093 -0.1526 -1.1284
   93SAPS   H2S 9104   5.294   1.107   6.854  0.0928 -1.5932 -2.0096
   93SAPS    C3 9105   5.179   0.614   6.898  0.1269  0.1018  0.0384
   93SAPS    HX 9106   5.279   0.585   6.858 -0.4901 -0.7606 -0.9421
   93SAPS    HY 9107   5.113   0.526   6.879  1.9185 -1.0335 -1.1906
   93SAPS   O31 9108   5.180   0.646   7.040  0.3755 -0.2253 -0.2431
   93SAPS   C31 9109   5.063   0.630   7.106 -0.0949 -0.1807  0.5925
   93SAPS   O32 9110   4.959   0.583   7.059 -0.0042 -0.1396  0.2012
   93SAPS   C32 9111   5.096   0.667   7.251  1.3051  0.0883 -0.4781
   93SAPS   H2X 9112   5.065   0.771   7.276 -2.1347 -0.3778 -2.2022
   93SAPS   H2Y 9113   5.205   0.663   7.269  1.0346 -0.9916  1.1611
   93SAPS   C23 9114   5.189   1.156   7.031 -0.5820  0.1991 -0.0972
   93SAPS   H3R 9115   5.105   1.212   6.984 -2.4338 -3.0104 -0.9558
   93SAPS   H3S 9116   5.271   1.227   7.055 -2.6327  2.2159  1.3580
   93SAPS   C24 9117   5.124   1.097   7.165  0.2782 -0.9103 -0.3399
   93SAPS   H4R 9118   5.044   1.027   7.132 -0.2037  0.0317 -1.2115
   93SAPS   H4S 9119   5.072   1.178   7.221  1.3673 -0.3414 -0.1140
   93SAPS   C25 9120   5.234   1.027   7.241  0.4060  0.4416  0.3972
   93SAPS   H5R 9121   5.322   0.992   7.185 -0.2577 -0.7475  0.0655
   93SAPS   C26 9122   5.226   1.031   7.376  0.3196  0.7215  0.1744
   93SAPS   H6R 9123   5.314   0.994   7.431  0.7757  0.4016 -0.7397
   93SAPS   C27 9124   5.114   1.089   7.463  0.3287  0.0680  1.0776
   93SAPS   H7R 9125   5.020   1.063   7.410  2.2687  0.3386 -2.9434
   93SAPS   H7S 9126   5.114   1.200   7.456  0.4777  0.0174  0.0901
   93SAPS   C28 9127   5.115   1.043   7.604  0.0134 -0.5122  0.2083
   93SAPS   H8R 9128   5.057   0.952   7.626 -1.2121  0.3216  0.5234
   93SAPS   C29 9129   5.171   1.106   7.710 -0.4987  0.4129 -0.3592
   93SAPS   H9R 9130   5.165   1.062   7.811 -0.1203  0.5527 -0.2732
   93SAPS  C210 9131   5.254   1.227   7.697  0.1095 -0.7429 -0.1875
   93SAPS  H10R 9132   5.196   1.311   7.741  1.9354  0.0524  0.8224
   93SAPS  H10S 9133   5.270   1.250   7.589  3.0494 -1.3156  0.0330
   93SAPS  C211 9134   5.382   1.209   7.780 -0.9934  0.2883  0.0054
   93SAPS  H11R 9135   5.461   1.153   7.729 -0.9098 -1.4957  1.9336
   93SAPS  C212 9136   5.407   1.257   7.903 -0.5121  0.0032  0.0096
   93SAPS  H12R 9137   5.502   1.226   7.950 -0.2333 -0.7413 -1.0204
   93SAPS  C213 9138   5.321   1.345   7.987  0.4139  0.3038  0.1174
   93SAPS  H13R 9139   5.262   1.271   8.045  1.1943  0.5198  1.2183
   93SAPS  H13S 9140   5.255   1.404   7.920 -0.3526 -0.3280  0.3054
   93SAPS  C214 9141   5.402   1.432   8.075 -0.2763 -0.1294  0.3901
   93SAPS  H14R 9142   5.440   1.517   8.016  0.9236 -0.1527  1.0987
   93SAPS  C215 9143   5.408   1.432   8.211 -0.4276  0.0638  0.0949
   93SAPS  H15R 9144   5.455   1.506   8.277  1.3406  1.3357 -2.4696
   93SAPS  C216 9145   5.355   1.314   8.289  0.3657 -0.0159  0.4704
   93SAPS  H16R 9146   5.375   1.217   8.239 -0.9008  0.8757 -1.9197
   93SAPS  H16S 9147   5.245   1.322   8.282  0.1872 -1.5093  1.0699
   93SAPS  C217 9148   5.406   1.314   8.437  0.1276 -0.3618 -0.1479
   93SAPS  H17R 9149   5.509   1.356   8.448  0.5346 -0.8459 -1.7140
   93SAPS  H17S 9150   5.400   1.218   8.492  0.2679  1.2283  2.8469
   93SAPS  C218 9151   5.323   1.412   8.517 -0.0322 -0.4216  0.1843
   93SAPS  H18R 9152   5.221   1.372   8.537 -0.3773 -0.0993 -0.8691
   93SAPS  H18S 9153   5.301   1.498   8.450 -0.0807 -1.9869 -1.9129
   93SAPS  C219 9154   5.383   1.437   8.651  0.4757 -0.4444 -0.1931
   93SAPS  H19R 9155   5.484   1.482   8.641 -0.6542  2.4499  0.1712
   93SAPS  H19S 9156   5.381   1.342   8.708 -0.4213 -0.5986 -0.4684
   93SAPS  C220 9157   5.305   1.530   8.738 -0.0543 -0.5614 -0.2519
   93SAPS  H20R 9158   5.374   1.573   8.814 -2.6484 -0.1239  2.0523
   93SAPS  H20S 9159   5.216   1.484   8.788 -0.0149 -0.2279  0.1348
   93SAPS  H20T 9160   5.275   1.625   8.688  1.3059  0.5553  0.9670
   93SAPS   C33 9161   5.029   0.579   7.361  0.0251  0.3252 -0.0657
   93SAPS   H3X 9162   5.064   0.475   7.342  0.3569 -0.1805  2.9194
   93SAPS   H3Y 9163   4.918   0.571   7.351  0.1150 -0.6064 -0.4942
   93SAPS   C34 9164   5.077   0.602   7.507  0.3151 -0.4484 -0.6129
   93SAPS   H4X 9165   5.024   0.693   7.540  1.0677 -0.3344  0.3205
   93SAPS   H4Y 9166   5.186   0.624   7.519  0.6793 -2.7998  1.3669
   93SAPS   C35 9167   5.022   0.492   7.606 -0.3779 -0.1964  0.0362
   93SAPS   H5X 9168   5.020   0.392   7.557 -0.1488 -0.0638 -0.2481
   93SAPS   H5Y 9169   4.918   0.515   7.636 -1.2413 -2.1533 -1.2798
   93SAPS   C36 9170   5.124   0.473   7.718 -0.1936 -0.3335 -0.3312
   93SAPS   H6X 9171   5.229   0.464   7.683  0.6553  0.5017  1.8274
   93SAPS   H6Y 9172   5.099   0.381   7.776 -1.5797 -0.1227 -0.5490
   93SAPS   C37 9173   5.127   0.602   7.806  0.9478  0.9356 -0.2973
   93SAPS   H7X 9174   5.028   0.641   7.840  1.6603  2.1149  0.5089
   93SAPS   H7Y 9175   5.173   0.682   7.745  3.1681 -0.3765 -0.4454
   93SAPS   C38 9176   5.216   0.586   7.937 -0.4203  0.2068 -0.3471
   93SAPS   H8X 9177   5.220   0.689   7.980  0.7717 -1.0103  2.7377
   93SAPS   H8Y 9178   5.318   0.547   7.919 -0.7092 -1.5739  1.4797
   93SAPS   C39 9179   5.147   0.495   8.040 -0.3321  0.4305  0.1721
   93SAPS   H9X 9180   5.166   0.391   8.008 -1.5839 -0.4614  2.1385
   93SAPS   H9Y 9181   5.037   0.512   8.047 -0.8976 -2.0474 -1.4794
   93SAPS  C310 9182   5.206   0.495   8.181 -0.6714 -0.2209  0.6984
   93SAPS  H10X 9183   5.198   0.591   8.235 -0.3918  0.9112 -1.1818
   93SAPS  H10Y 9184   5.314   0.468   8.175 -0.7384 -0.9305  2.2015
   93SAPS  C311 9185   5.128   0.389   8.257 -0.4523  0.6242 -0.0859
   93SAPS  H11X 9186   5.143   0.290   8.210  2.0493  1.3219 -0.9449
   93SAPS  H11Y 9187   5.023   0.422   8.245 -0.4683  1.7044  2.4565
   93SAPS  C312 9188   5.164   0.389   8.408 -0.1766  0.6086 -0.3551
   93SAPS  H12X 9189   5.082   0.357   8.475  0.2645  0.2900  0.0401
   93SAPS  H12Y 9190   5.168   0.496   8.435 -1.8136  0.3452  1.0591
   93SAPS  C313 9191   5.295   0.313   8.449  0.0360 -0.2054 -0.1435
   93SAPS  H13X 9192   5.384   0.353   8.395  0.3680 -0.8746 -0.1159
   93SAPS  H13Y 9193   5.289   0.206   8.417 -0.5355  0.0446 -0.9104
   93SAPS  C314 9194   5.318   0.318   8.604  0.7375 -0.1302 -0.3710
   93SAPS  H14X 9195   5.409   0.259   8.629  2.2702  1.5019 -1.8321
   93SAPS  H14Y 9196   5.233   0.259   8.645 -1.3753  1.0414 -2.7873
   93SAPS  C315 9197   5.332   0.456   8.673 -0.5851  0.3355  0.3371
   93SAPS  H15X 9198   5.234   0.507   8.664 -0.3939  0.4534 -1.5292
   93SAPS  H15Y 9199   5.419   0.516   8.637 -0.3698  0.7183  1.4498
   93SAPS  C316 9200   5.358   0.448   8.828  0.3012 -0.0501  0.9961
   93SAPS  H16X 9201   5.443   0.381   8.852 -0.9811 -1.8784  0.6042
   93SAPS  H16Y 9202   5.261   0.423   8.877 -0.2380  1.3028  0.6583
   93SAPS  C317 9203   5.381   0.576   8.896 -0.5030 -0.5412 -0.5176
   93SAPS  H17X 9204   5.300   0.650   8.878  0.4314  0.3462 -1.1348
   93SAPS  H17Y 9205   5.468   0.622   8.845 -0.2073 -1.6268 -1.0096
   93SAPS  C318 9206   5.417   0.551   9.040  0.0674 -0.3457  0.2931
   93SAPS  H18X 9207   5.453   0.450   9.069 -0.8477 -0.3771  1.4019
   93SAPS  H18Y 9208   5.321   0.559   9.096 -0.8211  0.7620 -1.3132
   93SAPS  H18Z 9209   5.474   0.636   9.084 -1.1314  0.3864  0.4851
   94SAPS     N 9210   0.185   2.104   5.808  0.5797 -0.1481  0.0496
   94SAPS   HN1 9211   0.242   2.021   5.782  0.2190 -0.9848  1.8003
   94SAPS   HN2 9212   0.084   2.082   5.815  0.4221 -0.5587 -2.5761
   94SAPS   HN3 9213   0.203   2.177   5.736 -1.6380  0.1845 -0.2084
   94SAPS   C12 9214   0.239   2.142   5.942  0.8131 -0.9802  0.1777
   94SAPS  H12A 9215   0.344   2.168   5.932  0.5272  1.8412  2.8568
   94SAPS   C13 9216   0.185   2.274   5.997 -0.2107  0.3171  0.2130
   94SAPS  O13A 9217   0.091   2.341   5.938  0.0401 -0.4616 -0.0539
   94SAPS  O13B 9218   0.223   2.305   6.110  0.1219  0.1794  0.0331
   94SAPS   C11 9219   0.214   2.027   6.039  0.4144 -0.0717  0.1798
   94SAPS  H11A 9220   0.107   1.998   6.047  0.9082 -1.9494  0.3598
   94SAPS  H11B 9221   0.244   2.053   6.143  1.3045  2.1532 -0.5609
   94SAPS     P 9222   0.350   1.823   6.106  0.0316 -0.3026 -0.3797
   94SAPS   O13 9223   0.380   1.693   6.045  0.5858 -0.2767  0.5571
   94SAPS   O14 9224   0.461   1.894   6.179  0.2615 -0.8877  1.0120
   94SAPS   O12 9225   0.290   1.919   5.996 -0.3701 -0.2344 -0.1984
   94SAPS   O11 9226   0.227   1.788   6.202  0.4069  0.7879 -0.6669
   94SAPS    C1 9227   0.233   1.704   6.316 -0.5018  0.2511 -0.5262
   94SAPS    HA 9228   0.136   1.651   6.325  1.7752 -4.4006 -0.3383
   94SAPS    HB 9229   0.308   1.622   6.312 -2.3506 -1.5704  0.6066
   94SAPS    C2 9230   0.257   1.778   6.452  0.5935 -0.1028  0.5430
   94SAPS    HS 9231   0.354   1.830   6.438 -0.0819  0.8904 -0.6846
   94SAPS   O21 9232   0.251   1.677   6.555  0.0668 -0.0126  0.6925
   94SAPS   C21 9233   0.354   1.604   6.578 -0.0709  0.3631 -0.0892
   94SAPS   O22 9234   0.464   1.610   6.522 -0.3293  0.0990 -1.0250
   94SAPS   C22 9235   0.313   1.514   6.697  0.7412 -0.3626 -0.0101
   94SAPS   H2R 9236   0.263   1.563   6.783  0.7331  0.9469 -0.7262
   94SAPS   H2S 9237   0.234   1.453   6.647 -2.3459  3.2056  0.1037
   94SAPS    C3 9238   0.151   1.880   6.482  0.4455 -0.9938  0.0074
   94SAPS    HX 9239   0.047   1.844   6.469 -0.0329  1.1695 -3.8430
   94SAPS    HY 9240   0.159   1.965   6.411 -2.0667 -1.8247 -1.3838
   94SAPS   O31 9241   0.151   1.944   6.616 -0.1987  0.2271  0.0521
   94SAPS   C31 9242   0.269   1.997   6.654  0.0365 -0.6241  0.8717
   94SAPS   O32 9243   0.374   1.996   6.599  0.7023  0.1835  0.1323
   94SAPS   C32 9244   0.243   2.067   6.786 -0.3005  0.0383  0.2318
   94SAPS   H2X 9245   0.150   2.129   6.782  0.0669  0.5352 -0.8777
   94SAPS   H2Y 9246   0.328   2.137   6.801 -0.8225  1.1689 -1.6776
   94SAPS   C23 9247   0.427   1.411   6.730  0.4178 -0.2562 -0.4933
   94SAPS   H3R 9248   0.523   1.457   6.763  1.2110 -0.5073 -2.3529
   94SAPS   H3S 9249   0.426   1.351   6.637 -1.2268  0.8340 -1.2312
   94SAPS   C24 9250   0.371   1.315   6.839 -0.2069  0.1684 -0.6143
   94SAPS   H4R 9251   0.310   1.249   6.773 -0.4085 -0.2588 -0.0036
   94SAPS   H4S 9252   0.301   1.373   6.903 -0.7899  0.2412 -1.3042
   94SAPS   C25 9253   0.483   1.235   6.900 -0.3684 -0.7845 -0.4069
   94SAPS   H5R 9254   0.564   1.201   6.834  0.1425  2.1488 -1.4468
   94SAPS   C26 9255   0.508   1.228   7.034  0.7113  0.4500 -0.1984
   94SAPS   H6R 9256   0.606   1.192   7.069  0.5907  1.3915  1.1688
   94SAPS   C27 9257   0.428   1.284   7.151 -0.4521  0.0409 -0.1291
   94SAPS   H7R 9258   0.433   1.209   7.233 -0.1626  1.0579  0.8002
   94SAPS   H7S 9259   0.323   1.303   7.121 -0.2832  1.9004  0.3676
   94SAPS   C28 9260   0.493   1.415   7.194 -0.4916  0.6897  0.1175
   94SAPS   H8R 9261   0.450   1.507   7.152 -2.6888 -0.0652  0.6295
   94SAPS   C29 9262   0.585   1.422   7.288  0.2668 -0.4490 -0.2163
   94SAPS   H9R 9263   0.629   1.521   7.307 -0.4358 -0.4901  1.8558
   94SAPS  C210 9264   0.650   1.313   7.382 -0.2262  0.3603  0.3365
   94SAPS  H10R 9265   0.745   1.280   7.335 -0.5673 -2.9782  1.6977
   94SAPS  H10S 9266   0.598   1.216   7.368 -2.6048  1.6774 -0.5762
   94SAPS  C211 9267   0.665   1.347   7.526 -0.6284 -0.3531  0.0939
   94SAPS  H11R 9268   0.571   1.365   7.580 -0.2041  0.9760  0.4340
   94SAPS  C212 9269   0.777   1.336   7.602 -0.0949 -0.8688  0.1525
   94SAPS  H12R 9270   0.771   1.384   7.701 -0.4254 -1.3761  0.3818
   94SAPS  C213 9271   0.919   1.304   7.567 -0.2840 -0.9660 -0.8140
   94SAPS  H13R 9272   0.976   1.399   7.559 -0.6665 -0.8575 -2.8357
   94SAPS  H13S 9273   0.927   1.274   7.460 -1.3539 -0.5011 -1.0333
   94SAPS  C214 9274   0.996   1.217   7.656  0.2634 -0.4426 -0.9610
   94SAPS  H14R 9275   1.026   1.123   7.608  1.3571 -0.7671  0.3019
   94SAPS  C215 9276   1.048   1.236   7.779  0.1918  0.1566  0.5552
   94SAPS  H15R 9277   1.096   1.152   7.832 -1.3364 -0.3613  1.1669
   94SAPS  C216 9278   1.036   1.357   7.860  0.9835 -0.9639  0.3894
   94SAPS  H16R 9279   1.010   1.439   7.790 -0.2784 -0.5660  1.2739
   94SAPS  H16S 9280   1.123   1.390   7.920 -0.7517  1.9843  1.5447
   94SAPS  C217 9281   0.912   1.355   7.957  0.8399  0.0935  0.4927
   94SAPS  H17R 9282   0.875   1.251   7.970  0.2514  0.4506  1.8073
   94SAPS  H17S 9283   0.833   1.427   7.929 -0.6118 -0.5856  2.5753
   94SAPS  C218 9284   0.943   1.391   8.100 -0.3594  0.3606  0.4600
   94SAPS  H18R 9285   0.996   1.488   8.091  1.0918 -0.1358  2.8576
   94SAPS  H18S 9286   1.023   1.324   8.138 -0.4520  0.8677  1.5801
   94SAPS  C219 9287   0.830   1.409   8.200  0.6447  1.4657 -1.4485
   94SAPS  H19R 9288   0.855   1.421   8.308 -2.4343 -0.9597 -0.2833
   94SAPS  H19S 9289   0.762   1.321   8.202  1.0815  1.1284 -0.6595
   94SAPS  C220 9290   0.732   1.518   8.165 -0.0589 -0.0871  0.5991
   94SAPS  H20R 9291   0.662   1.479   8.088 -0.7415 -0.5557  1.4298
   94SAPS  H20S 9292   0.778   1.610   8.126 -1.0292  0.1589 -0.0028
   94SAPS  H20T 9293   0.655   1.539   8.243 -0.2172 -1.2936  0.7885
   94SAPS   C33 9294   0.223   1.971   6.908  0.2178  0.4486  0.4804
   94SAPS   H3X 9295   0.306   1.898   6.900 -1.5050 -1.3741 -2.4539
   94SAPS   H3Y 9296   0.132   1.909   6.900  0.9621 -0.7534  0.9837
   94SAPS   C34 9297   0.231   2.046   7.041 -0.4682  0.4408  0.3004
   94SAPS   H4X 9298   0.161   2.131   7.057  0.3040  1.0325  0.6484
   94SAPS   H4Y 9299   0.328   2.099   7.050  0.1284 -0.7093  0.8607
   94SAPS   C35 9300   0.213   1.948   7.159  0.7162  0.2475 -0.3730
   94SAPS   H5X 9301   0.282   1.860   7.161 -1.5175 -1.5900 -0.2832
   94SAPS   H5Y 9302   0.114   1.899   7.145  0.0223  0.3439  3.2337
   94SAPS   C36 9303   0.206   2.024   7.296  0.8865  0.6960 -0.3412
   94SAPS   H6X 9304   0.147   1.964   7.369  0.5260  1.5088  0.0483
   94SAPS   H6Y 9305   0.156   2.124   7.289  2.4349  1.5340  0.2384
   94SAPS   C37 9306   0.350   2.042   7.346 -0.3282 -0.1445  0.5966
   94SAPS   H7X 9307   0.390   2.120   7.277 -0.5619 -1.1382 -0.7011
   94SAPS   H7Y 9308   0.397   1.944   7.325  0.1280  0.9240 -5.1173
   94SAPS   C38 9309   0.354   2.079   7.492  0.1677 -0.1784 -0.1448
   94SAPS   H8X 9310   0.299   2.015   7.564  0.7186  0.0101  0.4500
   94SAPS   H8Y 9311   0.313   2.182   7.498  1.1732  0.1704  1.2006
   94SAPS   C39 9312   0.493   2.094   7.558 -0.1497  0.5166  0.2163
   94SAPS   H9X 9313   0.580   2.122   7.496 -0.0057  1.0587  0.6531
   94SAPS   H9Y 9314   0.515   1.991   7.593 -2.4849 -0.6364 -1.3750
   94SAPS  C310 9315   0.498   2.187   7.679 -0.1283 -0.1185 -1.1827
   94SAPS  H10X 9316   0.411   2.160   7.742  2.8155 -2.3787  2.3466
   94SAPS  H10Y 9317   0.486   2.294   7.653  2.2244  0.8127  1.1226
   94SAPS  C311 9318   0.623   2.150   7.756  0.0895  0.1135 -0.0386
   94SAPS  H11X 9319   0.715   2.186   7.705  0.2241 -0.5544 -0.2758
   94SAPS  H11Y 9320   0.632   2.040   7.771 -0.7170 -0.0861 -0.9554
   94SAPS  C312 9321   0.623   2.199   7.900 -0.6173  0.4410 -0.3476
   94SAPS  H12X 9322   0.572   2.123   7.964  0.7875  0.3695  0.7335
   94SAPS  H12Y 9323   0.561   2.291   7.904 -2.4474 -0.6930 -1.2916
   94SAPS  C313 9324   0.766   2.209   7.960  0.2486 -0.0172  0.1367
   94SAPS  H13X 9325   0.825   2.292   7.915 -0.3951  0.9222  0.9477
   94SAPS  H13Y 9326   0.810   2.110   7.936 -0.4862 -0.4771  0.6556
   94SAPS  C314 9327   0.762   2.214   8.113 -0.2750 -0.7392  0.2809
   94SAPS  H14X 9328   0.868   2.208   8.147 -0.3048 -0.2779  0.4661
   94SAPS  H14Y 9329   0.701   2.135   8.161 -0.5093 -0.5590  0.2836
   94SAPS  C315 9330   0.718   2.342   8.173  0.3731  0.0692  0.0454
   94SAPS  H15X 9331   0.608   2.348   8.159  0.4148 -0.2436 -0.4655
   94SAPS  H15Y 9332   0.757   2.430   8.118  0.3001 -1.0029 -1.7977
   94SAPS  C316 9333   0.747   2.343   8.324  0.0463  0.1995  0.6572
   94SAPS  H16X 9334   0.690   2.259   8.368  0.5170 -1.3399 -1.5335
   94SAPS  H16Y 9335   0.697   2.436   8.360  0.4693  0.0109  1.7487
   94SAPS  C317 9336   0.888   2.352   8.372  0.5145  0.4552  0.5259
   94SAPS  H17X 9337   0.933   2.258   8.332  0.2983  2.4300 -5.3864
   94SAPS  H17Y 9338   0.894   2.336   8.482 -3.0156  2.0176  1.0705
   94SAPS  C318 9339   0.966   2.469   8.323  0.2854 -0.6625 -0.1905
   94SAPS  H18X 9340   0.917   2.564   8.355 -0.9225 -2.1037  2.5761
   94SAPS  H18Y 9341   0.963   2.461   8.212 -0.9618 -1.6227 -0.1066
   94SAPS  H18Z 9342   1.075   2.469   8.347  0.2329  1.4022  0.2912
   95SAPS     N 9343   3.178   6.320   6.247  0.4831  0.1086  0.2201
   95SAPS   HN1 9344   3.255   6.388   6.265 -0.2033  0.7202  0.9236
   95SAPS   HN2 9345   3.094   6.351   6.301  0.4183 -1.9757  1.4370
   95SAPS   HN3 9346   3.211   6.234   6.295  3.3078  0.8951 -0.1325
   95SAPS   C12 9347   3.152   6.304   6.103  0.8564  0.7849  0.1283
   95SAPS  H12A 9348   3.111   6.394   6.060  0.5502  0.5729 -0.0248
   95SAPS   C13 9349   3.265   6.264   6.008 -0.3440  0.7888 -0.7003
   95SAPS  O13A 9350   3.377   6.234   6.061  0.4635  0.1662  0.0458
   95SAPS  O13B 9351   3.255   6.283   5.885  0.6152  0.7941 -0.3174
   95SAPS   C11 9352   3.030   6.204   6.077  0.4241 -0.1778 -0.2309
   95SAPS  H11A 9353   3.028   6.192   5.967  0.2282  1.2803 -0.4088
   95SAPS  H11B 9354   2.941   6.258   6.116  0.1903 -1.6084  1.3319
   95SAPS     P 9355   3.032   5.939   6.090  0.3794  0.2433  0.3981
   95SAPS   O13 9356   2.914   5.946   6.000 -0.3398  0.3663 -0.4607
   95SAPS   O14 9357   3.160   5.897   6.026 -0.3208 -0.0997 -0.2782
   95SAPS   O12 9358   3.046   6.088   6.156 -0.4439  0.3713  0.0642
   95SAPS   O11 9359   2.991   5.844   6.213 -0.0782  0.7670  0.6147
   95SAPS    C1 9360   2.894   5.898   6.301 -0.5042  0.1747 -0.7639
   95SAPS    HA 9361   2.840   5.989   6.268 -1.8019  0.0598  0.9006
   95SAPS    HB 9362   2.817   5.821   6.319 -0.0071  0.0313  0.9277
   95SAPS    C2 9363   2.964   5.941   6.436 -0.0385  0.4728  0.3054
   95SAPS    HS 9364   3.049   6.005   6.405 -2.7313  4.3212  0.2202
   95SAPS   O21 9365   3.012   5.838   6.520 -1.8510  0.0700 -0.5386
   95SAPS   C21 9366   3.133   5.788   6.487  0.3069  0.0226 -0.7567
   95SAPS   O22 9367   3.214   5.832   6.409  0.2687  0.0174  0.5329
   95SAPS   C22 9368   3.153   5.666   6.576 -0.6301  0.3669  0.0549
   95SAPS   H2R 9369   3.076   5.662   6.655  1.3244  0.5686  2.0684
   95SAPS   H2S 9370   3.144   5.572   6.517  2.9707 -0.9181  1.2962
   95SAPS    C3 9371   2.864   6.031   6.504  0.3025 -0.3144 -0.3509
   95SAPS    HX 9372   2.782   5.964   6.539 -0.8581  1.4610  0.5103
   95SAPS    HY 9373   2.807   6.103   6.441  0.5908  0.3455  0.1265
   95SAPS   O31 9374   2.932   6.112   6.605  0.3087  0.4980 -0.5913
   95SAPS   C31 9375   2.965   6.238   6.570  0.0650  0.1896  0.3462
   95SAPS   O32 9376   2.953   6.278   6.452 -0.0360 -0.4962 -0.3396
   95SAPS   C32 9377   3.014   6.310   6.690  0.2017  0.5532  0.2332
   95SAPS   H2X 9378   3.054   6.404   6.647  0.2876  0.5646  0.3365
   95SAPS   H2Y 9379   3.099   6.257   6.739 -1.1648 -2.1511 -0.1163
   95SAPS   C23 9380   3.299   5.664   6.637  0.8228  0.1248 -0.1138
   95SAPS   H3R 9381   3.366   5.707   6.559 -2.1631  1.1394 -2.3372
   95SAPS   H3S 9382   3.336   5.562   6.662 -1.5392 -0.6886  0.3113
   95SAPS   C24 9383   3.308   5.738   6.767  0.2908 -0.0163  0.2509
   95SAPS   H4R 9384   3.403   5.706   6.815  0.1830 -2.2418 -0.9060
   95SAPS   H4S 9385   3.224   5.697   6.829  0.7318 -1.8651 -0.3062
   95SAPS   C25 9386   3.302   5.884   6.742  0.1820 -0.5957 -0.3137
   95SAPS   H5R 9387   3.374   5.926   6.670  1.4206 -1.8820  0.1459
   95SAPS   C26 9388   3.227   5.983   6.809  0.0850 -0.0722  0.0278
   95SAPS   H6R 9389   3.235   6.087   6.774  1.7803 -0.1640  0.0745
   95SAPS   C27 9390   3.131   5.957   6.928  0.5214  0.6340 -0.7489
   95SAPS   H7R 9391   3.071   5.865   6.909  4.3110 -2.3148  0.2894
   95SAPS   H7S 9392   3.055   6.033   6.955  0.7291 -0.0602  2.0656
   95SAPS   C28 9393   3.206   5.930   7.064  0.3380 -0.1157 -0.1495
   95SAPS   H8R 9394   3.313   5.954   7.059  0.0210  1.1713 -1.4320
   95SAPS   C29 9395   3.160   5.882   7.180 -0.2180 -0.5517 -0.3476
   95SAPS   H9R 9396   3.218   5.870   7.272  0.4045 -1.7685 -0.8835
   95SAPS  C210 9397   3.024   5.824   7.208 -0.7059 -0.3785  0.7471
   95SAPS  H10R 9398   2.947   5.825   7.128 -2.7418 -0.3207  2.6088
   95SAPS  H10S 9399   2.978   5.900   7.274 -3.5205 -2.3520  1.2630
   95SAPS  C211 9400   3.024   5.677   7.257 -0.0730 -0.2237  0.0387
   95SAPS  H11R 9401   3.016   5.608   7.172  1.0253 -1.7992  1.1450
   95SAPS  C212 9402   3.054   5.627   7.378 -0.1117  0.6427  0.9116
   95SAPS  H12R 9403   3.042   5.520   7.397 -0.1540  0.4032 -0.3856
   95SAPS  C213 9404   3.078   5.721   7.490  0.4267 -0.8378  0.1268
   95SAPS  H13R 9405   3.172   5.776   7.473  0.1459  0.2103  1.7469
   95SAPS  H13S 9406   3.117   5.666   7.578  1.3672 -1.2060 -0.5133
   95SAPS  C214 9407   2.979   5.817   7.549  0.2897 -0.3845  0.1072
   95SAPS  H14R 9408   2.933   5.874   7.468 -0.5791 -1.7815 -0.4198
   95SAPS  C215 9409   2.946   5.850   7.677  0.2079 -0.3678  0.6319
   95SAPS  H15R 9410   2.858   5.913   7.699  0.3727 -0.1900  0.7867
   95SAPS  C216 9411   3.001   5.787   7.800 -0.2436  0.4498 -0.2573
   95SAPS  H16R 9412   3.111   5.769   7.798 -0.2425  0.0115  1.7594
   95SAPS  H16S 9413   2.959   5.685   7.813  0.4835  0.1623 -0.0978
   95SAPS  C217 9414   2.973   5.859   7.938  0.0366 -0.1630 -0.0576
   95SAPS  H17R 9415   2.868   5.826   7.955  0.0452 -0.9446 -1.3728
   95SAPS  H17S 9416   2.973   5.970   7.928 -1.4014 -0.0882  0.5781
   95SAPS  C218 9417   3.058   5.796   8.051 -0.3161 -0.6582  0.1346
   95SAPS  H18R 9418   3.164   5.823   8.033 -1.4970  3.5299 -1.7873
   95SAPS  H18S 9419   3.061   5.685   8.049  0.3241 -0.6804  1.4346
   95SAPS  C219 9420   3.016   5.858   8.185 -0.7281  0.7669  0.2273
   95SAPS  H19R 9421   2.909   5.832   8.199 -0.5372  0.9973  2.5237
   95SAPS  H19S 9422   3.013   5.968   8.172  0.5196  0.7864 -0.0600
   95SAPS  C220 9423   3.114   5.817   8.300  1.2672  0.5382 -0.5820
   95SAPS  H20R 9424   3.130   5.707   8.298  1.3970  0.5516 -2.6015
   95SAPS  H20S 9425   3.087   5.858   8.399  1.9982 -1.4524  0.4975
   95SAPS  H20T 9426   3.211   5.866   8.277  0.8361  1.3446 -0.7301
   95SAPS   C33 9427   2.905   6.333   6.804  0.4609 -0.7541 -0.5400
   95SAPS   H3X 9428   2.837   6.245   6.813 -1.3445  0.4895 -1.3745
   95SAPS   H3Y 9429   2.837   6.414   6.772  0.9415  0.4788  1.3900
   95SAPS   C34 9430   2.972   6.350   6.941  0.8889  0.0704 -0.5951
   95SAPS   H4X 9431   3.041   6.437   6.936  0.3019  0.5822  0.0810
   95SAPS   H4Y 9432   3.037   6.264   6.968 -1.2845 -1.3031  0.5339
   95SAPS   C35 9433   2.877   6.364   7.057 -0.4450 -0.0915 -1.0946
   95SAPS   H5X 9434   2.826   6.267   7.078 -1.6240  1.4181  4.3892
   95SAPS   H5Y 9435   2.798   6.427   7.010  1.5564  2.8790 -0.7410
   95SAPS   C36 9436   2.946   6.418   7.183 -0.6160 -0.1741 -0.1352
   95SAPS   H6X 9437   2.888   6.508   7.215 -1.4509 -1.1994  1.3633
   95SAPS   H6Y 9438   3.049   6.448   7.153 -1.8222  2.4323 -2.0831
   95SAPS   C37 9439   2.950   6.317   7.301  1.0110 -0.4990 -0.9666
   95SAPS   H7X 9440   3.047   6.262   7.296  0.5745 -1.7709  2.3521
   95SAPS   H7Y 9441   2.869   6.240   7.294  1.3814 -1.3243  2.3057
   95SAPS   C38 9442   2.937   6.381   7.442  0.1598 -0.1562  0.1335
   95SAPS   H8X 9443   2.840   6.434   7.445  0.1230 -0.2778  1.8195
   95SAPS   H8Y 9444   3.023   6.452   7.444  0.8933 -1.0384  1.6858
   95SAPS   C39 9445   2.955   6.282   7.559  0.5690  0.7140 -0.1413
   95SAPS   H9X 9446   3.051   6.227   7.547  0.3180  0.2330  0.0065
   95SAPS   H9Y 9447   2.873   6.210   7.540 -0.8931  2.6531 -1.5207
   95SAPS  C310 9448   2.958   6.337   7.696  0.1071  0.1492 -0.0371
   95SAPS  H10X 9449   2.879   6.410   7.722 -2.0170 -1.8673 -0.4718
   95SAPS  H10Y 9450   3.046   6.405   7.703 -0.4228  0.7527  0.8663
   95SAPS  C311 9451   2.967   6.236   7.816 -0.5828 -0.2376 -0.4041
   95SAPS  H11X 9452   3.048   6.163   7.796 -0.7032 -0.5426  0.1916
   95SAPS  H11Y 9453   2.875   6.181   7.846 -0.9091  0.4004 -0.2158
   95SAPS  C312 9454   3.014   6.311   7.940 -0.3690  0.3860 -0.7864
   95SAPS  H12X 9455   2.945   6.398   7.932 -1.5524 -0.6391 -2.1715
   95SAPS  H12Y 9456   3.118   6.346   7.924 -0.8791  2.4929  0.1415
   95SAPS  C313 9457   2.992   6.235   8.072 -0.5310 -0.0062  0.0047
   95SAPS  H13X 9458   3.071   6.157   8.066 -0.4245  0.1654 -1.0599
   95SAPS  H13Y 9459   2.898   6.177   8.072  0.3374 -1.4868  1.0710
   95SAPS  C314 9460   3.021   6.330   8.187 -0.4416 -0.6276 -0.0059
   95SAPS  H14X 9461   2.948   6.413   8.176 -0.6943 -1.0017 -1.2868
   95SAPS  H14Y 9462   3.127   6.364   8.189  0.1651 -1.9880 -3.0231
   95SAPS  C315 9463   2.990   6.263   8.321  0.1366  0.2144  0.3879
   95SAPS  H15X 9464   3.081   6.207   8.350 -0.8271 -0.4921  2.2235
   95SAPS  H15Y 9465   2.910   6.187   8.305 -0.1722  0.6170 -0.0170
   95SAPS  C316 9466   2.942   6.364   8.430 -0.5485 -0.0702  0.1601
   95SAPS  H16X 9467   2.928   6.300   8.520 -1.0703  1.2677  1.0786
   95SAPS  H16Y 9468   2.847   6.412   8.396  0.7169 -0.2942 -4.2264
   95SAPS  C317 9469   3.059   6.465   8.459 -0.1053  0.0488 -0.1159
   95SAPS  H17X 9470   3.078   6.530   8.370 -0.7475  0.2238 -0.1272
   95SAPS  H17Y 9471   3.149   6.400   8.464 -0.3032 -0.1650  0.8975
   95SAPS  C318 9472   3.038   6.545   8.588 -0.0945  0.6725  0.7746
   95SAPS  H18X 9473   3.032   6.483   8.680  1.3344 -0.6100  0.0421
   95SAPS  H18Y 9474   2.940   6.597   8.583 -1.1368 -1.2999 -1.6055
   95SAPS  H18Z 9475   3.123   6.616   8.600  0.3778  0.9465 -3.0385
   96SAPS     N 9476   4.072   1.501   6.457 -0.0641  0.7702  0.4584
   96SAPS   HN1 9477   4.168   1.474   6.487  0.0165  0.7042  0.1522
   96SAPS   HN2 9478   4.061   1.594   6.502  2.0976  0.6701  1.3505
   96SAPS   HN3 9479   4.009   1.425   6.489  1.5276 -0.8712 -0.0687
   96SAPS   C12 9480   4.072   1.527   6.314 -0.2336  0.3783 -0.3019
   96SAPS  H12A 9481   4.153   1.596   6.296 -1.0880  1.3705 -0.4508
   96SAPS   C13 9482   4.091   1.407   6.218  0.0005 -0.2017  0.3114
   96SAPS  O13A 9483   4.072   1.291   6.261 -0.5870 -0.5804 -0.0928
   96SAPS  O13B 9484   4.105   1.438   6.095 -0.0519 -0.1952  0.3754
   96SAPS   C11 9485   3.932   1.593   6.274 -0.1965 -0.4379 -0.4470
   96SAPS  H11A 9486   3.857   1.515   6.298 -1.5820  1.1108  0.3950
   96SAPS  H11B 9487   3.932   1.609   6.164 -1.4096 -1.0771 -0.5520
   96SAPS     P 9488   3.887   1.847   6.302  0.3876 -0.2354 -0.8685
   96SAPS   O13 9489   4.024   1.905   6.298  0.4751  0.4054 -0.5597
   96SAPS   O14 9490   3.804   1.854   6.178 -0.3129 -0.0725 -0.0584
   96SAPS   O12 9491   3.894   1.697   6.357  0.1924 -0.2576  0.3406
   96SAPS   O11 9492   3.801   1.918   6.410 -0.1628 -0.2823 -0.1170
   96SAPS    C1 9493   3.809   1.900   6.553  0.1595  0.2566 -0.6189
   96SAPS    HA 9494   3.703   1.901   6.586 -0.1045 -0.0561 -1.4174
   96SAPS    HB 9495   3.856   1.803   6.581  1.7642  1.2391  0.2784
   96SAPS    C2 9496   3.869   2.021   6.637  0.0516 -0.4941 -0.0918
   96SAPS    HS 9497   3.978   2.023   6.612 -0.2704  1.2892 -1.5709
   96SAPS   O21 9498   3.835   2.001   6.775 -0.0613  0.3730 -0.1506
   96SAPS   C21 9499   3.926   1.957   6.852  0.2242  0.6851  0.5095
   96SAPS   O22 9500   4.042   1.923   6.823  0.2712 -0.5825 -0.0214
   96SAPS   C22 9501   3.876   1.963   6.991 -0.0175  0.0096  0.0571
   96SAPS   H2R 9502   3.853   2.065   7.026  0.6146  0.2549 -0.2245
   96SAPS   H2S 9503   3.779   1.909   6.987 -0.9235  1.5749 -4.4559
   96SAPS    C3 9504   3.814   2.158   6.591  0.0693  0.5128 -0.1279
   96SAPS    HX 9505   3.703   2.146   6.593  0.2435 -1.3126  1.4985
   96SAPS    HY 9506   3.833   2.185   6.485  0.4216  2.2190  0.3421
   96SAPS   O31 9507   3.851   2.264   6.682  0.0609  0.2403 -0.0959
   96SAPS   C31 9508   3.782   2.380   6.659  0.2589  0.2149  0.1189
   96SAPS   O32 9509   3.690   2.396   6.578 -0.2273 -0.2782 -0.0948
   96SAPS   C32 9510   3.834   2.479   6.758 -0.6948  0.3039 -0.0543
   96SAPS   H2X 9511   3.756   2.551   6.793 -0.0122  0.4906  1.1301
   96SAPS   H2Y 9512   3.897   2.550   6.700  0.2385 -0.8616 -0.4940
   96SAPS   C23 9513   3.978   1.900   7.093 -0.3745  0.3492 -0.1803
   96SAPS   H3R 9514   4.054   1.980   7.102 -1.0934  0.9859  0.3614
   96SAPS   H3S 9515   4.031   1.806   7.067 -2.2470 -0.9073  0.3379
   96SAPS   C24 9516   3.912   1.889   7.231 -0.3301  0.4626 -0.3661
   96SAPS   H4R 9517   3.862   1.985   7.257  1.5124  1.4025 -0.0284
   96SAPS   H4S 9518   4.000   1.883   7.299 -0.5879 -0.8316 -0.1341
   96SAPS   C25 9519   3.826   1.766   7.243  0.0166  0.0970  0.2373
   96SAPS   H5R 9520   3.782   1.736   7.147 -1.1584 -0.0316  0.8052
   96SAPS   C26 9521   3.782   1.713   7.359  0.2038  0.0495 -0.7207
   96SAPS   H6R 9522   3.702   1.638   7.368  0.0470  0.4810  2.5531
   96SAPS   C27 9523   3.820   1.765   7.493 -0.3124 -0.2798  0.7171
   96SAPS   H7R 9524   3.727   1.783   7.551  1.2170  4.4665  2.1661
   96SAPS   H7S 9525   3.874   1.861   7.487 -0.7891 -0.0899 -3.3149
   96SAPS   C28 9526   3.894   1.662   7.563 -0.5868  0.2033 -0.7077
   96SAPS   H8R 9527   3.923   1.576   7.500  0.0104  0.2994 -0.5677
   96SAPS   C29 9528   3.945   1.675   7.689 -0.6716 -0.2576 -0.3809
   96SAPS   H9R 9529   4.008   1.600   7.739  0.9595  2.1227  1.3768
   96SAPS  C210 9530   3.927   1.802   7.776 -0.2000  0.1787  0.4116
   96SAPS  H10R 9531   3.923   1.897   7.719  3.4735  1.8194  2.5047
   96SAPS  H10S 9532   4.014   1.823   7.842 -0.8040 -0.1184  1.3149
   96SAPS  C211 9533   3.808   1.782   7.861  0.1760  0.0584 -0.3645
   96SAPS  H11R 9534   3.719   1.736   7.814 -0.1046  0.1497  0.0680
   96SAPS  C212 9535   3.789   1.802   7.991  0.3859  0.8891  0.0541
   96SAPS  H12R 9536   3.699   1.775   8.049  0.3589  1.6936  0.4055
   96SAPS  C213 9537   3.898   1.865   8.077 -0.0505 -1.0190  0.3398
   96SAPS  H13R 9538   3.857   1.952   8.134 -1.0131 -0.0273 -1.7459
   96SAPS  H13S 9539   3.976   1.917   8.017 -1.5815  0.6651 -0.3049
   96SAPS  C214 9540   3.964   1.760   8.160 -0.0995 -0.6327  1.0094
   96SAPS  H14R 9541   3.999   1.674   8.101  0.6497  0.4312 -0.1704
   96SAPS  C215 9542   3.976   1.761   8.289  0.2855 -0.2789  0.1933
   96SAPS  H15R 9543   4.014   1.671   8.340 -1.3463 -0.8239  0.5175
   96SAPS  C216 9544   3.932   1.864   8.386 -0.4591  0.0454 -0.3571
   96SAPS  H16R 9545   3.899   1.962   8.344  0.5680  1.5052  1.9741
   96SAPS  H16S 9546   4.025   1.889   8.442 -1.9409 -0.7113  2.6197
   96SAPS  C217 9547   3.833   1.823   8.494  0.0216 -0.5940  0.3375
   96SAPS  H17R 9548   3.858   1.720   8.527  1.4300 -0.1260  0.7965
   96SAPS  H17S 9549   3.728   1.821   8.456 -0.1130  1.6054  0.4351
   96SAPS  C218 9550   3.816   1.924   8.612 -0.3216  0.4532 -0.0986
   96SAPS  H18R 9551   3.773   2.018   8.572  2.3008  0.7944 -2.4061
   96SAPS  H18S 9552   3.915   1.938   8.661  0.9086  0.9645 -2.5956
   96SAPS  C219 9553   3.718   1.857   8.707 -0.1359 -0.2051 -0.2682
   96SAPS  H19R 9554   3.760   1.770   8.762 -3.1345 -0.6367  1.6013
   96SAPS  H19S 9555   3.633   1.804   8.658 -1.2229  0.8449  0.4202
   96SAPS  C220 9556   3.634   1.949   8.794 -0.3549 -0.2831 -0.9599
   96SAPS  H20R 9557   3.546   1.995   8.745 -2.3581 -0.9380  1.7510
   96SAPS  H20S 9558   3.692   2.021   8.856 -0.7835  2.9857 -4.0449
   96SAPS  H20T 9559   3.591   1.880   8.869 -1.2986  0.3016 -0.9486
   96SAPS   C33 9560   3.913   2.439   6.883  0.2224 -0.1991  0.5245
   96SAPS   H3X 9561   3.980   2.525   6.903 -0.4066  0.9909 -2.0561
   96SAPS   H3Y 9562   3.984   2.356   6.862  1.9627  1.2115  0.5597
   96SAPS   C34 9563   3.826   2.393   7.002  0.0699 -0.0011 -0.1767
   96SAPS   H4X 9564   3.771   2.302   6.968  0.9730 -0.6408  0.0345
   96SAPS   H4Y 9565   3.758   2.480   7.011 -1.5720 -1.2576  0.1060
   96SAPS   C35 9566   3.904   2.374   7.138  0.5143  0.0052  0.4976
   96SAPS   H5X 9567   3.979   2.454   7.154  1.8243 -1.4115  1.8618
   96SAPS   H5Y 9568   3.964   2.281   7.130 -0.2548 -0.3495 -1.6376
   96SAPS   C36 9569   3.808   2.384   7.261 -0.3373 -0.0975 -0.5368
   96SAPS   H6X 9570   3.722   2.315   7.252  0.2393 -0.6002 -2.9714
   96SAPS   H6Y 9571   3.769   2.482   7.293  0.2507 -1.1158  3.9265
   96SAPS   C37 9572   3.883   2.345   7.392  0.9174 -0.3098  0.0153
   96SAPS   H7X 9573   3.949   2.429   7.422 -2.9224  2.5400  1.1792
   96SAPS   H7Y 9574   3.927   2.243   7.380 -0.2040 -0.5567 -2.5409
   96SAPS   C38 9575   3.800   2.339   7.522  0.0919  0.6308  0.5135
   96SAPS   H8X 9576   3.873   2.325   7.604  1.9157 -0.3020 -1.1835
   96SAPS   H8Y 9577   3.746   2.242   7.519  1.4815 -0.2819  2.6783
   96SAPS   C39 9578   3.704   2.444   7.548 -0.0665 -1.2102 -0.0390
   96SAPS   H9X 9579   3.638   2.412   7.631  0.0394 -0.8568  0.1829
   96SAPS   H9Y 9580   3.638   2.464   7.460 -1.1545 -1.6034  0.6685
   96SAPS  C310 9581   3.758   2.588   7.572 -0.6745 -0.4658 -0.0416
   96SAPS  H10X 9582   3.826   2.612   7.487  1.9733  1.3382  2.3954
   96SAPS  H10Y 9583   3.830   2.578   7.657  0.5317  1.2450 -0.8176
   96SAPS  C311 9584   3.650   2.699   7.594  0.1274 -0.2667 -0.2108
   96SAPS  H11X 9585   3.577   2.697   7.678  0.7824  0.6534  0.4082
   96SAPS  H11Y 9586   3.584   2.708   7.505 -0.2888  3.2632  0.3031
   96SAPS  C312 9587   3.700   2.836   7.620  0.3528  0.3022 -0.0688
   96SAPS  H12X 9588   3.782   2.859   7.548  0.3534  0.3365 -0.0568
   96SAPS  H12Y 9589   3.744   2.829   7.722  1.9083 -0.1632 -0.7379
   96SAPS  C313 9590   3.604   2.958   7.600 -0.5810 -0.0174 -0.3084
   96SAPS  H13X 9591   3.561   2.950   7.498  0.2543 -0.2539 -0.6430
   96SAPS  H13Y 9592   3.659   3.053   7.611  0.3403 -0.3554 -1.7389
   96SAPS  C314 9593   3.485   2.953   7.696 -0.2602 -0.2612  0.3267
   96SAPS  H14X 9594   3.434   2.855   7.688 -0.4975 -0.0539 -0.9109
   96SAPS  H14Y 9595   3.421   3.039   7.667  1.5582  1.1456  0.2456
   96SAPS  C315 9596   3.530   2.957   7.847 -0.1641 -0.6344 -0.9778
   96SAPS  H15X 9597   3.587   3.049   7.874 -1.8844  0.4570 -0.9258
   96SAPS  H15Y 9598   3.594   2.867   7.863  0.3033  0.2258  2.9468
   96SAPS  C316 9599   3.410   2.951   7.944  0.2912  0.5938 -0.2233
   96SAPS  H16X 9600   3.339   2.876   7.903 -0.2619 -0.0319  1.7309
   96SAPS  H16Y 9601   3.343   3.039   7.932  0.0778  0.2278 -1.9479
   96SAPS  C317 9602   3.452   2.927   8.092  0.6106 -0.2762 -0.3612
   96SAPS  H17X 9603   3.547   2.870   8.101 -0.0171 -1.1591  1.3603
   96SAPS  H17Y 9604   3.391   2.844   8.135 -1.2521  0.5753 -1.2265
   96SAPS  C318 9605   3.463   3.052   8.182  0.6719 -0.0246  0.1407
   96SAPS  H18X 9606   3.526   3.136   8.147 -0.1227  1.4159  2.0272
   96SAPS  H18Y 9607   3.515   3.020   8.275  1.9345  2.6161  0.4222
   96SAPS  H18Z 9608   3.357   3.075   8.208 -0.0103 -3.0643  0.5306
   97SAPS     N 9609   3.667   6.769   6.265  0.5128  0.2217  0.7058
   97SAPS   HN1 9610   3.680   6.707   6.347 -0.3971 -1.6245 -0.4750
   97SAPS   HN2 9611   3.584   6.827   6.287  0.7912  0.0650  2.2773
   97SAPS   HN3 9612   3.655   6.705   6.184  2.9174 -3.2070  2.7868
   97SAPS   C12 9613   3.772   6.859   6.226  0.1033  0.4499  0.0209
   97SAPS  H12A 9614   3.853   6.793   6.198 -0.8971 -0.3460 -1.1015
   97SAPS   C13 9615   3.753   6.952   6.107  0.9175 -0.1594 -0.0839
   97SAPS  O13A 9616   3.650   6.938   6.031 -0.1102  0.6572  0.0904
   97SAPS  O13B 9617   3.845   7.037   6.081  0.1754 -0.6123 -0.2737
   97SAPS   C11 9618   3.811   6.939   6.355  0.2140 -0.6505 -0.6789
   97SAPS  H11A 9619   3.874   7.029   6.334  0.2576 -0.2334  1.1082
   97SAPS  H11B 9620   3.871   6.877   6.426 -0.5040  1.4563  1.9440
   97SAPS     P 9621   3.718   7.085   6.554 -0.3877  0.1265 -0.1655
   97SAPS   O13 9622   3.805   7.198   6.520 -0.2932 -0.0327 -0.2524
   97SAPS   O14 9623   3.588   7.119   6.612  0.1227  0.2474 -0.5681
   97SAPS   O12 9624   3.698   6.989   6.431 -0.2563  0.2725  0.2168
   97SAPS   O11 9625   3.798   6.992   6.657 -0.4028  0.0922 -0.1004
   97SAPS    C1 9626   3.735   6.872   6.705  0.1524  0.1681 -0.6969
   97SAPS    HA 9627   3.639   6.902   6.753 -0.0593 -0.0265 -0.9999
   97SAPS    HB 9628   3.713   6.806   6.619 -0.9094 -1.8261  0.9935
   97SAPS    C2 9629   3.833   6.796   6.800 -0.3803 -0.4541  0.2897
   97SAPS    HS 9630   3.773   6.704   6.817 -0.8881 -0.3594 -0.8848
   97SAPS   O21 9631   3.858   6.869   6.919  0.2425 -0.2162 -0.0141
   97SAPS   C21 9632   3.756   6.853   7.005 -0.3131  0.8898  0.3505
   97SAPS   O22 9633   3.650   6.804   6.979  0.0012 -0.1206 -0.3299
   97SAPS   C22 9634   3.775   6.934   7.132 -0.9847 -0.1508 -0.6367
   97SAPS   H2R 9635   3.746   7.038   7.108  2.3091  0.8471 -0.7847
   97SAPS   H2S 9636   3.719   6.894   7.219  0.7432  0.0821  0.6454
   97SAPS    C3 9637   3.963   6.761   6.738 -0.2940 -0.1337 -0.1876
   97SAPS    HX 9638   4.001   6.864   6.719 -2.7548  1.4195  2.5881
   97SAPS    HY 9639   3.954   6.726   6.633 -0.6400 -0.8311  0.0694
   97SAPS   O31 9640   4.051   6.684   6.825 -0.3861  0.0696  0.3869
   97SAPS   C31 9641   4.036   6.557   6.803  0.0455 -0.3981 -0.1475
   97SAPS   O32 9642   3.968   6.512   6.707 -0.7075  0.0805  0.3864
   97SAPS   C32 9643   4.119   6.477   6.901  0.1560 -0.8804  0.4036
   97SAPS   H2X 9644   4.213   6.525   6.936 -0.9154  1.1802  0.5932
   97SAPS   H2Y 9645   4.145   6.388   6.839  1.6679  1.8162 -3.2489
   97SAPS   C23 9646   3.926   6.942   7.175  0.3358  0.1855 -0.4928
   97SAPS   H3R 9647   3.913   7.004   7.267 -0.3106  3.1199 -2.4476
   97SAPS   H3S 9648   3.982   7.005   7.103 -0.3042 -2.2066 -3.2940
   97SAPS   C24 9649   3.991   6.810   7.209 -0.1609  0.3525  0.0463
   97SAPS   H4R 9650   4.068   6.843   7.282  0.4983 -3.1703  1.1276
   97SAPS   H4S 9651   4.051   6.777   7.121 -1.9650  0.5725 -1.3199
   97SAPS   C25 9652   3.908   6.696   7.264  0.4791 -0.4909  1.1324
   97SAPS   H5R 9653   3.873   6.633   7.181 -1.6242  0.1721  1.4369
   97SAPS   C26 9654   3.886   6.651   7.389 -0.3793 -0.3408  0.0356
   97SAPS   H6R 9655   3.832   6.556   7.397 -0.5324 -0.7766 -3.9662
   97SAPS   C27 9656   3.929   6.710   7.524 -0.0657 -0.4996  0.6789
   97SAPS   H7R 9657   4.021   6.650   7.538  1.4447  1.5643  0.1153
   97SAPS   H7S 9658   3.877   6.660   7.608  1.7687  0.7021  2.6190
   97SAPS   C28 9659   3.943   6.856   7.555 -0.5026 -0.1549  0.0086
   97SAPS   H8R 9660   3.964   6.924   7.471  0.5243  0.5000  0.7730
   97SAPS   C29 9661   3.922   6.920   7.675 -0.8322  0.4060  0.6239
   97SAPS   H9R 9662   3.955   7.025   7.678 -1.4150  0.7344 -2.0432
   97SAPS  C210 9663   3.886   6.853   7.807  0.0746 -0.3109  0.6926
   97SAPS  H10R 9664   3.784   6.808   7.802 -0.8280  1.7035 -1.0167
   97SAPS  H10S 9665   3.879   6.939   7.877  0.8933 -0.4538  0.9584
   97SAPS  C211 9666   3.982   6.754   7.861 -0.9382 -0.7326 -0.3550
   97SAPS  H11R 9667   4.072   6.748   7.798 -1.6875  1.5120 -1.7500
   97SAPS  C212 9668   3.973   6.684   7.977 -0.9131 -0.1957 -0.1786
   97SAPS  H12R 9669   4.052   6.619   8.018 -1.2928 -0.5186  0.0426
   97SAPS  C213 9670   3.858   6.699   8.081 -0.7174  0.1340 -0.4384
   97SAPS  H13R 9671   3.806   6.796   8.067 -1.2961  0.2164  1.8242
   97SAPS  H13S 9672   3.891   6.703   8.187 -1.1266  0.2862 -0.3117
   97SAPS  C214 9673   3.763   6.582   8.060 -0.1291 -0.1716  0.1530
   97SAPS  H14R 9674   3.751   6.558   7.953 -0.3695  0.8300 -0.0546
   97SAPS  C215 9675   3.702   6.504   8.156 -0.7063 -0.0509  0.2563
   97SAPS  H15R 9676   3.615   6.440   8.135 -0.5277  0.4208 -2.2659
   97SAPS  C216 9677   3.714   6.525   8.307  0.0575 -0.6718 -0.3792
   97SAPS  H16R 9678   3.614   6.531   8.355  0.1500  1.7307 -0.3705
   97SAPS  H16S 9679   3.764   6.621   8.331 -1.0638  0.4955 -2.3969
   97SAPS  C217 9680   3.789   6.417   8.377  0.4897 -0.3867  0.5377
   97SAPS  H17R 9681   3.871   6.377   8.313  0.6458 -0.1494  0.5877
   97SAPS  H17S 9682   3.711   6.338   8.385 -1.7386  1.7556  0.7697
   97SAPS  C218 9683   3.849   6.455   8.516 -0.0746  0.1961  0.1056
   97SAPS  H18R 9684   3.946   6.505   8.494  0.4606 -0.7668  0.2127
   97SAPS  H18S 9685   3.887   6.366   8.572 -1.6546 -0.8366 -0.3824
   97SAPS  C219 9686   3.764   6.548   8.594 -0.5643 -0.0506  0.1014
   97SAPS  H19R 9687   3.720   6.631   8.533  1.1264  0.4819 -0.4480
   97SAPS  H19S 9688   3.836   6.604   8.658  0.6387 -0.0839 -1.1702
   97SAPS  C220 9689   3.648   6.496   8.674  0.2930 -0.8747 -0.3714
   97SAPS  H20R 9690   3.608   6.573   8.743  0.1240 -0.6157 -0.7521
   97SAPS  H20S 9691   3.681   6.404   8.726 -0.5273 -0.8744  0.1645
   97SAPS  H20T 9692   3.574   6.463   8.597  0.4684 -2.3298  0.0591
   97SAPS   C33 9693   4.038   6.446   7.030  0.6059  0.4421 -0.5685
   97SAPS   H3X 9694   3.935   6.405   7.019 -0.8161  2.1121  4.0546
   97SAPS   H3Y 9695   4.039   6.539   7.091  0.2130 -0.1786  0.4213
   97SAPS   C34 9696   4.115   6.348   7.118 -0.0214  0.3774  0.3168
   97SAPS   H4X 9697   4.064   6.331   7.215 -1.0012  2.9824  0.3560
   97SAPS   H4Y 9698   4.221   6.378   7.137  0.7369 -1.5780 -0.5684
   97SAPS   C35 9699   4.112   6.206   7.058  0.1081  0.2327  0.0586
   97SAPS   H5X 9700   4.134   6.214   6.950 -0.3467 -0.3466 -0.0793
   97SAPS   H5Y 9701   4.012   6.158   7.053 -0.3902  0.9778  1.8867
   97SAPS   C36 9702   4.211   6.099   7.122  0.1927  0.3043 -0.0907
   97SAPS   H6X 9703   4.283   6.160   7.182  0.5550  0.1763 -0.3905
   97SAPS   H6Y 9704   4.264   6.064   7.031  0.0349  1.2042 -0.5358
   97SAPS   C37 9705   4.153   5.994   7.223  0.2466 -0.3291  0.8182
   97SAPS   H7X 9706   4.225   5.913   7.246  0.8753  0.0857  0.3566
   97SAPS   H7Y 9707   4.061   5.956   7.174  0.4739 -1.5656  1.3167
   97SAPS   C38 9708   4.102   6.059   7.354 -0.2052 -0.1755  0.1807
   97SAPS   H8X 9709   4.060   5.970   7.406  1.7192 -2.2526 -1.6771
   97SAPS   H8Y 9710   4.017   6.129   7.338  1.0354  1.5321  0.8232
   97SAPS   C39 9711   4.216   6.124   7.443  0.5852  0.0765  0.0341
   97SAPS   H9X 9712   4.268   6.205   7.388  1.0970 -0.8171 -0.8180
   97SAPS   H9Y 9713   4.297   6.049   7.462  0.9502  0.2437 -0.8090
   97SAPS  C310 9714   4.162   6.165   7.577 -0.1818 -0.1779 -0.2612
   97SAPS  H10X 9715   4.076   6.235   7.568  0.1906  0.5281  1.3675
   97SAPS  H10Y 9716   4.245   6.218   7.629 -0.1920  0.1480 -0.5704
   97SAPS  C311 9717   4.117   6.048   7.662 -0.3932  0.5311  0.7393
   97SAPS  H11X 9718   4.206   5.982   7.669 -0.4060  0.5714  1.3536
   97SAPS  H11Y 9719   4.039   5.983   7.616  1.4664 -1.1759 -0.1732
   97SAPS  C312 9720   4.078   6.092   7.807  0.3961  0.5603 -0.0827
   97SAPS  H12X 9721   4.036   6.001   7.857 -0.5907  0.2520 -1.4045
   97SAPS  H12Y 9722   4.000   6.171   7.801  0.3711  0.6137  0.7348
   97SAPS  C313 9723   4.195   6.156   7.891 -0.7451  0.5399  1.1114
   97SAPS  H13X 9724   4.206   6.258   7.848 -0.2158  0.6605  1.5172
   97SAPS  H13Y 9725   4.286   6.093   7.881 -0.1559  1.2168  2.0894
   97SAPS  C314 9726   4.172   6.164   8.044 -0.4659 -0.4339  0.1526
   97SAPS  H14X 9727   4.138   6.067   8.084 -0.7546 -1.5475 -2.5718
   97SAPS  H14Y 9728   4.083   6.231   8.052  1.3730  1.9001  3.0454
   97SAPS  C315 9729   4.285   6.234   8.120 -0.4625  0.4682 -0.2967
   97SAPS  H15X 9730   4.323   6.310   8.049  0.5446  1.0713  0.8583
   97SAPS  H15Y 9731   4.372   6.166   8.133 -0.5600  0.3586 -0.2103
   97SAPS  C316 9732   4.242   6.294   8.247  0.0799  0.7869 -0.3505
   97SAPS  H16X 9733   4.145   6.347   8.234 -0.6676  0.3508  2.5846
   97SAPS  H16Y 9734   4.320   6.371   8.268 -0.4457  0.7549  2.0403
   97SAPS  C317 9735   4.249   6.205   8.374 -0.4274  0.5528  0.6018
   97SAPS  H17X 9736   4.350   6.159   8.366 -0.1682  1.3627 -1.4552
   97SAPS  H17Y 9737   4.177   6.121   8.365  0.5121 -0.4670  2.1289
   97SAPS  C318 9738   4.230   6.286   8.495  0.2334  0.6252 -0.1198
   97SAPS  H18X 9739   4.135   6.343   8.500 -0.3477 -0.3090 -0.1811
   97SAPS  H18Y 9740   4.308   6.364   8.489  1.0201 -0.0292  1.2108
   97SAPS  H18Z 9741   4.238   6.218   8.583  1.2537  2.2586  1.1082
   98SAPS     N 9742   2.495   6.227   5.794 -0.1265  0.3998  0.1762
   98SAPS   HN1 9743   2.508   6.155   5.868 -0.3910  0.0884 -0.0788
   98SAPS   HN2 9744   2.404   6.213   5.746  0.5172 -0.8885 -0.7246
   98SAPS   HN3 9745   2.564   6.225   5.716 -1.4692  0.6989 -1.0507
   98SAPS   C12 9746   2.497   6.360   5.864  0.2384  0.7185 -0.5044
   98SAPS  H12A 9747   2.596   6.377   5.905  0.0005 -0.6907  0.7007
   98SAPS   C13 9748   2.458   6.479   5.767 -0.2771 -0.1508  0.0034
   98SAPS  O13A 9749   2.442   6.468   5.641 -0.1204  0.2036 -0.4301
   98SAPS  O13B 9750   2.468   6.598   5.815  0.4815 -0.5466  0.1700
   98SAPS   C11 9751   2.398   6.354   5.980  0.1480  0.2629  0.0936
   98SAPS  H11A 9752   2.298   6.362   5.932  0.7221  3.5713 -0.7543
   98SAPS  H11B 9753   2.418   6.447   6.037  1.1406  0.0104  0.1662
   98SAPS     P 9754   2.322   6.235   6.190  0.0303 -0.0718  0.1339
   98SAPS   O13 9755   2.186   6.217   6.140 -0.4878  0.0104 -0.0829
   98SAPS   O14 9756   2.377   6.132   6.277  0.5572  1.0194 -0.1614
   98SAPS   O12 9757   2.418   6.242   6.063 -0.2615 -0.1114 -0.3508
   98SAPS   O11 9758   2.348   6.369   6.265  0.2504  0.3348 -0.5878
   98SAPS    C1 9759   2.469   6.412   6.326 -0.4762 -0.1941 -0.5630
   98SAPS    HA 9760   2.545   6.331   6.318  1.5340  1.5870 -0.4545
   98SAPS    HB 9761   2.515   6.500   6.277  1.7133  0.3865  2.2860
   98SAPS    C2 9762   2.469   6.427   6.475  0.2963  0.1245  0.5521
   98SAPS    HS 9763   2.575   6.414   6.509  0.2076 -2.0587  0.1774
   98SAPS   O21 9764   2.378   6.335   6.535 -0.2745 -0.2572 -0.1368
   98SAPS   C21 9765   2.432   6.231   6.598 -0.7285  0.2568 -0.1581
   98SAPS   O22 9766   2.550   6.201   6.607  0.0554  0.8293 -0.1101
   98SAPS   C22 9767   2.317   6.156   6.673 -0.5584  0.1649 -0.1687
   98SAPS   H2R 9768   2.221   6.207   6.649 -1.1968 -1.5351 -1.3606
   98SAPS   H2S 9769   2.314   6.055   6.627  1.6619 -1.0172  2.0184
   98SAPS    C3 9770   2.419   6.563   6.517 -0.7888 -0.4167  0.1515
   98SAPS    HX 9771   2.314   6.579   6.483 -1.2974 -1.6117  1.0862
   98SAPS    HY 9772   2.478   6.642   6.466 -1.6328 -0.7176 -1.3709
   98SAPS   O31 9773   2.425   6.580   6.660  0.4506  0.1637  0.0241
   98SAPS   C31 9774   2.383   6.694   6.710  0.2657 -0.4872  0.7135
   98SAPS   O32 9775   2.308   6.765   6.651  0.2073 -0.4693  0.2661
   98SAPS   C32 9776   2.444   6.706   6.856 -0.3866  0.3871  0.7776
   98SAPS   H2X 9777   2.468   6.811   6.883  1.6706  0.2280 -0.2782
   98SAPS   H2Y 9778   2.543   6.656   6.857  1.0849  3.0074 -0.8841
   98SAPS   C23 9779   2.348   6.140   6.822 -0.4763 -0.4044 -0.1524
   98SAPS   H3R 9780   2.352   6.238   6.874 -2.0093 -0.8034  0.7638
   98SAPS   H3S 9781   2.451   6.099   6.835  0.4857  1.7874 -0.3006
   98SAPS   C24 9782   2.245   6.054   6.892 -0.2634  0.5906 -0.6795
   98SAPS   H4R 9783   2.200   5.972   6.832  1.0635  0.6982 -1.8753
   98SAPS   H4S 9784   2.161   6.121   6.922 -0.7399 -0.7934  1.2492
   98SAPS   C25 9785   2.303   5.975   7.006 -0.1982  0.5611 -0.1010
   98SAPS   H5R 9786   2.376   5.906   6.962  0.2709  0.8404  0.2333
   98SAPS   C26 9787   2.287   5.990   7.141  0.3083  0.0755  0.5617
   98SAPS   H6R 9788   2.350   5.921   7.200 -1.4441 -1.4577  0.7398
   98SAPS   C27 9789   2.206   6.081   7.225 -0.0006 -0.6277  0.2082
   98SAPS   H7R 9790   2.193   6.038   7.327  2.0930 -0.8909  0.4082
   98SAPS   H7S 9791   2.102   6.084   7.186  0.7940  0.9178 -1.9672
   98SAPS   C28 9792   2.268   6.216   7.252 -0.5117 -0.2668 -0.4484
   98SAPS   H8R 9793   2.288   6.281   7.165  1.8640  2.1984  1.7232
   98SAPS   C29 9794   2.309   6.271   7.368  0.6555 -0.1435  0.2228
   98SAPS   H9R 9795   2.335   6.377   7.367 -3.0104  0.8829 -0.7728
   98SAPS  C210 9796   2.293   6.210   7.505 -0.2039  0.2172 -0.2638
   98SAPS  H10R 9797   2.367   6.267   7.565  0.1064 -1.6736  1.2878
   98SAPS  H10S 9798   2.335   6.107   7.505 -1.1167 -0.1629 -1.3424
   98SAPS  C211 9799   2.160   6.214   7.561  0.2800  0.1822  0.0108
   98SAPS  H11R 9800   2.078   6.239   7.492  0.3429  0.9419  0.2054
   98SAPS  C212 9801   2.133   6.198   7.691 -0.2236  0.4674 -0.4152
   98SAPS  H12R 9802   2.028   6.185   7.724  1.1173 -3.0681  3.4225
   98SAPS  C213 9803   2.225   6.164   7.804 -0.4761  0.2840 -0.2112
   98SAPS  H13R 9804   2.329   6.156   7.766 -0.2459 -2.7763  0.7994
   98SAPS  H13S 9805   2.200   6.058   7.828 -1.9730  0.9110  1.1399
   98SAPS  C214 9806   2.221   6.256   7.925 -0.1887  0.0571 -0.4264
   98SAPS  H14R 9807   2.276   6.349   7.903 -1.6380  1.0485  0.0272
   98SAPS  C215 9808   2.159   6.227   8.039 -0.2919  0.2919 -0.2413
   98SAPS  H15R 9809   2.173   6.297   8.123 -1.4161  0.3469 -0.0905
   98SAPS  C216 9810   2.086   6.100   8.079 -0.2304  0.1879 -0.7786
   98SAPS  H16R 9811   2.078   6.032   7.992  0.1966  1.0956 -1.5365
   98SAPS  H16S 9812   1.980   6.124   8.104  0.1250  1.5951 -0.5702
   98SAPS  C217 9813   2.142   6.033   8.203 -0.4390  0.7286  0.3554
   98SAPS  H17R 9814   2.242   5.994   8.174 -0.7259 -0.0563  0.4215
   98SAPS  H17S 9815   2.085   5.939   8.214  0.3825 -0.2151 -2.4645
   98SAPS  C218 9816   2.152   6.103   8.332 -0.1237 -0.0183  0.3208
   98SAPS  H18R 9817   2.053   6.134   8.370 -0.8620 -0.1226 -1.4193
   98SAPS  H18S 9818   2.221   6.190   8.327  1.1852 -1.0557 -0.5756
   98SAPS  C219 9819   2.212   6.005   8.434 -0.2395 -0.6372 -1.3213
   98SAPS  H19R 9820   2.317   5.985   8.404 -0.1538 -0.7952 -0.9301
   98SAPS  H19S 9821   2.153   5.911   8.426 -0.3101 -0.5640 -1.6656
   98SAPS  C220 9822   2.212   6.060   8.576  0.3150  0.3544 -0.4229
   98SAPS  H20R 9823   2.265   6.158   8.582 -0.6744  0.8068  2.2674
   98SAPS  H20S 9824   2.262   5.999   8.655  2.6473  3.1262  0.3981
   98SAPS  H20T 9825   2.109   6.078   8.613  0.6380  1.5929 -0.0821
   98SAPS   C33 9826   2.340   6.645   6.955  0.6413 -0.1865  1.2991
   98SAPS   H3X 9827   2.337   6.534   6.954  0.6248 -0.1842  1.0304
   98SAPS   H3Y 9828   2.245   6.680   6.910  0.7436 -3.2689 -1.7037
   98SAPS   C34 9829   2.344   6.705   7.101  0.8652  0.0006 -0.6421
   98SAPS   H4X 9830   2.247   6.713   7.155  1.3086 -1.0981  0.3613
   98SAPS   H4Y 9831   2.377   6.810   7.085 -0.3656  0.9381  2.2790
   98SAPS   C35 9832   2.448   6.636   7.189 -0.5283 -0.2750  0.3663
   98SAPS   H5X 9833   2.550   6.633   7.144  0.1578  0.8534  1.7770
   98SAPS   H5Y 9834   2.411   6.533   7.209  0.3456 -0.4715  1.0294
   98SAPS   C36 9835   2.465   6.711   7.321  0.0986  0.2371 -0.8106
   98SAPS   H6X 9836   2.359   6.721   7.353 -0.2726 -0.4903 -1.7495
   98SAPS   H6Y 9837   2.503   6.814   7.304  2.6694 -0.5697 -0.4004
   98SAPS   C37 9838   2.546   6.637   7.431  0.2482  0.1323  0.1593
   98SAPS   H7X 9839   2.648   6.645   7.388  0.5834 -1.4187  0.6005
   98SAPS   H7Y 9840   2.522   6.528   7.424 -1.0519  0.3890  0.4091
   98SAPS   C38 9841   2.539   6.694   7.574 -0.0619 -0.6264  0.3603
   98SAPS   H8X 9842   2.444   6.747   7.597  1.2062  0.9084  2.5087
   98SAPS   H8Y 9843   2.608   6.782   7.572  0.3895 -0.9700  0.5853
   98SAPS   C39 9844   2.606   6.607   7.685  0.5851  0.3321 -0.1270
   98SAPS   H9X 9845   2.631   6.672   7.771 -0.7477  1.0873 -0.2851
   98SAPS   H9Y 9846   2.699   6.556   7.652  0.1710 -1.3638  1.1808
   98SAPS  C310 9847   2.514   6.491   7.729 -0.3848 -1.0173 -0.2386
   98SAPS  H10X 9848   2.492   6.430   7.639  2.7718 -1.3874 -0.8897
   98SAPS  H10Y 9849   2.420   6.521   7.780 -0.5147 -0.9549 -0.5143
   98SAPS  C311 9850   2.582   6.391   7.828 -0.2532 -0.3264 -0.0224
   98SAPS  H11X 9851   2.678   6.353   7.788  0.5825 -2.1542  3.3287
   98SAPS  H11Y 9852   2.510   6.308   7.849  0.3914 -0.8021  0.3367
   98SAPS  C312 9853   2.627   6.443   7.969  0.8948 -0.3025  0.3563
   98SAPS  H12X 9854   2.711   6.511   7.945  1.6434 -1.3276 -0.0259
   98SAPS  H12Y 9855   2.652   6.367   8.046 -2.8591 -0.4293  1.6272
   98SAPS  C313 9856   2.504   6.510   8.045  0.2289 -0.2031  0.2779
   98SAPS  H13X 9857   2.431   6.427   8.054  1.1752 -1.5133 -2.8941
   98SAPS  H13Y 9858   2.455   6.578   7.973 -0.5639 -1.0093  0.0320
   98SAPS  C314 9859   2.543   6.563   8.191 -0.1639 -0.3174  0.2794
   98SAPS  H14X 9860   2.587   6.664   8.176  2.2347 -1.5786 -2.0571
   98SAPS  H14Y 9861   2.617   6.495   8.236 -0.0246 -0.5267 -0.2626
   98SAPS  C315 9862   2.424   6.564   8.290  0.3622 -0.2619  0.1870
   98SAPS  H15X 9863   2.392   6.458   8.299  1.2962 -0.7438 -1.7324
   98SAPS  H15Y 9864   2.342   6.624   8.246  1.1495  0.1599 -0.7372
   98SAPS  C316 9865   2.467   6.639   8.418 -0.0669 -0.3588  0.2464
   98SAPS  H16X 9866   2.506   6.737   8.383 -1.0336 -0.0100  0.1069
   98SAPS  H16Y 9867   2.550   6.579   8.461  0.4296 -0.2403 -0.5185
   98SAPS  C317 9868   2.351   6.651   8.517 -0.4240 -0.0096 -0.3300
   98SAPS  H17X 9869   2.318   6.550   8.549  0.5327 -0.4300 -0.6469
   98SAPS  H17Y 9870   2.266   6.693   8.461 -0.5806 -0.1234 -0.1801
   98SAPS  C318 9871   2.386   6.730   8.648  0.2536  0.0038  0.1666
   98SAPS  H18X 9872   2.422   6.833   8.624 -0.8309  0.3316 -0.1327
   98SAPS  H18Y 9873   2.466   6.673   8.699 -0.0116 -1.4219 -0.9419
   98SAPS  H18Z 9874   2.304   6.745   8.722 -0.0175 -1.1256  0.1112
   99SAPS     N 9875   0.089   2.900   6.264  0.7257  0.2182 -0.2416
   99SAPS   HN1 9876   0.014   2.838   6.228  0.4300  0.0076  0.7081
   99SAPS   HN2 9877   0.125   2.856   6.351  0.1958 -1.3014 -0.7575
   99SAPS   HN3 9878   0.038   2.990   6.278 -0.2710 -0.2578 -0.6759
   99SAPS   C12 9879   0.200   2.928   6.173 -0.1172  0.7676 -0.6105
   99SAPS  H12A 9880   0.294   2.916   6.226 -0.9137  0.2102  0.7260
   99SAPS   C13 9881   0.215   2.846   6.047  0.0946  0.3845  0.2594
   99SAPS  O13A 9882   0.137   2.741   6.039  0.2057 -0.2798 -0.2718
   99SAPS  O13B 9883   0.304   2.863   5.963 -0.1738 -0.3567  0.2917
   99SAPS   C11 9884   0.197   3.076   6.135  0.2502 -0.1920  0.3435
   99SAPS  H11A 9885   0.104   3.103   6.081  0.4519 -0.4062 -0.1167
   99SAPS  H11B 9886   0.269   3.093   6.052  1.1428 -0.3247  1.0843
   99SAPS     P 9887   0.136   3.254   6.304 -0.0388 -0.0148  0.3411
   99SAPS   O13 9888   0.097   3.370   6.216  0.4090 -0.3827 -0.0095
   99SAPS   O14 9889   0.028   3.159   6.341  0.1566 -0.4905 -0.3232
   99SAPS   O12 9890   0.237   3.165   6.235  0.1159  0.2623  0.4250
   99SAPS   O11 9891   0.214   3.292   6.438 -0.4929 -0.5554  0.3462
   99SAPS    C1 9892   0.344   3.245   6.469  0.2674  0.2503 -0.3599
   99SAPS    HA 9893   0.413   3.240   6.382 -0.8016 -0.9669 -1.1683
   99SAPS    HB 9894   0.379   3.316   6.547 -0.7479 -0.9729  1.2688
   99SAPS    C2 9895   0.332   3.100   6.522 -0.6912  0.1017 -0.5625
   99SAPS    HS 9896   0.301   3.030   6.442 -0.5444 -0.6865  0.0602
   99SAPS   O21 9897   0.245   3.088   6.641 -0.1623  0.2997 -0.4844
   99SAPS   C21 9898   0.153   2.984   6.639 -0.5533  0.5824  0.2250
   99SAPS   O22 9899   0.139   2.911   6.542  0.3029  0.3600  0.2966
   99SAPS   C22 9900   0.079   2.975   6.772 -0.1053 -0.0816  0.1690
   99SAPS   H2R 9901   0.089   3.079   6.810 -1.0678 -0.4003  1.3551
   99SAPS   H2S 9902  -0.029   2.961   6.752 -0.2549  0.1536  0.7848
   99SAPS    C3 9903   0.476   3.036   6.555  0.6471 -0.1235 -0.3200
   99SAPS    HX 9904   0.524   3.020   6.457  1.4149 -1.5501  0.2620
   99SAPS    HY 9905   0.449   2.935   6.592  3.7533 -1.5520 -1.6194
   99SAPS   O31 9906   0.556   3.108   6.650 -0.7108  0.1942 -0.2838
   99SAPS   C31 9907   0.661   3.033   6.692 -0.3838  0.3188 -0.4545
   99SAPS   O32 9908   0.680   2.916   6.659 -0.0676 -0.3452  0.6407
   99SAPS   C32 9909   0.716   3.106   6.818  0.1832  0.0154 -0.6738
   99SAPS   H2X 9910   0.626   3.111   6.883 -0.0421 -2.0295 -0.7572
   99SAPS   H2Y 9911   0.759   3.207   6.801 -1.5214  0.8102 -0.5405
   99SAPS   C23 9912   0.153   2.881   6.859 -0.0662 -0.4786 -0.1224
   99SAPS   H3R 9913   0.159   2.775   6.824  2.0568 -1.8608  3.7588
   99SAPS   H3S 9914   0.106   2.873   6.959  0.6077  2.3565  0.5125
   99SAPS   C24 9915   0.297   2.935   6.889  0.0636 -0.0390  0.0199
   99SAPS   H4R 9916   0.272   3.041   6.909  1.0331  0.1075  0.4714
   99SAPS   H4S 9917   0.356   2.926   6.795 -0.0756 -0.5000 -0.0281
   99SAPS   C25 9918   0.377   2.870   7.001  0.7744  1.1494 -0.3143
   99SAPS   H5R 9919   0.436   2.781   6.977 -1.7909 -0.3599 -1.4468
   99SAPS   C26 9920   0.398   2.920   7.119 -0.4704 -0.3392 -0.0606
   99SAPS   H6R 9921   0.457   2.862   7.192  1.5281  1.1922 -0.3924
   99SAPS   C27 9922   0.349   3.052   7.169  0.4857 -0.6635  0.1692
   99SAPS   H7R 9923   0.348   3.128   7.088 -0.4480 -1.1999 -0.3394
   99SAPS   H7S 9924   0.412   3.102   7.245 -0.8194  1.8464 -0.2967
   99SAPS   C28 9925   0.208   3.026   7.205  0.0517 -0.3952 -0.0446
   99SAPS   H8R 9926   0.144   2.958   7.147 -0.1291 -1.5304  1.4345
   99SAPS   C29 9927   0.151   3.093   7.309 -0.5713 -0.8786  0.0088
   99SAPS   H9R 9928   0.043   3.086   7.327 -0.5229  0.4500  0.9378
   99SAPS  C210 9929   0.224   3.201   7.400  0.3451  0.2954 -0.2357
   99SAPS  H10R 9930   0.188   3.299   7.362  4.8605  2.5875  0.6901
   99SAPS  H10S 9931   0.334   3.206   7.389  0.3063  2.8906  0.1017
   99SAPS  C211 9932   0.198   3.180   7.547 -0.4408  0.1420 -0.7082
   99SAPS  H11R 9933   0.143   3.087   7.567  0.5273 -0.7004 -1.7974
   99SAPS  C212 9934   0.211   3.273   7.645  0.3660 -0.4027 -0.8497
   99SAPS  H12R 9935   0.186   3.238   7.746  0.3775 -1.0666 -1.0733
   99SAPS  C213 9936   0.271   3.412   7.633 -0.0495 -0.6557  0.1258
   99SAPS  H13R 9937   0.217   3.486   7.696 -0.0952 -0.7496  0.1960
   99SAPS  H13S 9938   0.261   3.449   7.529  0.3345  1.7070  0.8539
   99SAPS  C214 9939   0.416   3.429   7.682  0.3239 -0.0479  0.4958
   99SAPS  H14R 9940   0.495   3.382   7.621 -0.0403  0.5284 -0.4521
   99SAPS  C215 9941   0.458   3.492   7.798  0.2243  0.2698  0.1467
   99SAPS  H15R 9942   0.564   3.518   7.809 -0.3445  2.3383  1.0601
   99SAPS  C216 9943   0.367   3.544   7.911 -0.2628  0.2869  0.0936
   99SAPS  H16R 9944   0.382   3.476   7.997  0.4910  2.7935  2.0791
   99SAPS  H16S 9945   0.259   3.558   7.888 -0.4742 -0.9553  0.2716
   99SAPS  C217 9946   0.414   3.677   7.974  0.8556  0.1599  0.4300
   99SAPS  H17R 9947   0.335   3.714   8.043  1.3545 -0.9453  1.6145
   99SAPS  H17S 9948   0.408   3.753   7.893 -1.0622 -2.5129 -2.1506
   99SAPS  C218 9949   0.554   3.675   8.032  0.6015 -0.1019 -0.4296
   99SAPS  H18R 9950   0.638   3.669   7.959 -0.6819 -1.4280 -1.8716
   99SAPS  H18S 9951   0.554   3.577   8.085 -0.5472  0.9284  1.6266
   99SAPS  C219 9952   0.579   3.791   8.138  0.1291  0.3309  0.6965
   99SAPS  H19R 9953   0.490   3.785   8.204 -1.2782  1.8587 -0.9774
   99SAPS  H19S 9954   0.574   3.885   8.079 -2.2164 -0.9880 -1.4283
   99SAPS  C220 9955   0.714   3.768   8.214  0.2178  0.1314 -0.2315
   99SAPS  H20R 9956   0.724   3.665   8.255  1.7237 -0.7296 -2.6081
   99SAPS  H20S 9957   0.730   3.841   8.296 -0.6199  0.8959 -0.7251
   99SAPS  H20T 9958   0.799   3.774   8.144  2.0160  3.9322  2.0095
   99SAPS   C33 9959   0.835   3.030   6.876 -0.1197  0.0290 -0.7308
   99SAPS   H3X 9960   0.914   3.002   6.802 -1.9199 -2.7261 -1.7794
   99SAPS   H3Y 9961   0.799   2.932   6.915  1.2334 -0.3898 -0.4744
   99SAPS   C34 9962   0.886   3.108   6.993 -0.8435  0.3494  0.0142
   99SAPS   H4X 9963   0.923   3.210   6.970 -0.9805  0.1343 -1.1957
   99SAPS   H4Y 9964   0.968   3.048   7.037 -0.9401 -1.6445 -2.3591
   99SAPS   C35 9965   0.786   3.101   7.111 -0.0866 -0.0319 -0.2310
   99SAPS   H5X 9966   0.780   2.994   7.143  2.3481 -0.3946 -0.7509
   99SAPS   H5Y 9967   0.685   3.140   7.088 -0.9671 -0.9688  1.8355
   99SAPS   C36 9968   0.835   3.172   7.241 -0.1297  0.1975 -0.3004
   99SAPS   H6X 9969   0.784   3.271   7.240 -2.3223 -0.7404  3.1340
   99SAPS   H6Y 9970   0.945   3.184   7.240 -0.0185 -0.2814  1.8010
   99SAPS   C37 9971   0.795   3.099   7.373  0.2335  0.5223  0.3823
   99SAPS   H7X 9972   0.840   2.997   7.375  0.9005  0.7153 -1.9759
   99SAPS   H7Y 9973   0.686   3.081   7.366  0.0422  0.8950  1.9507
   99SAPS   C38 9974   0.827   3.186   7.485  0.0503 -0.2716  0.2691
   99SAPS   H8X 9975   0.761   3.274   7.497  0.5277  0.3280 -1.2814
   99SAPS   H8Y 9976   0.926   3.226   7.452 -0.3725  0.8424  0.2953
   99SAPS   C39 9977   0.859   3.114   7.625  0.4408 -0.0357  0.2577
   99SAPS   H9X 9978   0.935   3.178   7.673  1.7594  1.0838 -3.0561
   99SAPS   H9Y 9979   0.896   3.010   7.614 -0.4013 -0.1824 -1.6148
   99SAPS  C310 9980   0.734   3.127   7.717  0.0807 -0.4909  0.0783
   99SAPS  H10X 9981   0.663   3.063   7.660  1.5995 -1.8494 -0.3598
   99SAPS  H10Y 9982   0.684   3.225   7.705  0.7724  0.1176  1.9188
   99SAPS  C311 9983   0.752   3.066   7.858  0.0206  0.1409 -0.4337
   99SAPS  H11X 9984   0.797   2.964   7.854 -0.6522 -0.1657 -0.2141
   99SAPS  H11Y 9985   0.658   3.055   7.916  1.7772  1.6597  2.9713
   99SAPS  C312 9986   0.836   3.164   7.946 -0.2102  0.1456 -0.2373
   99SAPS  H12X 9987   0.785   3.254   7.987  0.7696  1.2415 -1.3305
   99SAPS  H12Y 9988   0.915   3.205   7.878 -0.2726  1.3732  0.4118
   99SAPS  C313 9989   0.917   3.104   8.057 -0.4996 -0.1753 -0.7264
   99SAPS  H13X 9990   0.957   3.186   8.120  1.2429 -0.8707 -0.8830
   99SAPS  H13Y 9991   1.001   3.046   8.013 -0.2068 -0.1215 -0.2467
   99SAPS  C314 9992   0.828   3.017   8.152 -0.7277 -0.3854  0.0255
   99SAPS  H14X 9993   0.784   2.937   8.089 -0.1766  0.4957 -1.5574
   99SAPS  H14Y 9994   0.742   3.071   8.197 -0.5216 -1.7069  2.0990
   99SAPS  C315 9995   0.907   2.976   8.271 -0.3998  0.1881  0.4239
   99SAPS  H15X 9996   0.959   3.056   8.329  1.2680 -0.2198 -0.4468
   99SAPS  H15Y 9997   0.988   2.914   8.228 -0.1729  0.3034  0.6869
   99SAPS  C316 9998   0.822   2.893   8.368 -0.0552  0.2756 -0.2398
   99SAPS  H16X 9999   0.785   2.796   8.328 -2.6332  2.0084 -2.3972
   99SAPS  H16Y10000   0.727   2.948   8.381 -1.4547 -2.2245  0.8063
   99SAPS  C31710001   0.892   2.865   8.507  0.5972 -0.2948 -0.5091
   99SAPS  H17X10002   0.904   2.966   8.551 -1.9050  0.0575 -0.4510
   99SAPS  H17Y10003   0.991   2.818   8.487  0.7171 -0.5443  0.6211
   99SAPS  C31810004   0.816   2.777   8.601 -0.5736  0.4052 -0.0273
   99SAPS  H18X10005   0.864   2.791   8.700  0.5373  0.0575 -0.5020
   99SAPS  H18Y10006   0.814   2.673   8.564  1.9430  0.2603  0.0913
   99SAPS  H18Z10007   0.712   2.812   8.621 -0.7863  0.2960 -0.8764
  100SAPS     N10008   5.836   0.480   6.358 -0.5554  0.2168 -0.2151
  100SAPS   HN110009   5.832   0.553   6.285  0.2571 -0.6269 -1.1336
  100SAPS   HN210010   5.852   0.392   6.305 -0.2664  1.3008 -2.0138
  100SAPS   HN310011   5.746   0.468   6.409  0.4978 -1.1833  1.4308
  100SAPS   C1210012   5.940   0.511   6.457  0.7578 -0.6518  0.4557
  100SAPS  H12A10013   6.026   0.540   6.399  1.3734 -1.2472  1.0534
  100SAPS   C1310014   5.895   0.628   6.548 -0.4597  0.9812  0.3466
  100SAPS  O13A10015   5.796   0.697   6.522  0.1284 -0.2922 -0.4394
  100SAPS  O13B10016   5.972   0.664   6.641  0.4047  0.1051 -0.1021
  100SAPS   C1110017   5.968   0.380   6.542  0.6056 -0.5761 -0.2498
  100SAPS  H11A10018   5.876   0.351   6.596  0.8589  0.3238  0.7027
  100SAPS  H11B10019   6.038   0.416   6.620 -0.3179  1.8110 -0.4262
  100SAPS     P10020   6.151   0.246   6.417  0.1748  0.4092 -0.1048
  100SAPS   O1310021   6.161   0.111   6.358  0.2517 -0.2184 -0.3670
  100SAPS   O1410022   6.180   0.361   6.334  0.3975  0.0524  0.1847
  100SAPS   O1210023   6.000   0.270   6.469 -0.5099 -0.3176  0.3153
  100SAPS   O1110024   6.239   0.257   6.552  0.7023 -0.8171  0.0763
  100SAPS    C110025   6.210   0.173   6.662 -0.6613 -0.5672  0.3133
  100SAPS    HA10026   6.106   0.159   6.696  0.1379 -1.3013  2.6445
  100SAPS    HB10027   6.246   0.070   6.643  0.0450  0.0251 -1.8941
  100SAPS    C210028   6.278   0.238   6.798 -0.1693  0.2343  0.1726
  100SAPS    HS10029   6.311   0.150   6.857  4.0379  0.4660 -1.5238
  100SAPS   O2110030   6.192   0.328   6.867 -0.2224  0.0512 -0.1353
  100SAPS   C2110031   6.207   0.330   6.996 -0.3081 -0.1052  0.5093
  100SAPS   O2210032   6.276   0.257   7.068 -0.1305  0.0180 -0.1617
  100SAPS   C2210033   6.142   0.459   7.042  0.1428  0.0385 -0.3189
  100SAPS   H2R10034   6.204   0.545   7.011 -0.2233  0.3837 -0.1042
  100SAPS   H2S10035   6.044   0.452   6.990 -0.8289 -1.0848  1.5398
  100SAPS    C310036   6.405   0.314   6.753 -0.9140  0.2705 -0.3280
  100SAPS    HX10037   6.364   0.405   6.704 -1.1177  0.4111  0.0939
  100SAPS    HY10038   6.452   0.258   6.669 -2.1135 -1.9489  0.3852
  100SAPS   O3110039   6.486   0.359   6.860  0.3105 -0.6100  0.2424
  100SAPS   C3110040   6.601   0.298   6.876  0.4668 -0.2084 -0.1770
  100SAPS   O3210041   6.638   0.201   6.813  0.0266 -0.4488  0.1940
  100SAPS   C3210042   6.669   0.354   6.998  0.0868 -0.2031  0.4280
  100SAPS   H2X10043   6.715   0.453   6.975 -0.1589  1.1476  4.8326
  100SAPS   H2Y10044   6.753   0.282   7.014 -1.4518 -2.7196 -1.8921
  100SAPS   C2310045   6.090   0.455   7.191 -0.5271 -0.2227 -0.4733
  100SAPS   H3R10046   6.176   0.451   7.261  0.7124  1.3069 -1.8027
  100SAPS   H3S10047   6.029   0.365   7.212 -0.6017 -0.5597 -2.0171
  100SAPS   C2410048   6.010   0.582   7.240 -0.1200 -0.3431 -1.0056
  100SAPS   H4R10049   5.982   0.561   7.345 -0.9979  1.6969 -0.7832
  100SAPS   H4S10050   5.923   0.586   7.172 -0.3310 -3.1421 -0.9916
  100SAPS   C2510051   6.096   0.713   7.231  0.5177  0.1658  0.8568
  100SAPS   H5R10052   6.131   0.754   7.135 -2.6855  2.1531  0.3689
  100SAPS   C2610053   6.141   0.776   7.340 -0.1068 -0.3222 -0.3899
  100SAPS   H6R10054   6.206   0.863   7.322  1.2321 -1.2847 -0.3883
  100SAPS   C2710055   6.107   0.728   7.485 -0.0378 -0.6246 -0.3683
  100SAPS   H7R10056   6.128   0.619   7.495 -2.7217 -1.3426 -1.6452
  100SAPS   H7S10057   5.998   0.740   7.504  0.0462 -1.8934  1.0893
  100SAPS   C2810058   6.187   0.818   7.580 -0.0237  0.2112 -0.2977
  100SAPS   H8R10059   6.296   0.808   7.570  0.0071 -1.2960  1.2209
  100SAPS   C2910060   6.137   0.907   7.667  0.0710 -0.9386 -1.0150
  100SAPS   H9R10061   6.199   0.978   7.723 -0.1671 -0.4684 -1.3387
  100SAPS  C21010062   5.993   0.928   7.696  0.3609 -0.4809 -0.1721
  100SAPS  H10R10063   5.983   0.978   7.795 -0.2149  0.2732 -0.6074
  100SAPS  H10S10064   5.939   0.831   7.701 -2.9065  1.2406  0.5752
  100SAPS  C21110065   5.928   1.008   7.588  0.4509  0.7848  0.2015
  100SAPS  H11R10066   5.936   0.954   7.492  0.5868 -1.1414  1.2632
  100SAPS  C21210067   5.878   1.132   7.592  0.0599 -0.7253  0.8420
  100SAPS  H12R10068   5.833   1.178   7.503  1.0168 -0.5991  0.4130
  100SAPS  C21310069   5.871   1.221   7.707 -0.0648 -0.2865 -0.8501
  100SAPS  H13R10070   5.862   1.160   7.800  1.1258 -4.4073 -3.1933
  100SAPS  H13S10071   5.791   1.296   7.686 -1.3965 -1.8670 -1.6918
  100SAPS  C21410072   6.000   1.294   7.731  0.2328  0.0884 -0.5132
  100SAPS  H14R10073   6.084   1.265   7.667  2.1045  3.2062  0.3228
  100SAPS  C21510074   6.021   1.387   7.817 -0.0431 -0.3568  0.2446
  100SAPS  H15R10075   6.125   1.424   7.820  0.3163 -1.1500 -1.1951
  100SAPS  C21610076   5.923   1.434   7.916 -0.1293  0.0171  0.0311
  100SAPS  H16R10077   5.820   1.431   7.874  0.0189  0.0105 -0.3379
  100SAPS  H16S10078   5.945   1.542   7.935  0.4005  0.3603 -2.2623
  100SAPS  C21710079   5.942   1.355   8.052 -0.3184  0.0727 -0.0700
  100SAPS  H17R10080   6.044   1.388   8.084 -1.4630  1.6071  2.2740
  100SAPS  H17S10081   5.937   1.245   8.037  3.0738 -0.1016 -0.8413
  100SAPS  C21810082   5.856   1.408   8.161 -0.0694  0.0685  0.8344
  100SAPS  H18R10083   5.748   1.383   8.149  0.2228 -1.1165  0.5603
  100SAPS  H18S10084   5.869   1.518   8.165 -0.9635  0.2297 -0.0900
  100SAPS  C21910085   5.905   1.372   8.304  0.1679 -0.3707  0.1156
  100SAPS  H19R10086   6.014   1.396   8.310 -0.1277  0.6338  2.5595
  100SAPS  H19S10087   5.910   1.261   8.303  2.5340 -0.3103 -0.5381
  100SAPS  C22010088   5.808   1.426   8.413 -0.3512 -0.0944  0.2973
  100SAPS  H20R10089   5.835   1.534   8.420  0.4585 -0.3856  3.9839
  100SAPS  H20S10090   5.829   1.371   8.508 -0.7465  1.7761  1.5367
  100SAPS  H20T10091   5.702   1.422   8.381 -0.6514  0.8051  1.0975
  100SAPS   C3310092   6.577   0.384   7.112 -0.0237 -0.0971  0.2530
  100SAPS   H3X10093   6.508   0.299   7.129  0.6024 -0.2784  2.2567
  100SAPS   H3Y10094   6.511   0.473   7.102 -0.3183 -0.3427  0.0076
  100SAPS   C3410095   6.649   0.398   7.240 -0.2119 -0.1301  0.4299
  100SAPS   H4X10096   6.742   0.457   7.228  1.2668 -2.1260  1.3460
  100SAPS   H4Y10097   6.687   0.299   7.274  0.9188  0.7457  1.8142
  100SAPS   C3510098   6.568   0.441   7.358 -0.1425 -0.2067 -0.0606
  100SAPS   H5X10099   6.507   0.522   7.314  1.8548  1.6173  0.3890
  100SAPS   H5Y10100   6.625   0.486   7.442  1.1589 -1.8615  0.0121
  100SAPS   C3610101   6.472   0.342   7.408 -0.2692 -0.0135 -0.1736
  100SAPS   H6X10102   6.522   0.254   7.454 -1.6863 -0.7984 -0.0456
  100SAPS   H6Y10103   6.403   0.311   7.326  1.1979 -0.1729 -1.3795
  100SAPS   C3710104   6.377   0.393   7.520  0.3862 -0.1109 -0.4371
  100SAPS   H7X10105   6.346   0.309   7.586 -1.4560  0.7513 -0.1145
  100SAPS   H7Y10106   6.278   0.422   7.477  0.3228 -0.2224 -0.3666
  100SAPS   C3810107   6.431   0.502   7.616  1.2275 -0.6598 -0.1640
  100SAPS   H8X10108   6.349   0.550   7.674  2.6552  0.9085  0.6645
  100SAPS   H8Y10109   6.466   0.587   7.553  1.2832  0.0113  0.7409
  100SAPS   C3910110   6.539   0.453   7.711  0.0846 -0.6185  0.1919
  100SAPS   H9X10111   6.624   0.406   7.658 -0.0689 -0.8231  0.1249
  100SAPS   H9Y10112   6.495   0.377   7.780 -1.9326 -0.1042 -0.4694
  100SAPS  C31010113   6.586   0.569   7.797  0.3078  0.4895 -0.6395
  100SAPS  H10X10114   6.494   0.618   7.836  0.7646  0.3963  0.6019
  100SAPS  H10Y10115   6.652   0.633   7.735  1.4598 -0.1496 -0.1025
  100SAPS  C31110116   6.674   0.510   7.913  0.4985  0.4086 -1.4343
  100SAPS  H11X10117   6.723   0.419   7.874  1.0902 -0.2420  0.6744
  100SAPS  H11Y10118   6.610   0.479   7.998 -1.3841  2.9510 -1.8217
  100SAPS  C31210119   6.777   0.609   7.966  0.6499 -1.3384  0.4692
  100SAPS  H12X10120   6.728   0.709   7.974  2.2936 -0.1908 -2.5223
  100SAPS  H12Y10121   6.857   0.623   7.891 -0.0093  0.1814  0.0116
  100SAPS  C31310122   6.840   0.569   8.096 -1.2109 -0.6810  0.6782
  100SAPS  H13X10123   6.770   0.579   8.181 -0.7214 -0.6873  1.0885
  100SAPS  H13Y10124   6.918   0.647   8.106 -1.5421 -0.2369 -0.1104
  100SAPS  C31410125   6.903   0.429   8.092  0.4324 -0.0738 -0.1833
  100SAPS  H14X10126   7.006   0.451   8.058  0.7770 -0.0489  0.8577
  100SAPS  H14Y10127   6.858   0.372   8.007  0.2213 -1.7069  0.9755
  100SAPS  C31510128   6.892   0.359   8.229  0.5082 -0.3921  0.6411
  100SAPS  H15X10129   6.922   0.252   8.232  1.2033 -0.4167 -2.8621
  100SAPS  H15Y10130   6.784   0.363   8.255  0.2960  0.5721 -0.3034
  100SAPS  C31610131   6.970   0.425   8.348  0.1249  0.2597 -0.8068
  100SAPS  H16X10132   6.907   0.491   8.412 -0.3170 -1.0734  0.1845
  100SAPS  H16Y10133   7.055   0.488   8.316  0.5372  0.3880  0.4725
  100SAPS  C31710134   7.024   0.310   8.442 -0.7450 -0.0236 -0.3170
  100SAPS  H17X10135   7.108   0.264   8.386  1.0406  2.7310 -0.0896
  100SAPS  H17Y10136   6.936   0.243   8.455  0.0683 -1.3005 -1.0960
  100SAPS  C31810137   7.075   0.364   8.581  0.6279 -0.5281  0.5278
  100SAPS  H18X10138   7.054   0.281   8.653 -1.6152 -0.1010  0.4467
  100SAPS  H18Y10139   7.016   0.452   8.613 -0.9762 -0.3709 -2.5148
  100SAPS  H18Z10140   7.182   0.391   8.572  0.4471  0.1556  0.3633
  101OSM      N10141   5.331   4.421  10.964  0.4371  0.6689  0.1005
  101OSM    C1510142   5.373   4.543  11.044 -0.0319  0.3472 -0.7774
  101OSM   H15A10143   5.318   4.632  11.017 -0.3538  1.3133  2.6095
  101OSM   H15B10144   5.477   4.571  11.040  1.2854 -3.5131  1.5825
  101OSM   H15C10145   5.340   4.532  11.146  0.5877 -1.6924 -0.7581
  101OSM    C1410146   5.390   4.294  11.008  0.2097  0.2331  1.4798
  101OSM   H14A10147   5.377   4.283  11.114 -0.5352 -0.4071  1.3311
  101OSM   H14B10148   5.493   4.292  10.975 -0.3074  2.9724 -0.7277
  101OSM   H14C10149   5.337   4.209  10.968  0.2923  1.1485 -0.7510
  101OSM    C1310150   5.185   4.399  10.977  0.2825 -0.3245 -0.2762
  101OSM   H13A10151   5.149   4.328  10.904  0.9920 -1.3841  0.3879
  101OSM   H13B10152   5.140   4.493  10.948  1.3567 -0.0616 -1.1325
  101OSM   H13C10153   5.155   4.377  11.078 -0.9635  1.9030 -0.0958
  101OSM    C1210154   5.372   4.434  10.820 -0.1179  0.5451 -0.1884
  101OSM   H12A10155   5.357   4.333  10.785  0.7716 -1.0010  3.4657
  101OSM   H12B10156   5.477   4.457  10.812 -0.0764  0.6294  0.5269
  101OSM    C1110157   5.289   4.531  10.729  0.0535  0.3308 -0.0514
  101OSM   H11A10158   5.194   4.483  10.700  1.2047 -0.5171 -2.7750
  101OSM   H11B10159   5.351   4.533  10.636 -0.1517  1.7249 -0.1763
  101OSM      P10160   5.321   4.795  10.724 -0.1803 -0.1104 -0.1257
  101OSM    O1310161   5.262   4.898  10.811 -0.2880 -0.5512  0.5903
  101OSM    O1410162   5.467   4.789  10.709 -0.0080 -0.1440  0.4024
  101OSM    O1110163   5.261   4.815  10.574 -0.1735  0.2935 -0.6290
  101OSM    O1210164   5.256   4.662  10.778 -0.9952  0.9491 -0.5276
  101OSM    C1S10165   5.122   4.800  10.543 -0.2691 -0.4009 -0.0239
  101OSM    H1S10166   5.061   4.883  10.585 -1.0902 -0.0413 -1.8188
  101OSM    H1T10167   5.086   4.708  10.592 -1.8684  0.4658  0.5002
  101OSM     NF10168   4.955   4.792  10.352 -1.0204  0.3307 -0.2051
  101OSM    HNF10169   4.927   4.714  10.297 -1.2015  0.3935 -0.2038
  101OSM    C2S10170   5.099   4.789  10.388  0.9827 -0.0487  0.7055
  101OSM    H2S10171   5.150   4.878  10.346  1.1039  0.1198  1.2065
  101OSM    C3S10172   5.173   4.666  10.336  0.2865  0.4060 -0.2989
  101OSM    H3S10173   5.122   4.581  10.386 -1.6872  1.1481 -0.9517
  101OSM     O310174   5.307   4.664  10.374 -0.8789 -0.1604 -0.4810
  101OSM    HO310175   5.315   4.724  10.448 -0.8569 -1.6721  0.7854
  101OSM    C4S10176   5.165   4.657  10.187 -0.2998  0.2373 -1.1664
  101OSM    H4S10177   5.101   4.575  10.153 -0.5447 -0.0142 -0.1544
  101OSM    C5S10178   5.242   4.719  10.094  0.2494  0.3457  0.2522
  101OSM    H5S10179   5.328   4.785  10.116 -0.1570  0.6491  0.9540
  101OSM    C6S10180   5.230   4.680   9.951 -0.0216  0.3806  0.4877
  101OSM    H6S10181   5.248   4.573   9.930  0.2655  0.2863  1.1924
  101OSM    H6T10182   5.313   4.727   9.895  1.5206 -2.2048  0.4673
  101OSM    C7S10183   5.089   4.716   9.890 -0.8017 -0.0400 -0.1142
  101OSM    H7S10184   5.083   4.822   9.921  2.5638  0.0983  0.4741
  101OSM    H7T10185   5.013   4.659   9.948  0.2247 -4.2688 -2.4716
  101OSM    C8S10186   5.068   4.692   9.738  0.3857 -0.1685 -0.5028
  101OSM    H8S10187   4.979   4.751   9.708 -0.2133  0.4975  2.3474
  101OSM    H8T10188   5.053   4.586   9.709  1.8550 -0.2513 -1.0835
  101OSM    C9S10189   5.186   4.738   9.662 -0.3976 -1.5212  0.1096
  101OSM    H9S10190   5.274   4.671   9.673  2.3062  1.8438  1.0402
  101OSM    H9T10191   5.208   4.836   9.709  1.8319 -1.7625 -0.3286
  101OSM   C10S10192   5.157   4.755   9.510 -0.1636 -0.9427 -0.6005
  101OSM   H10S10193   5.247   4.794   9.459 -0.1792 -1.5562 -1.1069
  101OSM   H10T10194   5.088   4.842   9.505  1.1423  0.4889  2.8621
  101OSM   C11S10195   5.095   4.626   9.450  0.1975 -0.0508 -0.6294
  101OSM   H11S10196   4.993   4.606   9.489  0.2147  1.8819  0.5315
  101OSM   H11T10197   5.158   4.539   9.477  0.3978  0.4955  0.7339
  101OSM   C12S10198   5.099   4.635   9.298  0.2838  0.8838  0.7799
  101OSM   H12S10199   5.201   4.658   9.261  0.5385  1.2381  1.6882
  101OSM   H12T10200   5.039   4.723   9.264 -2.2098 -1.4416 -1.4409
  101OSM   C13S10201   5.049   4.514   9.221 -0.5284 -0.6012 -0.3053
  101OSM   H13S10202   4.942   4.498   9.247 -0.5555  2.7027  2.4274
  101OSM   H13T10203   5.108   4.424   9.247  2.6248  1.8703  2.0373
  101OSM   C14S10204   5.066   4.537   9.065 -0.6074 -0.3710 -0.2483
  101OSM   H14S10205   5.172   4.566   9.049 -0.5329 -1.8600 -2.9631
  101OSM   H14T10206   4.999   4.624   9.050  0.1997  0.4902  0.8688
  101OSM   C15S10207   5.024   4.425   8.973 -0.6578  0.2208  0.8180
  101OSM   H15S10208   4.915   4.400   8.972 -0.1240 -2.3877  1.1872
  101OSM   H15T10209   5.068   4.328   9.005 -1.3866  0.7018  3.5224
  101OSM   C16S10210   5.046   4.457   8.834 -0.0935 -0.5416  0.0208
  101OSM   H16S10211   5.150   4.493   8.819 -0.1030 -1.0140 -1.3988
  101OSM   H16T10212   4.979   4.538   8.797  1.2061  0.4620 -0.1959
  101OSM   C17S10213   5.025   4.340   8.733 -0.2859 -0.0160 -0.2128
  101OSM   H17S10214   5.065   4.255   8.793 -2.9879 -0.3840  1.2560
  101OSM   H17T10215   5.070   4.367   8.636 -1.3928  1.9151 -0.2472
  101OSM   C18S10216   4.875   4.322   8.698  0.0227  0.1652  0.5953
  101OSM   H18S10217   4.864   4.255   8.611  1.3249 -0.1583  0.6515
  101OSM   H18T10218   4.843   4.424   8.666 -0.6315 -0.3631 -0.4831
  101OSM   H18U10219   4.814   4.289   8.785  2.1111  0.1379  2.1342
  101OSM    C1F10220   4.872   4.888  10.378 -0.6200  0.3568 -0.1268
  101OSM     OF10221   4.906   4.979  10.450  0.3309  0.0596 -0.7992
  101OSM    C2F10222   4.746   4.871  10.298  0.3776 -0.1717 -0.2086
  101OSM    H2F10223   4.667   4.819  10.357 -1.1354  0.9421 -1.1663
  101OSM    H2G10224   4.769   4.822  10.202  2.0051  2.6581 -1.3831
  101OSM    C3F10225   4.681   5.012  10.265  0.1603 -0.6253  0.1550
  101OSM    H3F10226   4.670   5.080  10.352 -3.2336 -0.0908 -0.5720
  101OSM    H3G10227   4.577   5.000  10.227  0.6342  2.0623 -2.2997
  101OSM    C4F10228   4.754   5.086  10.148 -0.5309 -0.1881 -0.7726
  101OSM    H4F10229   4.860   5.086  10.181 -0.1937  2.0620 -1.6945
  101OSM    H4G10230   4.713   5.189  10.141 -0.6987  0.1818  3.3548
  101OSM    C5F10231   4.750   5.023  10.009 -0.3868 -0.5767 -0.1257
  101OSM    H5F10232   4.641   5.013   9.987 -0.4236 -1.7848  0.5469
  101OSM    H5G10233   4.807   4.929  10.006 -0.4907 -0.6890  0.9436
  101OSM    C6F10234   4.805   5.115   9.888 -0.3417 -0.5197 -0.2815
  101OSM    H6F10235   4.904   5.147   9.928 -1.3125 -1.2123  3.0078
  101OSM    H6G10236   4.744   5.205   9.866 -1.5005 -1.1221  0.3799
  101OSM    C7F10237   4.802   5.047   9.746  0.5099 -0.9612 -0.0601
  101OSM    H7F10238   4.701   5.003   9.730 -0.7577  2.5361 -3.1695
  101OSM    H7G10239   4.885   4.974   9.753  1.7648  0.2199 -1.8826
  101OSM    C8F10240   4.826   5.149   9.628  0.0552  0.4659  0.1060
  101OSM    H8F10241   4.933   5.179   9.625  0.2091 -0.0951 -0.0808
  101OSM    H8G10242   4.766   5.238   9.654 -2.9600 -0.9806 -1.4042
  101OSM    C9F10243   4.781   5.087   9.505  0.5700  0.1944 -0.0482
  101OSM    H9F10244   4.686   5.033   9.510  0.9562 -0.5003 -0.1566
  101OSM   C10F10245   4.843   5.074   9.390  0.3490 -0.2425 -0.3103
  101OSM   H10F10246   4.795   5.025   9.304  0.5785  0.6930 -0.9948
  101OSM   C11F10247   4.984   5.122   9.348  0.3150 -0.3102  0.1474
  101OSM   H11F10248   5.039   5.044   9.291 -0.1471  0.2191 -1.0550
  101OSM   H11G10249   5.042   5.151   9.438  2.3705 -1.2282 -0.8149
  101OSM   C12F10250   4.972   5.248   9.255  0.0472 -0.1288  0.6203
  101OSM   H12F10251   4.919   5.324   9.317 -0.9511  0.5593 -1.0272
  101OSM   H12G10252   4.904   5.225   9.170  0.9354  0.7821 -0.3543
  101OSM   C13F10253   5.106   5.313   9.216 -0.2816  0.0925  0.7741
  101OSM   H13F10254   5.179   5.232   9.193 -1.9635 -1.3182  0.1898
  101OSM   H13G10255   5.131   5.357   9.315  0.3765  0.4008  0.4780
  101OSM   C14F10256   5.099   5.418   9.111 -0.1705  0.1088  0.0541
  101OSM   H14F10257   4.999   5.465   9.096 -0.5513 -0.8148 -0.3697
  101OSM   H14G10258   5.132   5.369   9.018  1.2072  2.0291 -0.5304
  101OSM   C15F10259   5.203   5.535   9.132  0.0063 -0.7455 -0.4151
  101OSM   H15F10260   5.310   5.519   9.154  0.6185  3.6714  0.8594
  101OSM   H15G10261   5.160   5.593   9.217 -0.8374 -1.9633  0.0222
  101OSM   C16F10262   5.205   5.624   9.004 -0.4940  0.1907 -0.3337
  101OSM   H16F10263   5.209   5.554   8.917 -2.2423 -2.0094  1.2238
  101OSM   H16G10264   5.284   5.699   9.022 -0.5052 -0.3777  2.6090
  101OSM   C17F10265   5.072   5.707   8.992 -0.7701  0.1534  0.6116
  101OSM   H17F10266   5.051   5.756   9.089 -0.0128  1.2357  0.2417
  101OSM   H17G10267   4.984   5.642   8.970 -0.6538  0.1372  0.1914
  101OSM   C18F10268   5.083   5.808   8.872  0.5084  0.1519 -0.1667
  101OSM   H18F10269   5.178   5.867   8.878  0.4194  0.1709  1.9146
  101OSM   H18G10270   4.988   5.866   8.874 -0.2933 -0.9846 -2.4817
  101OSM   H18H10271   5.087   5.750   8.778 -2.7147 -0.6334  0.0740
  102OSM      N10272   3.996   1.022  11.152  0.3637  0.4931 -0.2863
  102OSM    C1510273   4.036   1.156  11.096  0.4792  0.1525  0.6224
  102OSM   H15A10274   3.967   1.181  11.017 -0.4617 -3.4774  0.1353
  102OSM   H15B10275   4.136   1.152  11.058  0.4920  0.9341  0.5634
  102OSM   H15C10276   4.052   1.235  11.169  1.7079  0.6757 -0.1938
  102OSM    C1410277   4.003   0.932  11.035  0.1525  0.1006  0.1661
  102OSM   H14A10278   3.923   0.940  10.963  2.0536  2.4257 -1.8578
  102OSM   H14B10279   3.989   0.830  11.067  0.1647 -0.1930 -0.7400
  102OSM   H14C10280   4.097   0.925  10.983 -0.4701 -1.5486 -0.7798
  102OSM    C1310281   4.095   0.983  11.258 -0.1725 -0.3193  0.5205
  102OSM   H13A10282   4.065   0.888  11.298  0.7447 -0.1432  1.6674
  102OSM   H13B10283   4.082   1.056  11.337  0.5422  0.9494 -0.4862
  102OSM   H13C10284   4.190   0.981  11.208 -0.6626  0.6094 -0.4876
  102OSM    C1210285   3.857   1.041  11.214  0.1705 -0.1683  0.1577
  102OSM   H12A10286   3.806   1.111  11.149 -0.2883 -1.7489 -1.2690
  102OSM   H12B10287   3.872   1.070  11.317  0.2409  0.6992 -0.0900
  102OSM    C1110288   3.764   0.917  11.216 -0.0494 -0.9692 -0.6189
  102OSM   H11A10289   3.680   0.930  11.287  0.9974 -2.2413  0.9325
  102OSM   H11B10290   3.818   0.838  11.272  2.4579  0.0519 -1.4644
  102OSM      P10291   3.643   0.958  10.986 -0.5153  0.2223  0.0487
  102OSM    O1310292   3.512   0.890  10.956 -0.4988  0.7819  1.1350
  102OSM    O1410293   3.648   1.096  11.034 -0.2835 -0.4663  0.0821
  102OSM    O1110294   3.738   0.953  10.866  0.3191  0.4454  0.5469
  102OSM    O1210295   3.722   0.870  11.084 -0.4387  1.1700 -0.2736
  102OSM    C1S10296   3.770   0.829  10.791 -0.3234 -0.3911  0.4679
  102OSM    H1S10297   3.695   0.749  10.810 -1.1924  0.6798  1.7428
  102OSM    H1T10298   3.868   0.793  10.829 -0.0237 -0.2142 -0.1343
  102OSM     NF10299   3.766   0.697  10.571 -0.3694  0.1069 -0.6070
  102OSM    HNF10300   3.848   0.648  10.543  0.1528 -0.5577  1.9037
  102OSM    C2S10301   3.771   0.836  10.635  0.2060  0.0927 -1.1153
  102OSM    H2S10302   3.686   0.899  10.601  1.0231  2.1022  0.3613
  102OSM    C3S10303   3.894   0.928  10.606 -0.0039  0.4252 -0.1349
  102OSM    H3S10304   3.984   0.869  10.637  0.2729  1.6750  1.5591
  102OSM     O310305   3.894   1.051  10.671 -0.4326  0.5984  0.5853
  102OSM    HO310306   3.820   1.042  10.732  1.0512  1.6799  2.6830
  102OSM    C4S10307   3.909   0.936  10.453  0.8128  0.1496  0.4268
  102OSM    H4S10308   3.947   0.846  10.402  0.2819  0.6717 -0.9449
  102OSM    C5S10309   3.864   1.035  10.371  0.9834  0.5638 -0.2555
  102OSM    H5S10310   3.819   1.129  10.409 -1.8519 -0.9786  0.4773
  102OSM    C6S10311   3.873   1.024  10.220 -0.0647  0.0183  0.1626
  102OSM    H6S10312   3.927   1.109  10.172 -0.8011 -1.0560 -2.7295
  102OSM    H6T10313   3.769   1.032  10.181  0.0221 -2.4435 -0.7126
  102OSM    C7S10314   3.932   0.900  10.143 -0.2465 -0.3187 -0.8024
  102OSM    H7S10315   4.040   0.882  10.163  0.3348 -0.1407 -3.4354
  102OSM    H7T10316   3.915   0.935  10.039  0.3297  1.0861 -0.4496
  102OSM    C8S10317   3.842   0.780  10.167 -0.2813  0.2509  0.2828
  102OSM    H8S10318   3.739   0.800  10.131  0.1590  1.1531 -0.5076
  102OSM    H8T10319   3.831   0.750  10.274  0.8520  2.6032  1.1407
  102OSM    C9S10320   3.891   0.654  10.091  0.1717  0.6254  0.3202
  102OSM    H9S10321   3.815   0.574  10.104  1.6535 -0.6589  1.5159
  102OSM    H9T10322   3.994   0.628  10.125  0.5286 -1.1617 -1.9305
  102OSM   C10S10323   3.894   0.678   9.936  0.2320 -0.4813  0.0932
  102OSM   H10S10324   3.960   0.766   9.920 -0.8436  0.6170  1.4721
  102OSM   H10T10325   3.796   0.721   9.905  0.6342  0.6042  0.2792
  102OSM   C11S10326   3.945   0.561   9.844 -0.4494 -0.2890  0.0024
  102OSM   H11S10327   3.879   0.472   9.855 -1.1832  0.3412  0.9629
  102OSM   H11T10328   4.040   0.521   9.884 -0.3732 -0.7886 -0.6788
  102OSM   C12S10329   3.961   0.617   9.702  0.0046  0.0458 -0.1448
  102OSM   H12S10330   4.060   0.668   9.695 -0.2976  0.8893  1.3268
  102OSM   H12T10331   3.884   0.689   9.667 -1.9157 -2.0786 -0.5592
  102OSM   C13S10332   3.958   0.503   9.596 -0.0650  0.3683 -0.5944
  102OSM   H13S10333   3.877   0.436   9.633  0.3700  0.0204 -0.2492
  102OSM   H13T10334   4.044   0.434   9.609 -1.0297 -0.6916  0.4592
  102OSM   C14S10335   3.926   0.546   9.454  0.0198 -0.1809  0.0881
  102OSM   H14S10336   3.975   0.645   9.449 -2.0233  0.9438  1.0396
  102OSM   H14T10337   3.821   0.580   9.441  0.5114  1.9374  1.3252
  102OSM   C15S10338   3.963   0.436   9.350 -0.4516 -0.2805 -0.1712
  102OSM   H15S10339   3.894   0.354   9.381  0.5100 -1.6151 -1.3899
  102OSM   H15T10340   4.063   0.395   9.378  1.0181  3.5283  0.7074
  102OSM   C16S10341   3.953   0.476   9.203  0.2277  0.7437  0.1830
  102OSM   H16S10342   3.970   0.585   9.201 -0.7096  0.9233  1.1198
  102OSM   H16T10343   3.846   0.462   9.177  0.2029  0.0566  0.6278
  102OSM   C17S10344   4.041   0.391   9.106  0.6037 -0.0223  0.7413
  102OSM   H17S10345   4.007   0.292   9.144 -2.9274  1.4873  1.9201
  102OSM   H17T10346   4.151   0.407   9.102  0.7285 -1.0570 -0.5511
  102OSM   C18S10347   3.998   0.409   8.967  0.0461  0.3302 -0.1331
  102OSM   H18S10348   4.030   0.317   8.914  0.8457  0.3736  0.2586
  102OSM   H18T10349   4.040   0.502   8.923  0.0168  1.6339  2.4014
  102OSM   H18U10350   3.887   0.398   8.962 -0.1203  2.2532 -2.9115
  102OSM    C1F10351   3.648   0.629  10.559 -0.1367 -0.4164 -0.1921
  102OSM     OF10352   3.542   0.678  10.606 -0.7493  0.0697  0.3252
  102OSM    C2F10353   3.637   0.501  10.488 -0.4380 -0.0912  0.3299
  102OSM    H2F10354   3.603   0.414  10.548  0.4975 -0.3584  0.4915
  102OSM    H2G10355   3.741   0.482  10.454 -0.8235 -1.1275 -0.2982
  102OSM    C3F10356   3.555   0.513  10.354 -0.5804 -0.3938  0.5956
  102OSM    H3F10357   3.595   0.600  10.296  0.5716 -0.2611  1.5443
  102OSM    H3G10358   3.446   0.519  10.374 -0.9160 -1.0403 -0.9063
  102OSM    C4F10359   3.570   0.390  10.272 -0.2548  0.1748  0.1757
  102OSM    H4F10360   3.559   0.296  10.329  0.4859 -0.8519 -1.3203
  102OSM    H4G10361   3.669   0.384  10.220 -0.2169 -1.6589  0.3985
  102OSM    C5F10362   3.464   0.382  10.157  0.1331  0.6425 -0.4269
  102OSM    H5F10363   3.371   0.403  10.215  1.8220  1.4986  2.1873
  102OSM    H5G10364   3.458   0.275  10.127  0.1212 -0.1688  2.2088
  102OSM    C6F10365   3.492   0.477  10.046  0.4987 -0.9098 -1.1064
  102OSM    H6F10366   3.588   0.454   9.996 -0.9416  0.1870 -4.6841
  102OSM    H6G10367   3.501   0.583  10.077  1.2278 -1.0173 -0.9333
  102OSM    C7F10368   3.386   0.472   9.935  0.5346 -0.0086 -0.8501
  102OSM    H7F10369   3.283   0.497   9.967  1.3845 -0.1555  2.2935
  102OSM    H7G10370   3.378   0.363   9.912 -0.8059 -0.3403  0.9417
  102OSM    C8F10371   3.416   0.544   9.809 -0.0534 -0.2930  0.3555
  102OSM    H8F10372   3.450   0.644   9.843  0.7968 -0.4443 -0.0184
  102OSM    H8G10373   3.325   0.574   9.751  0.6890  1.2729 -0.0608
  102OSM    C9F10374   3.514   0.484   9.712  0.1282 -0.2989  0.0858
  102OSM    H9F10375   3.551   0.384   9.735 -0.3934 -0.9341 -1.6636
  102OSM   C10F10376   3.574   0.550   9.616  0.6360  0.5892 -0.1792
  102OSM   H10F10377   3.635   0.490   9.547  0.4616 -0.6189  0.6799
  102OSM   C11F10378   3.560   0.696   9.581 -0.1153 -0.3796  0.2917
  102OSM   H11F10379   3.656   0.752   9.592  0.4798 -1.0595 -1.2591
  102OSM   H11G10380   3.500   0.758   9.651  4.1940  3.3225  1.2463
  102OSM   C12F10381   3.506   0.719   9.440  0.1894  0.4639  0.3201
  102OSM   H12F10382   3.494   0.829   9.435 -0.9009  0.3499  0.2868
  102OSM   H12G10383   3.408   0.669   9.426 -0.0448  1.1051 -0.3745
  102OSM   C13F10384   3.602   0.676   9.324  0.1340 -0.0922  0.6710
  102OSM   H13F10385   3.618   0.566   9.325  2.7585  0.2270  1.7825
  102OSM   H13G10386   3.697   0.731   9.340  0.7007 -1.5919  2.9924
  102OSM   C14F10387   3.550   0.726   9.187 -0.4272  0.0972  0.0527
  102OSM   H14F10388   3.550   0.836   9.178  2.7742  0.0703 -1.9631
  102OSM   H14G10389   3.445   0.690   9.178  0.0620 -2.2721  2.5813
  102OSM   C15F10390   3.644   0.674   9.083  0.2764 -0.0512  0.4984
  102OSM   H15F10391   3.658   0.564   9.094  1.9876 -0.1285 -1.7628
  102OSM   H15G10392   3.748   0.702   9.112  0.8412 -2.0809  0.5555
  102OSM   C16F10393   3.608   0.728   8.943 -0.2889  0.1241  0.6421
  102OSM   H16F10394   3.615   0.839   8.950  0.6929  0.1715 -0.7784
  102OSM   H16G10395   3.506   0.697   8.912  0.0253  0.3954 -0.7383
  102OSM   C17F10396   3.699   0.691   8.831 -0.0278  0.0952 -0.0508
  102OSM   H17F10397   3.806   0.710   8.855 -0.1589 -0.0009  0.6529
  102OSM   H17G10398   3.679   0.758   8.744  0.2187 -1.1900 -1.1188
  102OSM   C18F10399   3.681   0.547   8.782 -0.0308  0.1812  0.3386
  102OSM   H18F10400   3.783   0.522   8.746  0.4358  1.3532  0.7956
  102OSM   H18G10401   3.608   0.538   8.699 -1.0432  2.6363  0.8640
  102OSM   H18H10402   3.648   0.487   8.870 -0.7488 -1.0904 -0.7606
  103OSM      N10403   6.309   0.245  10.719  0.0041  0.2154  0.5602
  103OSM    C1510404   6.252   0.145  10.821  0.2599  0.2151 -0.4935
  103OSM   H15A10405   6.227   0.054  10.769  1.0186  1.6979 -3.7277
  103OSM   H15B10406   6.164   0.168  10.879 -0.6092 -0.8174 -1.3838
  103OSM   H15C10407   6.329   0.109  10.887 -0.8851 -1.4324  0.0078
  103OSM    C1410408   6.379   0.356  10.795 -0.6589 -0.1528  0.2726
  103OSM   H14A10409   6.441   0.417  10.730 -0.4373  0.0450  0.6630
  103OSM   H14B10410   6.438   0.315  10.876  1.1963 -1.1677 -1.4825
  103OSM   H14C10411   6.308   0.423  10.840 -0.2441  0.6079 -0.1786
  103OSM    C1310412   6.427   0.184  10.648 -0.6115  0.1966  0.0703
  103OSM   H13A10413   6.508   0.160  10.715  0.9137  0.0872 -1.7365
  103OSM   H13B10414   6.466   0.259  10.581  0.7740 -1.6990 -1.3751
  103OSM   H13C10415   6.403   0.091  10.597  1.4063 -0.1032 -0.4390
  103OSM    C1210416   6.196   0.288  10.622 -0.3279  0.1559 -0.0304
  103OSM   H12A10417   6.166   0.203  10.564 -0.4343  1.3184 -1.7452
  103OSM   H12B10418   6.243   0.357  10.554  1.1864 -1.8087 -1.0696
  103OSM    C1110419   6.069   0.349  10.687 -0.6069 -0.3909 -0.0745
  103OSM   H11A10420   6.022   0.284  10.764  1.3149  1.1111  2.5424
  103OSM   H11B10421   5.987   0.366  10.614 -1.7543 -0.7783  1.0687
  103OSM      P10422   6.043   0.609  10.756  0.0965  0.1150 -0.0470
  103OSM    O1310423   5.930   0.614  10.848 -0.2966 -0.0448  0.2514
  103OSM    O1410424   6.148   0.716  10.764  0.6074  0.3806 -0.6516
  103OSM    O1110425   5.969   0.613  10.610  0.4028  0.1406  0.5302
  103OSM    O1210426   6.112   0.469  10.765  0.1905 -0.8079  0.0644
  103OSM    C1S10427   6.035   0.659  10.492 -0.6340 -0.2740  0.4114
  103OSM    H1S10428   6.144   0.658  10.510 -0.5072  0.1881 -0.2421
  103OSM    H1T10429   6.016   0.767  10.470  0.8199 -0.1090 -0.1001
  103OSM     NF10430   6.110   0.586  10.261 -0.5772 -0.2360 -0.2138
  103OSM    HNF10431   6.078   0.647  10.189 -1.2941 -1.4121 -0.9189
  103OSM    C2S10432   6.008   0.567  10.371  0.4139 -0.3633  0.1286
  103OSM    H2S10433   6.016   0.462  10.407  1.4410 -0.6496 -0.8796
  103OSM    C3S10434   5.864   0.596  10.325  0.5134 -0.0182 -0.2815
  103OSM    H3S10435   5.855   0.702  10.293  0.1856 -0.4608 -1.7454
  103OSM     O310436   5.776   0.592  10.435  0.0355 -0.2449 -0.1778
  103OSM    HO310437   5.838   0.587  10.508  0.3619 -0.7576 -0.4822
  103OSM    C4S10438   5.827   0.504  10.216 -0.1285  0.6583  0.9665
  103OSM    H4S10439   5.862   0.538  10.118  2.3047 -1.7161  0.8942
  103OSM    C5S10440   5.743   0.395  10.224 -0.5229  0.0996 -0.3331
  103OSM    H5S10441   5.706   0.358  10.320 -2.5339  1.6276 -0.4602
  103OSM    C6S10442   5.704   0.292  10.113  0.0825  0.0343  0.1063
  103OSM    H6S10443   5.596   0.276  10.131 -0.1267  2.2631  1.2304
  103OSM    H6T10444   5.748   0.194  10.142  1.3078 -0.0354 -1.7994
  103OSM    C7S10445   5.721   0.324   9.965 -0.0568 -0.1339 -0.1405
  103OSM    H7S10446   5.830   0.332   9.945 -0.3007 -1.9208 -2.6333
  103OSM    H7T10447   5.658   0.413   9.946  0.1353  0.7778  3.0405
  103OSM    C8S10448   5.667   0.214   9.867 -1.0903 -0.1445  0.0982
  103OSM    H8S10449   5.571   0.175   9.907 -2.1257  0.2865 -1.8498
  103OSM    H8T10450   5.748   0.139   9.860 -0.0320  1.1002 -2.1686
  103OSM    C9S10451   5.634   0.265   9.723 -0.2283  0.7255  1.3120
  103OSM    H9S10452   5.732   0.288   9.678 -0.1901 -1.0165  0.4388
  103OSM    H9T10453   5.592   0.368   9.731 -2.9804 -0.2138  0.1749
  103OSM   C10S10454   5.546   0.172   9.644  0.2942 -0.5956 -0.0281
  103OSM   H10S10455   5.445   0.171   9.690  0.6142 -2.9940  0.7494
  103OSM   H10T10456   5.586   0.069   9.652  2.4110  0.2584  1.4795
  103OSM   C11S10457   5.531   0.210   9.502  0.1787  0.0142 -0.1472
  103OSM   H11S10458   5.460   0.293   9.483 -0.6087 -0.7629 -0.6766
  103OSM   H11T10459   5.476   0.126   9.455 -0.5505 -1.4892  3.1845
  103OSM   C12S10460   5.656   0.244   9.412 -0.0610 -0.4426  0.8243
  103OSM   H12S10461   5.735   0.167   9.423 -0.0133 -0.4892  0.1735
  103OSM   H12T10462   5.679   0.346   9.451 -1.3282  0.0559  0.3316
  103OSM   C13S10463   5.615   0.256   9.261  0.5049  0.0456 -0.1216
  103OSM   H13S10464   5.692   0.298   9.193 -1.2332  0.9155 -1.6245
  103OSM   H13T10465   5.528   0.324   9.270  1.7052  1.8837 -1.6210
  103OSM   C14S10466   5.553   0.131   9.200  0.9498  0.1636  0.5216
  103OSM   H14S10467   5.455   0.099   9.240  0.3768 -1.4819 -1.9347
  103OSM   H14T10468   5.620   0.043   9.215  2.2852  1.1249  0.3172
  103OSM   C15S10469   5.549   0.145   9.049 -0.1859 -0.7553 -0.1358
  103OSM   H15S10470   5.657   0.160   9.025  0.3203 -1.4541  1.5321
  103OSM   H15T10471   5.483   0.231   9.026  0.6526  0.1868  0.8783
  103OSM   C16S10472   5.495   0.022   8.980 -0.3004 -0.1573 -0.3827
  103OSM   H16S10473   5.396  -0.001   9.026 -0.3777 -0.6695 -0.7986
  103OSM   H16T10474   5.559  -0.067   8.995  0.1584  0.6816  4.1978
  103OSM   C17S10475   5.474   0.045   8.824 -0.5235 -0.3424 -0.4930
  103OSM   H17S10476   5.399   0.120   8.789  1.0977  1.3874 -0.4212
  103OSM   H17T10477   5.450  -0.056   8.785 -1.7296 -1.6503  3.1656
  103OSM   C18S10478   5.613   0.078   8.749  0.6203  0.1124  0.8809
  103OSM   H18S10479   5.683  -0.005   8.770  1.7890  1.3284  2.0111
  103OSM   H18T10480   5.655   0.175   8.785  0.8091  0.3726 -0.0115
  103OSM   H18U10481   5.593   0.077   8.639  0.1194  1.5089  0.9373
  103OSM    C1F10482   6.236   0.547  10.271 -0.9298  0.1268 -0.1681
  103OSM     OF10483   6.289   0.514  10.377 -0.2613 -0.4523  0.9907
  103OSM    C2F10484   6.327   0.572  10.150 -0.3746 -0.0659  0.9730
  103OSM    H2F10485   6.436   0.577  10.174 -0.2535  0.2796  0.3609
  103OSM    H2G10486   6.295   0.666  10.101 -0.6355 -0.1122  1.0539
  103OSM    C3F10487   6.324   0.452  10.050  0.0374  0.3485 -0.2099
  103OSM    H3F10488   6.224   0.456  10.001 -1.1752 -0.7297  1.9879
  103OSM    H3G10489   6.315   0.360  10.112 -0.1187  1.1837  1.0720
  103OSM    C4F10490   6.417   0.450   9.926 -0.9055  0.4120 -0.5385
  103OSM    H4F10491   6.518   0.473   9.966 -1.2637  1.3850 -0.1474
  103OSM    H4G10492   6.403   0.526   9.846  2.3063  1.8831  0.0941
  103OSM    C5F10493   6.443   0.317   9.855 -0.0031 -0.4582 -0.5590
  103OSM    H5F10494   6.344   0.271   9.833  0.3010 -1.6781  0.5098
  103OSM    H5G10495   6.497   0.248   9.923  0.2467 -2.6487 -2.8217
  103OSM    C6F10496   6.534   0.338   9.731 -0.3769 -0.1891 -0.2634
  103OSM    H6F10497   6.623   0.272   9.742 -1.2895 -1.1810  1.8082
  103OSM    H6G10498   6.587   0.435   9.734 -1.1804  0.2573  2.2321
  103OSM    C7F10499   6.463   0.327   9.595  0.5086 -0.0236  0.7664
  103OSM    H7F10500   6.369   0.383   9.579 -0.0519 -1.4171 -1.2476
  103OSM    H7G10501   6.445   0.217   9.587 -0.5409  0.2792 -2.4265
  103OSM    C8F10502   6.551   0.363   9.475  0.5960 -0.2338  0.0381
  103OSM    H8F10503   6.645   0.311   9.502 -0.0966 -0.9541  1.0946
  103OSM    H8G10504   6.565   0.473   9.472 -0.5012 -0.0849 -2.8286
  103OSM    C9F10505   6.502   0.317   9.345 -0.9459  0.1504 -0.4684
  103OSM    H9F10506   6.397   0.287   9.357 -0.9363  0.3076  0.0194
  103OSM   C10F10507   6.573   0.290   9.238  0.1915 -0.0048  0.0428
  103OSM   H10F10508   6.521   0.257   9.146  1.9875 -1.0140 -0.6707
  103OSM   C11F10509   6.721   0.324   9.218  0.6084 -0.6191  0.0572
  103OSM   H11F10510   6.800   0.260   9.263  0.4239 -1.5937 -0.9574
  103OSM   H11G10511   6.743   0.424   9.262 -1.6676  0.2033 -0.5374
  103OSM   C12F10512   6.758   0.325   9.063 -0.0832  0.5165 -0.7631
  103OSM   H12F10513   6.759   0.218   9.032  1.0738  0.2158  0.2442
  103OSM   H12G10514   6.858   0.368   9.041 -0.1194  0.2864 -1.3886
  103OSM   C13F10515   6.665   0.412   8.976 -0.5048  0.5375 -0.4684
  103OSM   H13F10516   6.555   0.405   8.987 -0.4089  0.3493  0.4392
  103OSM   H13G10517   6.679   0.519   9.005  2.7479  0.6325 -1.9633
  103OSM   C14F10518   6.680   0.390   8.819  0.4060 -0.5727 -0.4430
  103OSM   H14F10519   6.657   0.285   8.793 -1.9981 -0.4823  1.0349
  103OSM   H14G10520   6.789   0.399   8.798  0.7175 -2.8292 -0.0658
  103OSM   C15F10521   6.592   0.477   8.729 -0.2377  0.5185 -0.0438
  103OSM   H15F10522   6.616   0.435   8.629 -0.2039 -1.1576  0.6266
  103OSM   H15G10523   6.622   0.584   8.737 -1.4616  0.8346  0.5005
  103OSM   C16F10524   6.436   0.467   8.743  0.2638 -0.0090 -0.1333
  103OSM   H16F10525   6.382   0.535   8.673  2.1596 -0.4750 -2.1732
  103OSM   H16G10526   6.422   0.505   8.846 -1.0317  0.1525 -0.3518
  103OSM   C17F10527   6.387   0.324   8.746  0.4148 -0.1458 -0.2057
  103OSM   H17F10528   6.278   0.327   8.772  0.5238 -0.6354  0.3193
  103OSM   H17G10529   6.444   0.269   8.824 -1.1585 -0.1914  0.9610
  103OSM   C18F10530   6.412   0.257   8.607 -0.1317  0.9264  0.2563
  103OSM   H18F10531   6.384   0.150   8.622  3.1300 -0.3088 -1.5632
  103OSM   H18G10532   6.517   0.257   8.571 -0.8393  2.0952 -1.9990
  103OSM   H18H10533   6.340   0.301   8.535 -1.1614  0.8626  1.2158
  104OSM      N10534   1.857   2.762  11.233  0.2345  0.4067 -0.3944
  104OSM    C1510535   1.773   2.736  11.359  0.1490 -0.3208 -0.1642
  104OSM   H15A10536   1.799   2.644  11.410 -0.8283 -1.1307 -1.0780
  104OSM   H15B10537   1.669   2.719  11.332  0.4407  0.0181 -1.5664
  104OSM   H15C10538   1.775   2.810  11.437  0.3259 -1.4220  0.9112
  104OSM    C1410539   1.817   2.895  11.193 -0.1422 -0.9757 -0.0962
  104OSM   H14A10540   1.711   2.913  11.188  0.5030  4.9126  0.0428
  104OSM   H14B10541   1.860   2.930  11.101 -2.0161  1.1331 -0.2520
  104OSM   H14C10542   1.843   2.969  11.267  0.0233 -1.9014  0.8001
  104OSM    C1310543   2.001   2.765  11.261  0.1685 -0.3144 -0.1337
  104OSM   H13A10544   2.025   2.853  11.319  0.8163  0.3064 -1.2982
  104OSM   H13B10545   2.052   2.754  11.167 -0.3149  0.3002 -0.4795
  104OSM   H13C10546   2.028   2.678  11.318 -1.0637 -1.5276 -1.3199
  104OSM    C1210547   1.821   2.675  11.121  1.2320 -0.0037 -0.2131
  104OSM   H12A10548   1.718   2.695  11.096  0.9036 -1.6396 -0.2934
  104OSM   H12B10549   1.824   2.575  11.161  0.1137 -0.1745 -0.5160
  104OSM    C1110550   1.894   2.671  10.983 -0.7640 -0.4514  0.3494
  104OSM   H11A10551   1.917   2.776  10.956 -1.4310 -0.3632  0.1007
  104OSM   H11B10552   1.833   2.640  10.896 -0.3357  1.3869 -0.6451
  104OSM      P10553   2.030   2.453  10.942 -0.2181 -0.3351 -0.0072
  104OSM    O1310554   2.066   2.378  11.061  0.0504 -0.3885  0.3356
  104OSM    O1410555   1.901   2.410  10.875 -0.1272 -1.0343 -0.7440
  104OSM    O1110556   2.144   2.459  10.832 -0.1000 -0.5752 -0.2737
  104OSM    O1210557   2.019   2.602  10.986 -0.2605  0.9037 -0.0373
  104OSM    C1S10558   2.121   2.520  10.706 -0.0963  0.5382  0.1287
  104OSM    H1S10559   2.170   2.619  10.711 -0.1646  0.6711 -1.2902
  104OSM    H1T10560   2.014   2.526  10.675 -1.3646  0.6504  4.0235
  104OSM     NF10561   2.212   2.504  10.476 -0.2457  0.1938 -0.3561
  104OSM    HNF10562   2.175   2.476  10.387 -0.2167  0.5291 -0.4723
  104OSM    C2S10563   2.196   2.429  10.599  0.0672 -0.1758 -0.4610
  104OSM    H2S10564   2.294   2.418  10.649  0.4393  1.6450 -0.7279
  104OSM    C3S10565   2.123   2.296  10.577  0.7821  0.3115 -0.4883
  104OSM    H3S10566   2.014   2.310  10.564  0.8285  0.7930 -0.3635
  104OSM     O310567   2.135   2.221  10.705 -0.0940  0.2672  0.0098
  104OSM    HO310568   2.155   2.290  10.768  1.8920  0.1237 -0.3668
  104OSM    C4S10569   2.174   2.206  10.469 -0.2124 -0.0602  0.2501
  104OSM    H4S10570   2.261   2.144  10.494  1.5873  1.8081 -1.0436
  104OSM    C5S10571   2.109   2.195  10.355  0.5357 -0.1638  0.2580
  104OSM    H5S10572   2.016   2.248  10.329  2.0441  1.3884 -2.3699
  104OSM    C6S10573   2.148   2.103  10.245  0.1206  0.1355 -0.0678
  104OSM    H6S10574   2.173   2.154  10.150 -2.1697 -2.0110 -1.9830
  104OSM    H6T10575   2.062   2.037  10.219 -1.1464  2.4259 -2.0523
  104OSM    C7S10576   2.264   2.005  10.271  0.7936  0.5560 -0.3381
  104OSM    H7S10577   2.270   1.977  10.379  2.1579 -2.5068 -1.1082
  104OSM    H7T10578   2.357   2.053  10.235  1.2658  0.9592  1.3394
  104OSM    C8S10579   2.243   1.874  10.187  0.1446 -0.2616  0.0296
  104OSM    H8S10580   2.137   1.847  10.205  1.2403 -3.1095  3.1542
  104OSM    H8T10581   2.312   1.797  10.228  1.2390  0.7712  0.1908
  104OSM    C9S10582   2.271   1.895  10.036 -0.1621  0.4186 -0.0177
  104OSM    H9S10583   2.381   1.907  10.024  0.0949 -0.7509  1.0047
  104OSM    H9T10584   2.226   1.988   9.996  1.6551  0.6911 -1.5931
  104OSM   C10S10585   2.225   1.771   9.953  0.3849  0.0970  0.6622
  104OSM   H10S10586   2.114   1.761   9.959  0.0637  1.7396 -1.4116
  104OSM   H10T10587   2.276   1.677   9.983  0.7945  0.1934  0.2738
  104OSM   C11S10588   2.278   1.819   9.813  0.1406  0.7526 -0.6612
  104OSM   H11S10589   2.378   1.867   9.823  0.4213 -0.2236  2.6220
  104OSM   H11T10590   2.203   1.891   9.776 -0.4362 -0.1900 -1.3874
  104OSM   C12S10591   2.268   1.716   9.699 -0.4176  0.4583 -0.3157
  104OSM   H12S10592   2.162   1.688   9.677 -0.6179  0.8954  0.0864
  104OSM   H12T10593   2.316   1.621   9.729 -0.8219  0.7181  1.2198
  104OSM   C13S10594   2.317   1.782   9.567  1.0807 -0.0030 -0.2818
  104OSM   H13S10595   2.427   1.796   9.569  0.9399  1.4873 -1.3574
  104OSM   H13T10596   2.265   1.877   9.541  1.0865 -0.7298 -3.1925
  104OSM   C14S10597   2.286   1.678   9.455  0.6513  0.4451 -0.3267
  104OSM   H14S10598   2.178   1.671   9.431  0.4339 -0.9004  0.8895
  104OSM   H14T10599   2.323   1.579   9.488  0.5229  0.6135  0.3563
  104OSM   C15S10600   2.356   1.711   9.321 -0.0185 -0.1317  0.3639
  104OSM   H15S10601   2.466   1.719   9.332  0.5833 -2.5313 -2.5768
  104OSM   H15T10602   2.322   1.808   9.279 -1.1581 -1.4757 -2.0357
  104OSM   C16S10603   2.342   1.602   9.215 -0.1766 -0.4165 -0.4295
  104OSM   H16S10604   2.328   1.659   9.120 -0.2679  1.3406  0.5809
  104OSM   H16T10605   2.246   1.547   9.224 -0.4575 -0.5267 -3.1913
  104OSM   C17S10606   2.460   1.504   9.208 -1.0542  0.6262 -0.3525
  104OSM   H17S10607   2.468   1.448   9.304 -0.5208  3.3880  1.3170
  104OSM   H17T10608   2.555   1.559   9.192  0.2810 -0.6230  2.4885
  104OSM   C18S10609   2.453   1.404   9.094  0.2326  0.1292 -0.2938
  104OSM   H18S10610   2.532   1.326   9.105 -0.0951 -0.0550  0.8566
  104OSM   H18T10611   2.464   1.461   8.999 -0.0882 -0.7648 -0.8875
  104OSM   H18U10612   2.355   1.351   9.095  0.6716 -0.7144  1.1562
  104OSM    C1F10613   2.284   2.616  10.474 -0.1751 -0.3666  0.6851
  104OSM     OF10614   2.373   2.640  10.557 -0.3225 -0.4050  0.2798
  104OSM    C2F10615   2.264   2.696  10.351 -0.4303  0.1776  0.9973
  104OSM    H2F10616   2.162   2.738  10.362 -0.8022 -0.3205 -0.3035
  104OSM    H2G10617   2.273   2.630  10.262 -0.4186  1.0834  0.3075
  104OSM    C3F10618   2.368   2.808  10.336 -0.0928  0.9638  0.1148
  104OSM    H3F10619   2.479   2.799  10.345  0.1429  3.0069 -0.2743
  104OSM    H3G10620   2.334   2.874  10.419  1.0161  1.8622 -0.1129
  104OSM    C4F10621   2.356   2.882  10.199  0.4058 -0.1645 -0.7398
  104OSM    H4F10622   2.399   2.984  10.209 -2.2245  1.1246 -1.5429
  104OSM    H4G10623   2.249   2.888  10.169  0.0085  0.4169  0.6836
  104OSM    C5F10624   2.436   2.812  10.095  0.3370  0.2114  0.1946
  104OSM    H5F10625   2.421   2.702  10.092  0.2533  0.1407  2.0944
  104OSM    H5G10626   2.539   2.825  10.136 -0.1550  1.0429  1.2013
  104OSM    C6F10627   2.412   2.868   9.953  0.3368 -0.0249  0.4796
  104OSM    H6F10628   2.411   2.977   9.972  0.3424 -0.3726  2.7692
  104OSM    H6G10629   2.311   2.836   9.921  0.5351  0.7116 -0.9363
  104OSM    C7F10630   2.538   2.831   9.864  0.6525 -0.3709 -0.0643
  104OSM    H7F10631   2.555   2.722   9.855  0.4982 -0.3830 -0.2203
  104OSM    H7G10632   2.624   2.868   9.924  0.0367 -1.3944  1.5156
  104OSM    C8F10633   2.545   2.888   9.719  0.6344  0.0294  0.0830
  104OSM    H8F10634   2.640   2.856   9.671 -0.7624 -2.9412 -0.9058
  104OSM    H8G10635   2.531   2.998   9.731 -1.2763  0.1639 -2.4514
  104OSM    C9F10636   2.428   2.831   9.637  0.3215 -0.3029  0.6718
  104OSM    H9F10637   2.341   2.821   9.703  0.3597 -0.7226  0.6599
  104OSM   C10F10638   2.431   2.794   9.513 -0.1221 -0.1908  0.0112
  104OSM   H10F10639   2.338   2.748   9.478  0.4547  0.0694 -1.9354
  104OSM   C11F10640   2.542   2.801   9.409  0.4703 -0.2920  0.0229
  104OSM   H11F10641   2.636   2.799   9.469 -0.1551  0.7886  1.0688
  104OSM   H11G10642   2.537   2.893   9.348  1.0359  0.1424  0.6244
  104OSM   C12F10643   2.539   2.691   9.311 -0.6150 -0.2014 -0.0046
  104OSM   H12F10644   2.523   2.590   9.353 -1.6226 -0.5141 -1.0826
  104OSM   H12G10645   2.642   2.695   9.271 -0.1608 -1.8492  0.9427
  104OSM   C13F10646   2.432   2.694   9.206  0.0871 -0.6567 -0.0684
  104OSM   H13F10647   2.398   2.799   9.191  0.9509 -0.2768  0.4817
  104OSM   H13G10648   2.349   2.627   9.237 -1.0102  1.2248  1.3040
  104OSM   C14F10649   2.490   2.653   9.069 -0.0949 -0.1113  0.2926
  104OSM   H14F10650   2.529   2.550   9.075  1.3709  0.3966 -0.1002
  104OSM   H14G10651   2.578   2.715   9.040 -0.0748 -0.9827 -1.7104
  104OSM   C15F10652   2.392   2.655   8.954 -0.0740  0.0347 -0.5099
  104OSM   H15F10653   2.329   2.747   8.950  1.8485  1.3896 -1.9895
  104OSM   H15G10654   2.317   2.579   8.983 -1.9765  2.1952  0.5994
  104OSM   C16F10655   2.461   2.615   8.818 -0.1089 -0.2047  0.1503
  104OSM   H16F10656   2.496   2.510   8.816  2.8954  0.6936 -1.1072
  104OSM   H16G10657   2.561   2.661   8.802 -0.9741  0.8565 -3.1094
  104OSM   C17F10658   2.383   2.647   8.692  0.2518 -0.5949  0.4637
  104OSM   H17F10659   2.331   2.743   8.710 -1.6533 -1.0287 -2.0463
  104OSM   H17G10660   2.295   2.579   8.689 -1.4497  1.4708 -2.7096
  104OSM   C18F10661   2.461   2.636   8.560  0.4356 -0.2105  0.5324
  104OSM   H18F10662   2.395   2.636   8.471  1.5012 -0.5456 -0.2808
  104OSM   H18G10663   2.536   2.554   8.558  3.6277  2.4191  2.1280
  104OSM   H18H10664   2.518   2.730   8.544 -0.6136  0.3925  0.1926
  105OSM      N10665   1.022   2.742  10.861  0.2659  0.1900  0.2849
  105OSM    C1510666   1.007   2.590  10.872  0.4836  1.0370 -0.2163
  105OSM   H15A10667   1.089   2.550  10.930  0.1139 -2.8652 -2.0065
  105OSM   H15B10668   1.022   2.536  10.779 -1.4065 -0.3999  0.2473
  105OSM   H15C10669   0.919   2.560  10.926  2.6318  0.7309  3.4406
  105OSM    C1410670   0.991   2.776  10.713 -0.3926 -0.1740 -0.1410
  105OSM   H14A10671   1.058   2.726  10.645  0.9212  1.4892 -0.1201
  105OSM   H14B10672   0.982   2.881  10.693 -2.6756 -0.3385 -0.2688
  105OSM   H14C10673   0.892   2.735  10.693  0.0055 -1.2942  0.0853
  105OSM    C1310674   0.912   2.810  10.942  0.8829 -0.0797  0.4949
  105OSM   H13A10675   0.934   2.799  11.047  1.9391 -1.0392  0.2041
  105OSM   H13B10676   0.817   2.762  10.923  0.6846 -0.2582  1.8750
  105OSM   H13C10677   0.897   2.912  10.910 -0.4858 -0.9797 -2.0602
  105OSM    C1210678   1.166   2.785  10.893  0.8356  0.4184  0.1182
  105OSM   H12A10679   1.168   2.893  10.881  1.0326  0.5747  1.4280
  105OSM   H12B10680   1.233   2.735  10.825 -0.3001 -0.6504 -0.2618
  105OSM    C1110681   1.221   2.752  11.036 -0.2133  1.4815  0.0168
  105OSM   H11A10682   1.147   2.765  11.118 -1.8516 -0.6032 -1.0251
  105OSM   H11B10683   1.308   2.819  11.053  0.6915  0.3141  0.1246
  105OSM      P10684   1.402   2.562  10.984  0.2758  0.0505  0.2553
  105OSM    O1310685   1.518   2.618  11.052 -0.1262  0.2419  0.1169
  105OSM    O1410686   1.394   2.413  10.982  0.1422  0.9441 -0.0145
  105OSM    O1110687   1.400   2.609  10.830 -0.0032 -0.5048 -0.2832
  105OSM    O1210688   1.262   2.614  11.037  0.2676 -0.7293 -0.5812
  105OSM    C1S10689   1.480   2.710  10.773 -0.0544 -0.0244 -0.4323
  105OSM    H1S10690   1.584   2.690  10.805  0.9237  2.5059 -1.7208
  105OSM    H1T10691   1.467   2.816  10.807  1.5485  1.0137 -2.8327
  105OSM     NF10692   1.592   2.805  10.572  0.1173  0.6312 -0.0906
  105OSM    HNF10693   1.556   2.895  10.547  0.4188  0.8789  0.3545
  105OSM    C2S10694   1.490   2.714  10.619 -0.2758 -0.1274  0.0968
  105OSM    H2S10695   1.509   2.614  10.576  2.6415  0.1036  0.6371
  105OSM    C3S10696   1.344   2.744  10.555  0.1352  0.3040  0.1278
  105OSM    H3S10697   1.298   2.833  10.603 -0.8665 -0.8881  1.4642
  105OSM     O310698   1.255   2.633  10.585  0.4091 -0.1433 -0.3774
  105OSM    HO310699   1.321   2.584  10.635  1.7940  0.3679 -1.6590
  105OSM    C4S10700   1.358   2.769  10.407 -0.2424  0.5228 -0.3827
  105OSM    H4S10701   1.388   2.682  10.347  1.4727  2.0099 -1.8038
  105OSM    C5S10702   1.336   2.892  10.351  0.2541  0.0142  0.1524
  105OSM    H5S10703   1.305   2.970  10.421  2.1877  0.7536  0.2517
  105OSM    C6S10704   1.350   2.921  10.205  0.0592  0.2781 -0.2552
  105OSM    H6S10705   1.437   2.988  10.188  0.5391 -0.4586 -0.7956
  105OSM    H6T10706   1.273   2.984  10.156  0.6436 -0.6086 -2.4224
  105OSM    C7S10707   1.369   2.798  10.109  0.5507  1.1944 -0.1790
  105OSM    H7S10708   1.297   2.717  10.132 -2.6065  3.7399 -0.4382
  105OSM    H7T10709   1.476   2.766  10.112  0.6128  1.4196  0.0279
  105OSM    C8S10710   1.334   2.835   9.966  0.4224  0.0438 -0.2663
  105OSM    H8S10711   1.365   2.939   9.946 -1.8925  0.3231 -3.0990
  105OSM    H8T10712   1.224   2.831   9.950 -0.1940  2.6628  2.4246
  105OSM    C9S10713   1.403   2.734   9.874  0.1312 -0.6380 -0.1588
  105OSM    H9S10714   1.373   2.633   9.908  0.9910 -0.8200  0.1020
  105OSM    H9T10715   1.514   2.745   9.880 -0.1777  3.5730  2.2704
  105OSM   C10S10716   1.363   2.761   9.729 -0.3211  0.6805 -0.9922
  105OSM   H10S10717   1.254   2.742   9.720 -0.2608  0.3185 -0.9970
  105OSM   H10T10718   1.404   2.681   9.663 -1.6998  0.4003 -1.5444
  105OSM   C11S10719   1.407   2.898   9.677  0.2514  0.4649  0.0213
  105OSM   H11S10720   1.517   2.906   9.665  0.2032  2.0918  0.5354
  105OSM   H11T10721   1.374   2.983   9.740  0.4058  1.2333 -0.9182
  105OSM   C12S10722   1.349   2.920   9.535 -0.4063 -0.0779  1.1100
  105OSM   H12S10723   1.396   3.012   9.494 -1.2907 -0.2623 -0.3792
  105OSM   H12T10724   1.238   2.926   9.533 -0.4559 -0.6719  1.6903
  105OSM   C13S10725   1.377   2.809   9.429  0.1241 -0.4231 -0.1868
  105OSM   H13S10726   1.330   2.710   9.446  0.5085 -0.7855 -1.2200
  105OSM   H13T10727   1.487   2.799   9.424  0.2320  0.0376  0.8437
  105OSM   C14S10728   1.318   2.848   9.288 -0.2413  0.0521  0.2436
  105OSM   H14S10729   1.344   2.755   9.234 -1.1898 -0.1913  0.2015
  105OSM   H14T10730   1.379   2.924   9.234 -0.6439 -1.2449 -2.1812
  105OSM   C15S10731   1.165   2.861   9.286  0.6149 -0.0070 -0.2837
  105OSM   H15S10732   1.140   2.952   9.344  0.2178  0.5695 -1.3459
  105OSM   H15T10733   1.129   2.770   9.340 -2.6956  1.1586 -0.3034
  105OSM   C16S10734   1.107   2.853   9.144  0.6025 -0.0636 -0.0976
  105OSM   H16S10735   1.166   2.783   9.080 -0.0003 -1.9713  1.3314
  105OSM   H16T10736   1.108   2.959   9.112 -1.1665  0.0273  0.0439
  105OSM   C17S10737   0.960   2.809   9.139  0.0197  0.0074  0.1681
  105OSM   H17S10738   0.901   2.875   9.206 -2.6285 -0.7964 -1.2216
  105OSM   H17T10739   0.957   2.706   9.181  0.8757 -0.2240 -0.3129
  105OSM   C18S10740   0.906   2.820   8.997  0.0647 -0.3159  0.3215
  105OSM   H18S10741   0.978   2.777   8.924 -0.5746  2.6421 -2.2500
  105OSM   H18T10742   0.898   2.925   8.961 -0.8434 -1.5891 -3.7670
  105OSM   H18U10743   0.805   2.780   8.973 -0.6495  0.7659  1.3808
  105OSM    C1F10744   1.721   2.767  10.573  0.5510  0.6199 -0.6426
  105OSM     OF10745   1.743   2.644  10.583  0.0019  0.2663  0.4383
  105OSM    C2F10746   1.830   2.870  10.561 -0.2243  0.3551  0.5012
  105OSM    H2F10747   1.884   2.861  10.658 -1.1222 -0.7218  0.9274
  105OSM    H2G10748   1.768   2.962  10.557 -0.8296 -0.0187  0.9433
  105OSM    C3F10749   1.918   2.841  10.438 -0.1685 -0.2508  0.2161
  105OSM    H3F10750   1.968   2.743  10.453  0.5435  0.4253  2.8047
  105OSM    H3G10751   2.001   2.915  10.433 -0.5019  0.1067 -0.1182
  105OSM    C4F10752   1.841   2.837  10.301  0.2895  0.6586  0.0457
  105OSM    H4F10753   1.756   2.766  10.311  2.6586 -2.2897  0.6883
  105OSM    H4G10754   1.907   2.799  10.220 -0.1703  1.1549 -0.5744
  105OSM    C5F10755   1.798   2.980  10.258 -0.4606  0.1579 -0.0232
  105OSM    H5F10756   1.885   3.047  10.276  0.4443 -0.8964 -0.3599
  105OSM    H5G10757   1.716   3.021  10.321  2.0743  0.6543  3.1999
  105OSM    C6F10758   1.749   2.988  10.107 -0.3721 -0.3003 -0.0232
  105OSM    H6F10759   1.676   3.071  10.095  0.0876  0.0680 -0.3171
  105OSM    H6G10760   1.697   2.893  10.085  2.7778 -1.2410 -5.0047
  105OSM    C7F10761   1.868   3.014  10.008  0.5533 -0.4045 -0.6978
  105OSM    H7F10762   1.949   2.941  10.033 -1.2942 -2.2343  0.2840
  105OSM    H7G10763   1.901   3.119  10.022 -0.9948  0.1331 -0.9776
  105OSM    C8F10764   1.820   2.990   9.861 -0.0689 -0.4342  0.6329
  105OSM    H8F10765   1.748   3.072   9.842 -0.0196 -1.1258 -3.4437
  105OSM    H8G10766   1.760   2.897   9.852  1.1121 -1.0724 -1.9391
  105OSM    C9F10767   1.921   2.998   9.748 -1.0733  0.2161 -0.0999
  105OSM    H9F10768   2.015   2.944   9.769 -2.7422 -1.7978  2.8370
  105OSM   C10F10769   1.907   3.053   9.624  0.3659  0.1512  0.1313
  105OSM   H10F10770   1.994   3.048   9.556  0.2965 -3.0918  0.1422
  105OSM   C11F10771   1.783   3.111   9.567  0.1677 -0.2927  0.8082
  105OSM   H11F10772   1.795   3.212   9.523  1.1266 -1.0933 -0.8790
  105OSM   H11G10773   1.709   3.118   9.650 -0.1693  0.3148  0.4635
  105OSM   C12F10774   1.719   3.021   9.460 -0.5864 -0.1941  0.7782
  105OSM   H12F10775   1.623   3.066   9.426 -1.2798 -2.2552 -0.1002
  105OSM   H12G10776   1.684   2.925   9.504  0.4006  0.4468  3.0878
  105OSM   C13F10777   1.803   3.001   9.340  0.0183 -0.0649 -0.3240
  105OSM   H13F10778   1.864   2.910   9.356 -0.1134  0.1360  1.6113
  105OSM   H13G10779   1.853   3.095   9.307 -2.0753  0.2030 -3.0571
  105OSM   C14F10780   1.712   2.973   9.222 -0.6483  0.2148  0.1620
  105OSM   H14F10781   1.665   3.071   9.200  2.2366  1.8647  0.7199
  105OSM   H14G10782   1.646   2.885   9.237 -2.1782  0.9033 -2.0032
  105OSM   C15F10783   1.802   2.944   9.098 -0.0582 -0.1526 -0.2682
  105OSM   H15F10784   1.871   2.860   9.119 -1.5316 -2.0114 -2.4608
  105OSM   H15G10785   1.862   3.037   9.086 -0.9958  0.9920  2.7591
  105OSM   C16F10786   1.725   2.926   8.967 -0.1174 -0.1781 -0.4268
  105OSM   H16F10787   1.645   3.003   8.967  0.3985  0.3627  0.0712
  105OSM   H16G10788   1.676   2.827   8.964 -0.3232 -0.0605 -1.2780
  105OSM   C17F10789   1.823   2.939   8.849  0.7402  0.0989 -0.4603
  105OSM   H17F10790   1.866   3.041   8.852 -1.4170  1.1127 -1.8793
  105OSM   H17G10791   1.762   2.926   8.757  0.3224  1.0845 -0.3310
  105OSM   C18F10792   1.942   2.835   8.846  0.0109 -0.8666  0.3436
  105OSM   H18F10793   1.901   2.735   8.869 -0.0042 -0.3077  2.9930
  105OSM   H18G10794   2.015   2.866   8.924  1.6347 -0.5269 -1.2434
  105OSM   H18H10795   1.995   2.841   8.748 -1.4641 -1.2415 -0.5184
  106OSM      N10796   4.490   6.154  11.060 -1.0432  0.1940  0.2671
  106OSM    C1510797   4.624   6.113  11.123  0.0607  0.2762  0.1385
  106OSM   H15A10798   4.606   6.075  11.223 -0.1967 -0.3699 -0.1515
  106OSM   H15B10799   4.683   6.204  11.130  0.1120  0.3968 -1.4740
  106OSM   H15C10800   4.667   6.028  11.072  0.0675 -1.8068  3.3254
  106OSM    C1410801   4.405   6.034  11.067 -1.0933  1.3487  0.1072
  106OSM   H14A10802   4.311   6.068  11.027 -1.1340  0.9080 -0.1737
  106OSM   H14B10803   4.405   5.985  11.163  0.9307 -0.8103 -0.9031
  106OSM   H14C10804   4.441   5.952  11.007 -1.7278 -0.9853  2.6997
  106OSM    C1310805   4.424   6.256  11.138 -0.5988  0.8760 -1.0599
  106OSM   H13A10806   4.482   6.346  11.149  0.8646 -0.2498  1.6406
  106OSM   H13B10807   4.394   6.216  11.234  0.9869 -0.9411 -1.2431
  106OSM   H13C10808   4.343   6.280  11.072 -1.0991 -1.9495 -1.5952
  106OSM    C1210809   4.517   6.203  10.920 -0.4918 -0.1055  0.6961
  106OSM   H12A10810   4.583   6.129  10.876  1.3344  1.0649  1.3478
  106OSM   H12B10811   4.567   6.298  10.922 -0.0110 -0.3329 -0.1323
  106OSM    C1110812   4.396   6.232  10.834 -0.8790  0.2078 -0.5727
  106OSM   H11A10813   4.330   6.142  10.835  1.0185 -1.2307  0.2132
  106OSM   H11B10814   4.440   6.235  10.732 -0.6579 -0.4552 -0.5079
  106OSM      P10815   4.385   6.490  10.835 -0.0406 -0.1696 -0.2303
  106OSM    O1310816   4.338   6.596  10.925  0.2283  0.3355 -0.4896
  106OSM    O1410817   4.531   6.471  10.822  0.4913 -0.0617 -0.2000
  106OSM    O1110818   4.340   6.524  10.686 -0.2067 -0.0671  0.1952
  106OSM    O1210819   4.318   6.349  10.864 -0.0334 -0.3251  0.4779
  106OSM    C1S10820   4.220   6.467  10.639 -0.7963 -0.6113 -0.3654
  106OSM    H1S10821   4.137   6.525  10.685 -0.2258  2.7931 -3.2367
  106OSM    H1T10822   4.216   6.357  10.657 -0.1385 -0.5613  0.1377
  106OSM     NF10823   4.066   6.465  10.464 -0.1223  0.0556  0.2138
  106OSM    HNF10824   4.038   6.375  10.431 -1.1950  0.0212  1.1740
  106OSM    C2S10825   4.208   6.484  10.487  0.8631 -0.2374 -0.0129
  106OSM    H2S10826   4.233   6.586  10.451 -1.2477  0.4604  0.3277
  106OSM    C3S10827   4.299   6.376  10.429  0.2461 -0.4269 -0.0834
  106OSM    H3S10828   4.258   6.278  10.461  0.8874 -0.8800 -0.5985
  106OSM     O310829   4.423   6.355  10.495 -0.4244 -0.2923 -0.6528
  106OSM    HO310830   4.423   6.418  10.566 -0.7667 -1.1265  0.1048
  106OSM    C4S10831   4.298   6.390  10.279 -0.4491  0.2885 -0.3608
  106OSM    H4S10832   4.228   6.322  10.227 -0.2247 -0.4170  0.2464
  106OSM    C5S10833   4.387   6.450  10.201  0.2937  0.2721 -0.1291
  106OSM    H5S10834   4.484   6.481  10.244 -0.2977 -0.4663  1.8746
  106OSM    C6S10835   4.364   6.455  10.050 -0.0109  0.0728 -0.4363
  106OSM    H6S10836   4.350   6.351  10.015  0.1263 -0.0573 -0.1120
  106OSM    H6T10837   4.446   6.504   9.993  0.5347 -0.5629 -0.2092
  106OSM    C7S10838   4.223   6.521  10.034 -0.2087 -1.0067  0.2530
  106OSM    H7S10839   4.219   6.625  10.075 -0.1455 -0.7371 -0.4143
  106OSM    H7T10840   4.139   6.470  10.087 -2.8906  1.1425 -1.5830
  106OSM    C8S10841   4.177   6.514   9.888  0.1574 -0.4559  0.0872
  106OSM    H8S10842   4.086   6.573   9.863  0.3946  0.3431  1.0773
  106OSM    H8T10843   4.154   6.407   9.870 -2.9078  0.0775  0.3995
  106OSM    C9S10844   4.273   6.569   9.781 -0.2205 -0.0451  0.1210
  106OSM    H9S10845   4.365   6.510   9.799  1.3725  2.4321  0.4832
  106OSM    H9T10846   4.303   6.674   9.798  0.7037 -0.1006 -1.0540
  106OSM   C10S10847   4.222   6.554   9.638 -0.7440 -0.4635 -0.0813
  106OSM   H10S10848   4.144   6.632   9.625 -0.7815 -0.6887 -1.3373
  106OSM   H10T10849   4.176   6.453   9.636 -2.0888  0.0837  1.5283
  106OSM   C11S10850   4.333   6.565   9.532 -0.0037  0.4554  0.3355
  106OSM   H11S10851   4.400   6.653   9.541  1.3741 -0.5190 -0.0705
  106OSM   H11T10852   4.291   6.564   9.429  1.0574 -2.3538 -0.1640
  106OSM   C12S10853   4.435   6.452   9.534  0.1477  0.7177 -0.1136
  106OSM   H12S10854   4.482   6.448   9.634 -0.9328 -2.6645  0.3760
  106OSM   H12T10855   4.513   6.481   9.460 -0.3975 -2.6648 -2.1944
  106OSM   C13S10856   4.385   6.312   9.485  0.3070 -0.4616 -0.0044
  106OSM   H13S10857   4.312   6.265   9.555  1.0186 -2.7790 -0.7328
  106OSM   H13T10858   4.478   6.254   9.498 -0.3039 -1.6514 -0.8465
  106OSM   C14S10859   4.343   6.312   9.337 -0.3662  0.2153  0.4498
  106OSM   H14S10860   4.410   6.357   9.261 -2.2518 -0.8209 -1.9668
  106OSM   H14T10861   4.249   6.370   9.328  1.1453  2.8796  0.7442
  106OSM   C15S10862   4.312   6.164   9.304  0.3808  1.1242 -0.1098
  106OSM   H15S10863   4.227   6.128   9.366  0.5404 -0.6973 -0.8765
  106OSM   H15T10864   4.398   6.096   9.318 -0.6980  0.0717  1.7397
  106OSM   C16S10865   4.263   6.154   9.160 -0.0942 -0.1629 -0.7408
  106OSM   H16S10866   4.330   6.195   9.080 -0.2858 -0.9431 -1.3190
  106OSM   H16T10867   4.170   6.213   9.166  1.0654  1.6750 -0.0975
  106OSM   C17S10868   4.232   6.008   9.130  0.5645  0.5488  0.2083
  106OSM   H17S10869   4.136   5.984   9.181 -0.7876  1.6850 -1.6905
  106OSM   H17T10870   4.312   5.938   9.163  0.6296  0.7868  0.5567
  106OSM   C18S10871   4.210   5.987   8.978  0.2925 -0.4814 -0.0442
  106OSM   H18S10872   4.112   6.032   8.950  1.0419  1.2464 -0.0279
  106OSM   H18T10873   4.204   5.880   8.950  1.9627 -0.4446 -0.6289
  106OSM   H18U10874   4.282   6.035   8.909 -2.6259 -1.8578 -4.4754
  106OSM    C1F10875   3.972   6.555  10.484 -0.4261  0.2750  0.4147
  106OSM     OF10876   4.007   6.670  10.508 -0.4476  0.1990 -0.8900
  106OSM    C2F10877   3.826   6.516  10.480  0.0334  0.2500 -0.0417
  106OSM    H2F10878   3.779   6.570  10.565  1.6179  0.5882  0.6447
  106OSM    H2G10879   3.816   6.405  10.491 -0.3272  0.2453 -0.3799
  106OSM    C3F10880   3.768   6.556  10.345 -0.2510 -0.4524 -0.9426
  106OSM    H3F10881   3.784   6.663  10.318  0.9782 -0.4804 -0.4215
  106OSM    H3G10882   3.660   6.556  10.370  0.1175 -0.1982  0.8181
  106OSM    C4F10883   3.805   6.478  10.220 -0.1208  0.1791 -0.8708
  106OSM    H4F10884   3.807   6.367  10.226  0.1489  0.1146 -1.9840
  106OSM    H4G10885   3.908   6.517  10.205 -0.0632  0.1291 -0.6205
  106OSM    C5F10886   3.720   6.528  10.105 -0.1021  1.2303  0.6672
  106OSM    H5F10887   3.744   6.636  10.095  0.6423  0.9736 -0.5264
  106OSM    H5G10888   3.613   6.512  10.131  0.3171  0.2337  1.8517
  106OSM    C6F10889   3.753   6.470   9.963 -0.1577 -0.6776  0.3234
  106OSM    H6F10890   3.717   6.365   9.963 -1.9925 -0.0973  1.3329
  106OSM    H6G10891   3.862   6.461   9.945 -0.3795 -3.2959 -0.1606
  106OSM    C7F10892   3.696   6.542   9.849 -0.1088  0.5414 -0.6549
  106OSM    H7F10893   3.756   6.518   9.759  2.0858  1.3111  0.5326
  106OSM    H7G10894   3.710   6.653   9.850 -1.0549  0.6782 -1.1040
  106OSM    C8F10895   3.544   6.515   9.821 -0.2829 -0.6966 -0.0021
  106OSM    H8F10896   3.509   6.581   9.739  2.2306 -1.3156 -1.6803
  106OSM    H8G10897   3.490   6.558   9.908  0.7928 -0.0311  0.3661
  106OSM    C9F10898   3.488   6.379   9.792  0.6964  0.6369 -0.0986
  106OSM    H9F10899   3.514   6.302   9.866  1.7471  1.0259 -0.0460
  106OSM   C10F10900   3.422   6.352   9.681  0.4356  0.2910  0.8442
  106OSM   H10F10901   3.384   6.255   9.648  4.2166 -0.9031 -0.5505
  106OSM   C11F10902   3.398   6.443   9.563  0.1065 -0.1886  0.1667
  106OSM   H11F10903   3.423   6.378   9.477  1.0820  0.5365 -0.1076
  106OSM   H11G10904   3.461   6.534   9.559  0.3475 -0.4008 -1.4443
  106OSM   C12F10905   3.252   6.480   9.544 -0.4417  0.4167  0.0901
  106OSM   H12F10906   3.214   6.550   9.622  1.6306  0.3418  1.2326
  106OSM   H12G10907   3.184   6.392   9.543 -2.0988  1.3855  4.2824
  106OSM   C13F10908   3.218   6.577   9.422 -0.0476  0.3058  0.6916
  106OSM   H13F10909   3.264   6.677   9.438 -0.0214  0.7585 -1.8098
  106OSM   H13G10910   3.108   6.574   9.408  0.0924  0.0816 -0.4898
  106OSM   C14F10911   3.284   6.524   9.295 -0.0967  0.3135 -0.1262
  106OSM   H14F10912   3.260   6.416   9.291 -1.8930  0.5968  1.4361
  106OSM   H14G10913   3.395   6.522   9.302 -0.0402 -0.8777 -1.0204
  106OSM   C15F10914   3.256   6.597   9.167  0.1235 -0.3734  0.4164
  106OSM   H15F10915   3.298   6.539   9.082 -0.7902  0.1562 -0.4222
  106OSM   H15G10916   3.300   6.700   9.170  0.9809 -0.7561  2.0036
  106OSM   C16F10917   3.097   6.610   9.144 -0.4353 -0.1937 -0.6701
  106OSM   H16F10918   3.049   6.542   9.218  0.6549 -1.4389 -1.0769
  106OSM   H16G10919   3.079   6.575   9.040 -1.6401  0.1176 -0.5863
  106OSM   C17F10920   3.054   6.759   9.152 -0.1151  0.0750  0.4687
  106OSM   H17F10921   3.111   6.812   9.072  0.5924 -1.4765 -0.0967
  106OSM   H17G10922   3.096   6.804   9.244 -0.6730  2.9478 -0.5755
  106OSM   C18F10923   2.904   6.787   9.154  0.0078 -0.4792 -0.1707
  106OSM   H18F10924   2.873   6.757   9.256 -1.0236 -1.4294 -0.7504
  106OSM   H18G10925   2.863   6.725   9.072  4.2597 -2.3308 -1.2010
  106OSM   H18H10926   2.887   6.892   9.123  0.2514 -0.9074 -1.8500
  107OSM      N10927   5.169   1.306  10.784 -0.2156 -0.2141 -0.0279
  107OSM    C1510928   5.041   1.241  10.812 -0.2932  0.3191 -0.3731
  107OSM   H15A10929   4.995   1.222  10.716 -0.8148  0.2691 -0.1162
  107OSM   H15B10930   4.995   1.322  10.866  2.2779  1.4290  0.3065
  107OSM   H15C10931   5.057   1.154  10.874  0.5798  0.7978  0.0865
  107OSM    C1410932   5.226   1.361  10.907  0.3650  0.2740 -0.2311
  107OSM   H14A10933   5.233   1.288  10.987  0.0466  1.0868  0.5581
  107OSM   H14B10934   5.170   1.448  10.939 -2.4792 -1.1710 -0.9393
  107OSM   H14C10935   5.326   1.397  10.885  0.4746 -0.6061 -1.2160
  107OSM    C1310936   5.268   1.213  10.720  0.0672  0.1594  0.3817
  107OSM   H13A10937   5.362   1.260  10.693 -0.2146 -0.2448 -1.4440
  107OSM   H13B10938   5.219   1.160  10.640 -1.2758 -0.4081  1.5315
  107OSM   H13C10939   5.294   1.142  10.798 -0.8757  1.7866  2.2670
  107OSM    C1210940   5.140   1.426  10.695  0.1617 -0.2086  0.4965
  107OSM   H12A10941   5.103   1.386  10.601 -0.0964 -0.6658  0.7892
  107OSM   H12B10942   5.232   1.476  10.668 -1.0412  0.6325 -2.4806
  107OSM    C1110943   5.024   1.524  10.735 -0.6201 -0.0640  0.2590
  107OSM   H11A10944   4.927   1.472  10.746  0.2904 -1.7575  0.6482
  107OSM   H11B10945   5.001   1.585  10.644 -0.3413 -0.7866 -0.3061
  107OSM      P10946   4.962   1.717  10.887  0.4653  0.1465 -0.4694
  107OSM    O1310947   4.833   1.676  10.941 -0.5162  0.1202  0.2156
  107OSM    O1410948   5.039   1.806  10.970  0.1399 -0.6691  0.2091
  107OSM    O1110949   4.928   1.785  10.750  0.0670  0.3475 -0.1709
  107OSM    O1210950   5.057   1.602  10.854  0.2425 -0.2695  0.2327
  107OSM    C1S10951   5.036   1.860  10.684  0.6899 -0.4772 -0.1886
  107OSM    H1S10952   5.136   1.816  10.707  1.0545 -1.2811 -2.9429
  107OSM    H1T10953   5.036   1.965  10.720  1.2048 -0.8371  0.9002
  107OSM     NF10954   5.119   1.945  10.462  0.0803  0.0616  0.3734
  107OSM    HNF10955   5.089   2.020  10.404 -1.3312 -0.2217  0.7131
  107OSM    C2S10956   5.018   1.870  10.529 -0.3082 -0.1943 -0.4795
  107OSM    H2S10957   5.018   1.769  10.483 -0.9714 -0.6401  0.4613
  107OSM    C3S10958   4.875   1.914  10.496  0.5455  0.2998  0.5310
  107OSM    H3S10959   4.844   2.005  10.553 -3.5863 -1.5817  1.6452
  107OSM     O310960   4.775   1.819  10.544  0.1670 -0.8081  0.3097
  107OSM    HO310961   4.820   1.792  10.625 -0.5796 -0.8679  0.7133
  107OSM    C4S10962   4.852   1.917  10.345 -0.2528 -0.2069 -0.3323
  107OSM    H4S10963   4.837   1.818  10.299 -0.9435  0.8490 -2.5388
  107OSM    C5S10964   4.828   2.024  10.268 -0.2541  0.4748  0.0481
  107OSM    H5S10965   4.824   2.120  10.321 -1.0589  0.5723 -0.1826
  107OSM    C6S10966   4.794   2.026  10.123 -0.1969  1.1623 -0.4904
  107OSM    H6S10967   4.693   2.069  10.106 -0.5906 -0.0741 -1.3902
  107OSM    H6T10968   4.801   1.922  10.085  1.5014  0.3691  1.7825
  107OSM    C7S10969   4.901   2.097  10.040  0.6061 -0.0762  0.1782
  107OSM    H7S10970   4.998   2.048  10.062  0.4481  0.1331  1.4228
  107OSM    H7T10971   4.905   2.205  10.068 -0.8360 -0.4364  2.0178
  107OSM    C8S10972   4.868   2.107   9.888 -0.0771 -0.0869 -0.6441
  107OSM    H8S10973   4.812   2.015   9.859  2.3509 -1.5734 -0.9078
  107OSM    H8T10974   4.964   2.107   9.832  0.7251 -1.9888  0.6088
  107OSM    C9S10975   4.786   2.233   9.859  0.5523  0.3086  0.3128
  107OSM    H9S10976   4.844   2.317   9.902  1.1806 -1.6148  3.5751
  107OSM    H9T10977   4.692   2.224   9.919 -1.1884  0.2618 -2.2595
  107OSM   C10S10978   4.760   2.248   9.708  0.5095 -0.3557 -0.7274
  107OSM   H10S10979   4.687   2.332   9.696 -0.4764 -0.8452  1.3693
  107OSM   H10T10980   4.712   2.159   9.662  2.1929 -2.0483  0.6446
  107OSM   C11S10981   4.885   2.255   9.627 -0.3243 -0.0010  0.3625
  107OSM   H11S10982   4.938   2.161   9.653 -2.4712 -1.0981  0.9794
  107OSM   H11T10983   4.955   2.333   9.663  0.4381 -0.2289 -0.5780
  107OSM   C12S10984   4.873   2.287   9.480 -0.3819 -0.1448 -0.2567
  107OSM   H12S10985   4.814   2.380   9.472 -0.3606 -0.0838  0.2517
  107OSM   H12T10986   4.827   2.203   9.424 -0.4665 -1.1312  1.2311
  107OSM   C13S10987   5.010   2.306   9.398 -0.3799 -0.3867 -0.2249
  107OSM   H13S10988   5.078   2.219   9.390  1.4619  1.0871 -1.6072
  107OSM   H13T10989   5.061   2.377   9.466 -0.4741 -1.5730  1.1196
  107OSM   C14S10990   4.975   2.354   9.264 -0.2378  0.9242  0.0992
  107OSM   H14S10991   4.947   2.461   9.271  0.5427  1.0761  0.9797
  107OSM   H14T10992   4.884   2.312   9.215  0.4721  1.3073 -1.6354
  107OSM   C15S10993   5.097   2.344   9.169 -0.1932 -0.6759 -0.2311
  107OSM   H15S10994   5.100   2.243   9.122 -1.7415 -1.4609  1.2523
  107OSM   H15T10995   5.188   2.356   9.231 -1.9810 -2.1119  2.8862
  107OSM   C16S10996   5.093   2.441   9.052 -0.7791 -0.0342 -0.1632
  107OSM   H16S10997   5.189   2.443   8.995  0.0707  0.4368  1.2311
  107OSM   H16T10998   5.077   2.546   9.087 -0.9539  0.2225 -0.9848
  107OSM   C17S10999   4.978   2.407   8.963  0.0320  0.4374 -0.5371
  107OSM   H17S11000   4.881   2.431   9.011 -0.8945  3.3585 -3.4563
  107OSM   H17T11001   4.974   2.296   8.957  2.8267  0.1792  0.8870
  107OSM   C18S11002   4.987   2.450   8.819 -0.0148  0.1800  0.2526
  107OSM   H18S11003   4.907   2.412   8.753  0.3610 -0.6786  0.2697
  107OSM   H18T11004   5.088   2.417   8.784 -0.5849 -1.8457  0.3952
  107OSM   H18U11005   4.991   2.561   8.817  3.6151  0.2955  2.9153
  107OSM    C1F11006   5.246   1.912  10.462 -0.0341 -0.3931  1.1283
  107OSM     OF11007   5.292   1.806  10.500  0.2568  0.6346  0.4541
  107OSM    C2F11008   5.338   2.020  10.406 -0.2205 -0.5300  0.0924
  107OSM    H2F11009   5.409   2.040  10.489 -0.4447 -1.9284  0.6356
  107OSM    H2G11010   5.281   2.114  10.384 -0.3687 -0.6102  0.1294
  107OSM    C3F11011   5.395   1.975  10.271 -0.1961 -0.2358  0.0850
  107OSM    H3F11012   5.322   1.970  10.188  0.8277 -0.5002 -0.8318
  107OSM    H3G11013   5.436   1.871  10.271 -2.3825 -1.1998 -2.4622
  107OSM    C4F11014   5.510   2.064  10.231 -0.5375 -0.5625  0.4615
  107OSM    H4F11015   5.594   2.042  10.301 -0.1787  1.0580  0.5873
  107OSM    H4G11016   5.483   2.169  10.255 -0.6635 -0.4235 -0.2736
  107OSM    C5F11017   5.536   2.036  10.085 -0.1597  0.3420  0.1548
  107OSM    H5F11018   5.436   2.028  10.037 -0.1354 -2.5765  0.4623
  107OSM    H5G11019   5.582   1.939  10.057  1.8834 -0.1493  4.4424
  107OSM    C6F11020   5.618   2.145  10.013  0.3579  0.1708 -0.0305
  107OSM    H6F11021   5.722   2.138  10.052  0.1048 -0.3888  0.5735
  107OSM    H6G11022   5.577   2.245  10.038 -1.0335 -0.6960  1.3205
  107OSM    C7F11023   5.620   2.142   9.864  0.2105 -0.7024  0.8782
  107OSM    H7F11024   5.516   2.140   9.825 -0.0811 -0.6677  1.6364
  107OSM    H7G11025   5.636   2.038   9.827 -0.4791 -0.1942 -0.9859
  107OSM    C8F11026   5.692   2.248   9.784 -0.0301  0.3527 -0.7549
  107OSM    H8F11027   5.696   2.344   9.841 -3.1736  0.4438 -0.5061
  107OSM    H8G11028   5.642   2.267   9.687  0.6018  2.6334 -0.7009
  107OSM    C9F11029   5.839   2.214   9.758 -0.8071  0.4817  0.3508
  107OSM    H9F11030   5.894   2.177   9.846  0.0639 -0.7789 -0.6639
  107OSM   C10F11031   5.908   2.217   9.639  0.6590 -0.1126 -0.3695
  107OSM   H10F11032   6.017   2.201   9.644  0.7836  0.4095 -1.2067
  107OSM   C11F11033   5.839   2.259   9.510 -0.4597 -0.1098 -0.1997
  107OSM   H11F11034   5.748   2.316   9.538  1.2502  1.5296  2.3457
  107OSM   H11G11035   5.815   2.165   9.455  0.9563 -1.3712  1.2431
  107OSM   C12F11036   5.924   2.351   9.412 -0.2109 -0.1887 -0.5993
  107OSM   H12F11037   6.027   2.311   9.404  0.1448  0.4879  0.4579
  107OSM   H12G11038   5.939   2.451   9.459  0.6638 -0.3341 -0.5580
  107OSM   C13F11039   5.863   2.374   9.276 -0.0496  0.0951  1.3740
  107OSM   H13F11040   5.756   2.400   9.288 -0.5769 -0.9385 -0.5173
  107OSM   H13G11041   5.856   2.279   9.217 -4.0634  0.1217  1.5060
  107OSM   C14F11042   5.937   2.486   9.190  0.0125  0.2431 -0.2278
  107OSM   H14F11043   6.047   2.472   9.187 -0.0924 -0.4234 -2.2356
  107OSM   H14G11044   5.918   2.586   9.234 -0.0362 -0.0254  0.3719
  107OSM   C15F11045   5.884   2.494   9.044  0.4762  0.0410  0.0145
  107OSM   H15F11046   5.901   2.598   9.010  0.0339  0.7145  1.7730
  107OSM   H15G11047   5.778   2.465   9.061  1.2137 -0.8655  3.8539
  107OSM   C16F11048   5.957   2.396   8.949  0.4981  0.2287 -0.2440
  107OSM   H16F11049   5.908   2.386   8.850  0.4410  1.6740 -0.3862
  107OSM   H16G11050   5.953   2.294   8.993 -1.2274  0.4662  0.1994
  107OSM   C17F11051   6.104   2.439   8.927 -0.3082  0.1832 -0.4436
  107OSM   H17F11052   6.161   2.403   9.015  1.2434  1.6792 -0.7814
  107OSM   H17G11053   6.111   2.550   8.928 -1.8000  0.3027  1.1955
  107OSM   C18F11054   6.178   2.378   8.803  0.1209  0.3455  0.3733
  107OSM   H18F11055   6.184   2.269   8.823  0.2613  0.2542 -0.1722
  107OSM   H18G11056   6.276   2.425   8.783 -1.0450  4.1103  2.5096
  107OSM   H18H11057   6.111   2.399   8.717 -1.5326  2.2331  2.0052
  108OSM      N11058   1.674   0.837  10.809 -0.7930 -0.1696  0.0366
  108OSM    C1511059   1.766   0.944  10.747 -0.0609  0.7662  0.1100
  108OSM   H15A11060   1.754   0.969  10.643  1.2677  2.2751  0.2650
  108OSM   H15B11061   1.873   0.925  10.754  0.2589  1.9914 -1.1266
  108OSM   H15C11062   1.749   1.035  10.804 -1.1957 -0.4952  1.8854
  108OSM    C1411063   1.717   0.826  10.948  0.2798  0.1769 -0.1730
  108OSM   H14A11064   1.812   0.780  10.970  0.2341  1.8795  4.9539
  108OSM   H14B11065   1.638   0.761  10.984  2.8083 -3.1475 -0.1123
  108OSM   H14C11066   1.719   0.914  11.010  1.4148  0.2420 -0.2971
  108OSM    C1311067   1.531   0.885  10.798 -0.5526 -0.2563 -0.6610
  108OSM   H13A11068   1.462   0.824  10.854  1.1035 -1.1592  0.4850
  108OSM   H13B11069   1.487   0.890  10.700 -0.1858  0.3059 -0.8005
  108OSM   H13C11070   1.517   0.982  10.845  0.2551  1.1131 -3.0673
  108OSM    C1211071   1.698   0.706  10.734 -0.0237 -0.2804  0.4743
  108OSM   H12A11072   1.803   0.683  10.751 -0.1348 -0.7949  0.4720
  108OSM   H12B11073   1.679   0.725  10.629 -1.7584  1.0204  0.9992
  108OSM    C1111074   1.612   0.583  10.786 -0.3602  0.1064 -1.2369
  108OSM   H11A11075   1.610   0.507  10.704 -1.3952  0.1647 -1.2769
  108OSM   H11B11076   1.508   0.619  10.781 -1.4953 -1.4985  4.0581
  108OSM      P11077   1.765   0.443  10.946  0.1928 -0.3781  0.4927
  108OSM    O1311078   1.869   0.515  11.027 -0.1695  0.8411  0.1771
  108OSM    O1411079   1.722   0.310  10.992  0.0390 -0.1229  0.1712
  108OSM    O1111080   1.825   0.418  10.808 -0.2715 -0.0531 -0.0197
  108OSM    O1211081   1.643   0.535  10.920 -0.0866 -0.3724 -0.3116
  108OSM    C1S11082   1.850   0.297  10.748 -0.0823  0.0516 -0.4625
  108OSM    H1S11083   1.765   0.229  10.774 -0.0521  0.9217  2.2987
  108OSM    H1T11084   1.941   0.253  10.793 -0.0109 -0.3624 -1.0115
  108OSM     NF11085   1.893   0.174  10.546  0.5482 -0.5368 -0.1775
  108OSM    HNF11086   1.989   0.150  10.532  1.3216  2.7478 -1.4441
  108OSM    C2S11087   1.859   0.308  10.596 -0.0469  0.8886 -0.0218
  108OSM    H2S11088   1.760   0.328  10.550  0.3779  0.3247 -1.2202
  108OSM    C3S11089   1.948   0.424  10.548  0.0073  0.7145  0.6970
  108OSM    H3S11090   2.049   0.406  10.591  0.2032 -1.1618 -0.4299
  108OSM     O311091   1.909   0.547  10.599 -0.7243 -0.0015 -0.1028
  108OSM    HO311092   1.850   0.516  10.668 -1.8573  1.0032 -0.5815
  108OSM    C4S11093   1.952   0.428  10.399 -0.3064  0.6081  0.2308
  108OSM    H4S11094   1.854   0.432  10.349 -0.1795  1.1828  0.0196
  108OSM    C5S11095   2.069   0.423  10.338 -0.1852  0.1501  0.3236
  108OSM    H5S11096   2.163   0.418  10.395 -0.8076  0.0367  1.3654
  108OSM    C6S11097   2.081   0.418  10.189 -0.1337 -0.0064  0.1853
  108OSM    H6S11098   2.102   0.310  10.170 -2.1479 -0.7900  2.0752
  108OSM    H6T11099   2.181   0.459  10.163  0.4749 -1.1357  0.6290
  108OSM    C7S11100   1.959   0.461  10.096 -0.3446 -0.9208 -0.7559
  108OSM    H7S11101   1.917   0.559  10.127  2.2500  0.2605 -0.6922
  108OSM    H7T11102   1.875   0.390  10.115 -0.9998 -0.3543 -1.4771
  108OSM    C8S11103   2.008   0.451   9.944  0.0001 -0.0502  0.7071
  108OSM    H8S11104   2.060   0.356   9.921 -0.5708  0.2023 -1.8782
  108OSM    H8T11105   2.094   0.522   9.942  0.6015 -0.7570 -1.7086
  108OSM    C9S11106   1.897   0.472   9.843 -0.0457  0.3651  0.2553
  108OSM    H9S11107   1.864   0.578   9.840 -0.1746  0.3416  0.8158
  108OSM    H9T11108   1.809   0.412   9.877  1.5245 -1.6337  0.9893
  108OSM   C10S11109   1.933   0.428   9.701  0.1555  0.2453 -0.0343
  108OSM   H10S11110   1.964   0.322   9.712  1.3145  0.6142  0.3529
  108OSM   H10T11111   2.018   0.491   9.668  0.9554 -0.2211  1.0583
  108OSM   C11S11112   1.828   0.440   9.594 -0.7116 -0.3269  0.4685
  108OSM   H11S11113   1.794   0.546   9.586  1.2413  0.2313 -1.1832
  108OSM   H11T11114   1.742   0.383   9.637  0.1307 -1.2666  0.9450
  108OSM   C12S11115   1.870   0.367   9.463  0.3233 -0.1271  0.6611
  108OSM   H12S11116   1.895   0.259   9.462 -0.9129 -0.4294  0.1324
  108OSM   H12T11117   1.964   0.413   9.426 -0.0974  1.8496  1.8828
  108OSM   C13S11118   1.764   0.396   9.353  0.8804 -0.1633  0.1373
  108OSM   H13S11119   1.757   0.507   9.349 -1.6647 -0.2924 -1.8225
  108OSM   H13T11120   1.665   0.356   9.386 -0.5784  4.2341  1.8330
  108OSM   C14S11121   1.806   0.338   9.222 -0.4331 -0.2483  0.1054
  108OSM   H14S11122   1.830   0.232   9.243 -0.9839 -0.2378  0.7903
  108OSM   H14T11123   1.893   0.399   9.188 -1.7268  1.7392  0.1950
  108OSM   C15S11124   1.691   0.348   9.119  0.8079 -0.4852 -0.4636
  108OSM   H15S11125   1.652   0.452   9.123 -1.2975 -1.1924 -1.3864
  108OSM   H15T11126   1.601   0.294   9.152  0.0479  1.4892  0.8749
  108OSM   C16S11127   1.738   0.305   8.978  0.3055 -0.1367 -0.6009
  108OSM   H16S11128   1.647   0.295   8.915 -2.2128 -0.3841  2.7842
  108OSM   H16T11129   1.790   0.208   8.991  2.0387  0.7956 -0.1188
  108OSM   C17S11130   1.824   0.403   8.902 -0.1391  0.1131  0.4654
  108OSM   H17S11131   1.914   0.425   8.964  0.2985 -0.7218  0.1380
  108OSM   H17T11132   1.763   0.494   8.886 -1.3839 -0.6873  0.4498
  108OSM   C18S11133   1.875   0.356   8.768  0.0407 -0.4243 -0.0355
  108OSM   H18S11134   1.944   0.436   8.734 -0.8763  1.1719  1.6861
  108OSM   H18T11135   1.797   0.362   8.690 -0.7373  1.1321  0.8313
  108OSM   H18U11136   1.934   0.263   8.782  0.7455  0.1785  1.1720
  108OSM    C1F11137   1.822   0.064  10.561  0.0948  0.1820 -0.5990
  108OSM     OF11138   1.708   0.069  10.598 -0.1080 -0.1022  0.0209
  108OSM    C2F11139   1.897  -0.059  10.542 -0.2770 -0.6891  0.6865
  108OSM    H2F11140   1.943  -0.082  10.640 -0.5302  0.1733  1.0200
  108OSM    H2G11141   1.979  -0.040  10.469  1.3348  1.2907  2.8787
  108OSM    C3F11142   1.802  -0.167  10.476 -0.6027  0.0560  0.2137
  108OSM    H3F11143   1.711  -0.174  10.540  0.1245  1.6959  1.4903
  108OSM    H3G11144   1.858  -0.262  10.490 -0.3615  0.1305 -0.2327
  108OSM    C4F11145   1.781  -0.146  10.321 -0.3737 -0.2999 -0.2089
  108OSM    H4F11146   1.764  -0.036  10.312 -0.0748 -0.0267  1.9082
  108OSM    H4G11147   1.685  -0.187  10.283  0.1146  0.4297 -2.3943
  108OSM    C5F11148   1.899  -0.182  10.234  0.3915  0.8873  0.1745
  108OSM    H5F11149   1.919  -0.291  10.228  1.0171  1.0519 -0.7887
  108OSM    H5G11150   1.990  -0.132  10.273 -0.7363  1.1400  2.7229
  108OSM    C6F11151   1.884  -0.146  10.084 -0.3390  0.1292  0.4885
  108OSM    H6F11152   1.785  -0.174  10.042 -0.2484  3.0881 -2.0141
  108OSM    H6G11153   1.955  -0.197  10.015  1.3946 -0.0761  2.3264
  108OSM    C7F11154   1.908   0.009  10.074  0.4380 -0.7211  0.3013
  108OSM    H7F11155   2.006   0.042  10.116  0.2230 -1.6447  1.6109
  108OSM    H7G11156   1.834   0.072  10.127  2.5462  1.7310  0.5327
  108OSM    C8F11157   1.913   0.064   9.924  0.4181 -0.5130 -0.1337
  108OSM    H8F11158   1.976  -0.003   9.862 -0.7423 -0.8611 -0.9579
  108OSM    H8G11159   1.966   0.160   9.940  2.1922 -1.9039  3.3487
  108OSM    C9F11160   1.781   0.088   9.862 -0.1027  0.0768  0.4378
  108OSM    H9F11161   1.740   0.183   9.897  1.7155  0.6431  1.1486
  108OSM   C10F11162   1.706   0.012   9.774 -0.0437 -1.0506 -0.4516
  108OSM   H10F11163   1.609   0.050   9.739 -0.4703 -1.2266  0.5029
  108OSM   C11F11164   1.736  -0.122   9.708  0.2926 -0.3195  0.0377
  108OSM   H11F11165   1.647  -0.188   9.712 -1.7155  2.1344 -1.4034
  108OSM   H11G11166   1.820  -0.172   9.761 -0.5164  0.6779  2.3806
  108OSM   C12F11167   1.784  -0.111   9.562 -0.4041  0.0259  0.3815
  108OSM   H12F11168   1.840  -0.201   9.528 -0.4908 -0.1804  0.7748
  108OSM   H12G11169   1.845  -0.019   9.545 -0.2091 -0.4383 -1.6671
  108OSM   C13F11170   1.663  -0.083   9.471  0.0492 -0.3808 -0.3475
  108OSM   H13F11171   1.597  -0.008   9.520 -0.0417 -1.4746  1.2705
  108OSM   H13G11172   1.608  -0.179   9.459 -3.5587  1.1755  2.0060
  108OSM   C14F11173   1.714  -0.030   9.335 -0.2237 -0.6258 -0.6716
  108OSM   H14F11174   1.786  -0.108   9.302 -1.4503 -2.1589  0.1671
  108OSM   H14G11175   1.760   0.071   9.345  0.7556 -0.9890 -1.2809
  108OSM   C15F11176   1.604  -0.012   9.233 -0.5456 -0.7494  0.1241
  108OSM   H15F11177   1.641   0.037   9.141 -2.3596 -0.0632 -0.2858
  108OSM   H15G11178   1.530   0.064   9.267  0.8000  0.5658  0.2110
  108OSM   C16F11179   1.553  -0.151   9.192  0.0396 -0.2368 -0.4367
  108OSM   H16F11180   1.494  -0.183   9.280 -1.1335 -0.5251 -1.2979
  108OSM   H16G11181   1.639  -0.216   9.164 -0.2245 -1.1603  0.8294
  108OSM   C17F11182   1.458  -0.145   9.074  0.2443  0.2437  0.4322
  108OSM   H17F11183   1.435  -0.252   9.054 -0.2610  0.1601  1.4092
  108OSM   H17G11184   1.517  -0.119   8.983 -0.8136  1.0330 -0.0590
  108OSM   C18F11185   1.326  -0.060   9.094 -0.1231  0.2460 -0.1785
  108OSM   H18F11186   1.254  -0.066   9.009 -1.1977  0.8650  0.6743
  108OSM   H18G11187   1.368   0.042   9.101  0.7424 -0.1415  0.5240
  108OSM   H18H11188   1.282  -0.077   9.194  1.4078  2.3557  0.9227
  109OSM      N11189   2.411   2.917  10.822  0.5422 -0.1118  0.3006
  109OSM    C1511190   2.554   2.899  10.776  0.3301  0.4622  0.4308
  109OSM   H15A11191   2.568   2.966  10.693 -1.9952  2.1766  1.3050
  109OSM   H15B11192   2.573   2.799  10.741 -1.6876  0.2749 -0.2874
  109OSM   H15C11193   2.628   2.915  10.853 -0.6427  1.4628  1.1846
  109OSM    C1411194   2.371   2.815  10.924 -0.1240 -0.1842 -0.2428
  109OSM   H14A11195   2.421   2.826  11.019 -3.2539 -1.4595  1.7132
  109OSM   H14B11196   2.391   2.714  10.889  0.9524  0.2244 -0.8523
  109OSM   H14C11197   2.272   2.843  10.955  0.7984  3.0295  0.1426
  109OSM    C1311198   2.410   3.048  10.892 -0.3749  0.0819  0.6213
  109OSM   H13A11199   2.305   3.066  10.911 -1.2947 -2.1659 -1.6282
  109OSM   H13B11200   2.432   3.126  10.820 -0.4119 -2.0933 -1.8798
  109OSM   H13C11201   2.470   3.059  10.981  0.0855  2.8703  0.0604
  109OSM    C1211202   2.310   2.911  10.708 -0.0856  0.2977 -0.1120
  109OSM   H12A11203   2.321   2.815  10.659 -0.3692  0.2858 -0.1493
  109OSM   H12B11204   2.349   2.988  10.643 -3.2783  2.3742  0.2347
  109OSM    C1111205   2.157   2.927  10.725  0.8554 -0.4234 -0.2898
  109OSM   H11A11206   2.117   2.833  10.768 -0.9813 -0.2476 -1.5243
  109OSM   H11B11207   2.121   2.951  10.623 -2.1428  0.6546  0.9322
  109OSM      P11208   2.066   3.173  10.765  0.0714  0.0438 -0.2217
  109OSM    O1311209   1.914   3.142  10.763 -1.0822  0.2390  0.4650
  109OSM    O1411210   2.113   3.288  10.850  0.0502  0.3045  0.1813
  109OSM    O1111211   2.120   3.187  10.619  0.3264  0.5550  0.6999
  109OSM    O1211212   2.137   3.040  10.812  0.0616 -0.3039 -0.2438
  109OSM    C1S11213   2.226   3.264  10.578 -0.9380  0.1221  0.9361
  109OSM    H1S11214   2.319   3.229  10.628  0.1176  1.7978  0.2304
  109OSM    H1T11215   2.210   3.372  10.600  1.8555  0.4798  1.6096
  109OSM     NF11216   2.391   3.307  10.398 -0.9856 -0.8761  0.0809
  109OSM    HNF11217   2.387   3.393  10.348  0.7840 -0.7092  0.1814
  109OSM    C2S11218   2.264   3.245  10.426 -0.5528 -0.0642 -0.4486
  109OSM    H2S11219   2.278   3.138  10.399 -0.9522  0.1805 -1.7228
  109OSM    C3S11220   2.137   3.290  10.334 -0.3388  1.2411 -0.8639
  109OSM    H3S11221   2.111   3.397  10.348 -1.5191  0.9402 -0.6485
  109OSM     O311222   2.014   3.232  10.379 -0.8270 -0.1525 -0.5362
  109OSM    HO311223   2.044   3.186  10.458 -2.1864  0.6712  0.5100
  109OSM    C4S11224   2.151   3.252  10.192  0.1937 -0.3026 -0.1338
  109OSM    H4S11225   2.180   3.149  10.168  1.2245 -0.0656  0.0674
  109OSM    C5S11226   2.135   3.341  10.093  0.3634  0.2366 -0.2967
  109OSM    H5S11227   2.135   3.451  10.106  1.6258  0.3256 -0.9133
  109OSM    C6S11228   2.139   3.293   9.946 -0.6506  0.3817  0.0836
  109OSM    H6S11229   2.087   3.363   9.877  0.3150  0.7692 -0.2741
  109OSM    H6T11230   2.085   3.197   9.931 -0.0809  0.3767 -2.3510
  109OSM    C7S11231   2.281   3.268   9.910  0.2984 -0.3400  0.3398
  109OSM    H7S11232   2.335   3.201   9.979  1.8349  0.9518  0.4261
  109OSM    H7T11233   2.341   3.361   9.905  1.4422 -1.1095 -2.4075
  109OSM    C8S11234   2.301   3.210   9.763 -0.0706 -0.3241  0.2813
  109OSM    H8S11235   2.233   3.126   9.738 -0.7230  0.5843 -1.1365
  109OSM    H8T11236   2.406   3.178   9.751  0.5565  1.9150 -0.7271
  109OSM    C9S11237   2.271   3.322   9.660 -0.2630 -0.3045 -0.0946
  109OSM    H9S11238   2.331   3.410   9.692 -0.7386  0.0608 -0.2089
  109OSM    H9T11239   2.164   3.352   9.658  0.6345  3.2505 -1.3445
  109OSM   C10S11240   2.312   3.287   9.514  0.5693 -0.8282 -0.7333
  109OSM   H10S11241   2.421   3.262   9.515  0.8425  0.3028  0.2736
  109OSM   H10T11242   2.297   3.383   9.461 -1.5329  0.0325  1.2776
  109OSM   C11S11243   2.229   3.181   9.436 -0.1915 -0.1949  0.0150
  109OSM   H11S11244   2.121   3.204   9.445  0.1486  0.6099  3.3301
  109OSM   H11T11245   2.240   3.082   9.485 -1.9621 -0.4845 -0.1125
  109OSM   C12S11246   2.272   3.165   9.289  0.1143 -0.3012  0.1205
  109OSM   H12S11247   2.377   3.129   9.280 -0.4788 -1.5960 -2.5785
  109OSM   H12T11248   2.276   3.265   9.240  0.6718 -2.1040 -3.9250
  109OSM   C13S11249   2.184   3.071   9.211  0.4185  0.3727  0.1125
  109OSM   H13S11250   2.085   3.120   9.203 -0.5004 -1.3589  0.4609
  109OSM   H13T11251   2.172   2.985   9.280  0.1208  0.0284 -0.3658
  109OSM   C14S11252   2.239   3.014   9.078 -0.5943  0.3527 -0.8008
  109OSM   H14S11253   2.219   2.906   9.058 -2.3299  1.0516 -3.3849
  109OSM   H14T11254   2.350   3.021   9.075 -0.3181 -2.8661 -1.8238
  109OSM   C15S11255   2.190   3.083   8.952  0.0668  0.1059 -0.4491
  109OSM   H15S11256   2.227   3.187   8.952  0.5356 -0.0549 -1.0287
  109OSM   H15T11257   2.079   3.084   8.943  0.2077  0.2962 -3.2300
  109OSM   C16S11258   2.244   3.022   8.825 -1.2896  0.3434 -0.2265
  109OSM   H16S11259   2.193   2.925   8.813 -0.8024 -0.3194  2.4504
  109OSM   H16T11260   2.354   3.019   8.839 -1.3056  1.6742  0.4130
  109OSM   C17S11261   2.217   3.109   8.696  0.8580  0.0757  0.1637
  109OSM   H17S11262   2.246   3.216   8.705 -2.0912  1.0247 -0.2884
  109OSM   H17T11263   2.109   3.111   8.671  1.2628  0.5117 -1.6936
  109OSM   C18S11264   2.302   3.049   8.583  0.1636  0.2442  0.2912
  109OSM   H18S11265   2.269   2.950   8.547  0.7724 -0.2693  1.1153
  109OSM   H18T11266   2.402   3.028   8.626  0.0437  2.9754  2.1605
  109OSM   H18U11267   2.320   3.129   8.508  1.3259 -0.4213 -0.1610
  109OSM    C1F11268   2.514   3.270  10.442  0.6548 -0.6484  0.5099
  109OSM     OF11269   2.527   3.164  10.503  0.2557  0.1333 -0.4292
  109OSM    C2F11270   2.618   3.372  10.402  0.1790 -0.0323  0.4528
  109OSM    H2F11271   2.661   3.414  10.495 -0.4007  1.2985  0.1372
  109OSM    H2G11272   2.580   3.458  10.345 -0.8563 -0.6741  0.1512
  109OSM    C3F11273   2.741   3.307  10.324  0.8087  0.0143  0.5689
  109OSM    H3F11274   2.785   3.228  10.388  1.8412  0.3456  0.2913
  109OSM    H3G11275   2.819   3.386  10.313  0.8537 -0.3075 -1.9052
  109OSM    C4F11276   2.714   3.229  10.197 -0.4699 -0.5840  0.3391
  109OSM    H4F11277   2.627   3.160  10.206 -0.5742 -0.6287 -0.8799
  109OSM    H4G11278   2.808   3.178  10.169  1.2899  1.7886  1.5692
  109OSM    C5F11279   2.675   3.323  10.075 -0.0619 -0.6073 -0.5148
  109OSM    H5F11280   2.739   3.414  10.085 -1.9784  0.6928  0.6336
  109OSM    H5G11281   2.580   3.373  10.103  0.2642 -0.2693  0.0282
  109OSM    C6F11282   2.686   3.254   9.943 -0.6185 -0.1593  0.2862
  109OSM    H6F11283   2.609   3.176   9.928  1.0018 -1.5444 -1.2227
  109OSM    H6G11284   2.785   3.205   9.937  0.5046  1.9813  0.4017
  109OSM    C7F11285   2.691   3.368   9.838  0.5351  0.3619 -0.3860
  109OSM    H7F11286   2.773   3.440   9.856  0.0969  0.6384  0.5446
  109OSM    H7G11287   2.603   3.436   9.843 -0.2358 -0.6283  4.4372
  109OSM    C8F11288   2.705   3.306   9.698 -0.3612 -0.1979  0.1841
  109OSM    H8F11289   2.624   3.232   9.677 -0.1310  0.0424 -1.7127
  109OSM    H8G11290   2.799   3.248   9.702  0.0111  0.0048 -3.1671
  109OSM    C9F11291   2.713   3.411   9.588 -0.7107  0.0370 -0.3283
  109OSM    H9F11292   2.690   3.515   9.615 -1.1977 -0.6070  1.9468
  109OSM   C10F11293   2.756   3.387   9.461 -0.0367 -0.1466  0.4827
  109OSM   H10F11294   2.771   3.469   9.390  0.5482 -0.5983  0.0774
  109OSM   C11F11295   2.798   3.256   9.415  0.2379  0.1870 -0.0080
  109OSM   H11F11296   2.801   3.172   9.487 -0.7585  0.4634  0.3737
  109OSM   H11G11297   2.898   3.261   9.366  0.5244  0.2383  0.5780
  109OSM   C12F11298   2.708   3.199   9.300 -0.4551 -0.4677 -0.3266
  109OSM   H12F11299   2.709   3.271   9.216 -1.3284  0.8848  0.7679
  109OSM   H12G11300   2.603   3.192   9.335 -0.5791  0.6431 -0.4482
  109OSM   C13F11301   2.766   3.065   9.260  0.1807  0.4135  0.3419
  109OSM   H13F11302   2.745   2.989   9.339  0.4634  0.1724  0.1843
  109OSM   H13G11303   2.877   3.068   9.256  0.1433  0.8137 -0.4775
  109OSM   C14F11304   2.709   2.999   9.134 -0.7516 -0.1198 -0.3767
  109OSM   H14F11305   2.604   2.973   9.158 -0.8375  1.1387  0.7507
  109OSM   H14G11306   2.763   2.904   9.112 -0.9487  0.1578 -2.2206
  109OSM   C15F11307   2.721   3.082   9.003 -1.1296 -0.5978 -0.9765
  109OSM   H15F11308   2.827   3.112   9.007 -0.4504 -2.9672  0.5595
  109OSM   H15G11309   2.648   3.163   9.026 -1.1683 -1.3633  1.8675
  109OSM   C16F11310   2.690   3.006   8.877  0.3917  0.4348 -0.2042
  109OSM   H16F11311   2.667   3.087   8.804  0.8071  2.0793  1.4025
  109OSM   H16G11312   2.597   2.949   8.900  1.0495 -0.9771 -0.9359
  109OSM   C17F11313   2.799   2.910   8.830  0.0488  0.0764 -0.1823
  109OSM   H17F11314   2.808   2.840   8.915  2.4327  1.1159  0.4857
  109OSM   H17G11315   2.895   2.965   8.833  0.8962 -1.4106  2.6094
  109OSM   C18F11316   2.767   2.842   8.694  0.3176 -0.9158  0.6509
  109OSM   H18F11317   2.779   2.916   8.612 -0.7524  0.0028  1.2773
  109OSM   H18G11318   2.659   2.815   8.696 -0.5027  1.2202 -3.5318
  109OSM   H18H11319   2.836   2.757   8.680 -1.1151 -1.8386 -1.3209
  110OSM      N11320   3.421   0.483  10.928 -0.9013  0.1987 -0.4849
  110OSM    C1511321   3.301   0.566  10.951  0.1752  0.4073  0.4665
  110OSM   H15A11322   3.215   0.501  10.954  1.7918 -1.8192  1.3154
  110OSM   H15B11323   3.286   0.627  10.864  0.3825 -0.4086 -0.1516
  110OSM   H15C11324   3.300   0.643  11.026 -2.7016 -2.1431  3.3803
  110OSM    C1411325   3.539   0.576  10.933 -0.1430 -0.3016  0.4054
  110OSM   H14A11326   3.517   0.665  10.875 -1.1351 -0.8982 -0.1600
  110OSM   H14B11327   3.633   0.535  10.898 -0.9693 -0.0620 -2.3839
  110OSM   H14C11328   3.562   0.624  11.027  1.4393  0.9306 -0.5455
  110OSM    C1311329   3.435   0.385  11.042  0.1285  0.3174  0.1343
  110OSM   H13A11330   3.534   0.345  11.032 -0.0258 -0.4015  1.2867
  110OSM   H13B11331   3.365   0.304  11.025  2.3928 -1.5508 -0.9274
  110OSM   H13C11332   3.443   0.435  11.137  0.0109 -0.0935  0.3612
  110OSM    C1211333   3.424   0.406  10.794  0.5284 -0.1608  0.1488
  110OSM   H12A11334   3.487   0.320  10.812 -0.5120 -0.5303  2.4421
  110OSM   H12B11335   3.478   0.471  10.727  0.9721  0.5273  1.1382
  110OSM    C1111336   3.293   0.354  10.734  0.1330  0.1872  0.2278
  110OSM   H11A11337   3.309   0.322  10.629 -0.6792 -1.2839  0.5230
  110OSM   H11B11338   3.230   0.445  10.726 -0.6982 -0.2879  1.1189
  110OSM      P11339   3.257   0.117  10.841 -0.3630 -0.1328  0.4784
  110OSM    O1311340   3.406   0.114  10.828  0.6013  0.3313 -0.2652
  110OSM    O1411341   3.214   0.080  10.977  0.3098 -0.3171 -0.3516
  110OSM    O1111342   3.189   0.031  10.725  0.0925  0.3459 -0.5605
  110OSM    O1211343   3.211   0.265  10.820 -0.1609  0.4755 -0.1165
  110OSM    C1S11344   3.179   0.078  10.589  0.3415  0.6204 -0.0488
  110OSM    H1S11345   3.279   0.078  10.542  0.6486  0.0497  0.5869
  110OSM    H1T11346   3.130   0.178  10.592 -1.7540 -0.3654  0.4358
  110OSM     NF11347   3.105   0.014  10.356 -0.0132 -0.1394  0.5865
  110OSM    HNF11348   3.030   0.066  10.317 -1.7014 -1.9552  1.2844
  110OSM    C2S11349   3.100  -0.024  10.495  0.0839  0.4880  0.2930
  110OSM    H2S11350   3.152  -0.122  10.503  1.4490  1.2019  0.6401
  110OSM    C3S11351   2.956  -0.044  10.547 -0.4994  0.2461  0.0508
  110OSM    H3S11352   2.886   0.041  10.538 -0.0234  0.4443 -2.4723
  110OSM     O311353   2.945  -0.081  10.688 -0.2193 -0.3511  0.2524
  110OSM    HO311354   3.033  -0.056  10.717  0.1397  1.2438 -2.0032
  110OSM    C4S11355   2.885  -0.150  10.463 -0.4982 -0.5352 -0.3038
  110OSM    H4S11356   2.810  -0.103  10.397  0.4140 -0.2016 -1.1314
  110OSM    C5S11357   2.906  -0.282  10.469 -0.6578  0.0604  0.3530
  110OSM    H5S11358   2.974  -0.316  10.548 -1.5863 -2.7039  0.0637
  110OSM    C6S11359   2.838  -0.390  10.389  0.0872  0.0105  0.3986
  110OSM    H6S11360   2.755  -0.440  10.445  0.5573  0.1840  1.2709
  110OSM    H6T11361   2.910  -0.474  10.378  0.3362  0.2430  0.2550
  110OSM    C7S11362   2.778  -0.349  10.251 -0.0207  0.8271  0.0484
  110OSM    H7S11363   2.696  -0.275  10.266  1.1313  1.8752  1.4442
  110OSM    H7T11364   2.728  -0.437  10.205  0.5350  0.4446  0.1739
  110OSM    C8S11365   2.870  -0.291  10.138 -0.5343  0.1347 -0.4379
  110OSM    H8S11366   2.942  -0.372  10.111 -2.7501 -1.8375 -0.7640
  110OSM    H8T11367   2.938  -0.212  10.178 -0.6718  1.2850 -2.3795
  110OSM    C9S11368   2.786  -0.251  10.014  0.0429  0.3721  0.1053
  110OSM    H9S11369   2.755  -0.145  10.023  2.9044  1.5889 -2.3930
  110OSM    H9T11370   2.696  -0.316  10.009 -0.6698  1.1611  1.8073
  110OSM   C10S11371   2.863  -0.262   9.871 -0.3607  0.1417 -0.3772
  110OSM   H10S11372   2.894  -0.366   9.846  0.4680  0.4762 -0.7939
  110OSM   H10T11373   2.948  -0.194   9.893 -0.8781  1.2439 -1.6307
  110OSM   C11S11374   2.773  -0.216   9.762  0.8730  0.1727  0.0424
  110OSM   H11S11375   2.728  -0.116   9.784 -0.8747 -0.3652 -0.8920
  110OSM   H11T11376   2.679  -0.274   9.746  1.1891 -1.2223  2.6961
  110OSM   C12S11377   2.853  -0.196   9.631  0.4176 -0.1496  0.4096
  110OSM   H12S11378   2.897  -0.295   9.605  0.3886 -0.1161  0.2255
  110OSM   H12T11379   2.940  -0.127   9.643 -0.8604  1.4854  0.5704
  110OSM   C13S11380   2.770  -0.150   9.505  0.4530  0.5640 -0.1146
  110OSM   H13S11381   2.845  -0.128   9.426  2.4397  0.1529  1.5737
  110OSM   H13T11382   2.718  -0.053   9.520  0.0918  0.4527 -0.6231
  110OSM   C14S11383   2.687  -0.266   9.457  0.1840  0.5740  0.4239
  110OSM   H14S11384   2.612  -0.290   9.534 -0.6559 -0.1380 -0.5815
  110OSM   H14T11385   2.754  -0.353   9.443 -0.9600 -0.3431  0.5903
  110OSM   C15S11386   2.635  -0.243   9.321  0.8902 -0.2811 -0.1070
  110OSM   H15S11387   2.583  -0.336   9.290  1.7399 -0.9357  0.4012
  110OSM   H15T11388   2.718  -0.242   9.247  0.0977  2.7916 -1.1179
  110OSM   C16S11389   2.544  -0.112   9.309  0.3272  0.1174  0.7335
  110OSM   H16S11390   2.609  -0.022   9.303  0.1426  0.1812 -0.6293
  110OSM   H16T11391   2.484  -0.114   9.402 -1.3291 -3.9103 -0.2090
  110OSM   C17S11392   2.464  -0.118   9.180 -0.5426  0.4154  0.0953
  110OSM   H17S11393   2.390  -0.036   9.189  0.6152  1.4043  0.9359
  110OSM   H17T11394   2.408  -0.212   9.164  0.7844 -0.4556  0.4361
  110OSM   C18S11395   2.546  -0.094   9.051 -0.8524  0.1319  0.0051
  110OSM   H18S11396   2.624  -0.017   9.069 -2.4851  2.0116 -0.6279
  110OSM   H18T11397   2.491  -0.055   8.962 -0.5407 -0.2888 -0.3811
  110OSM   H18U11398   2.599  -0.189   9.025  1.5919  1.2365  0.7107
  110OSM    C1F11399   3.217   0.005  10.287 -0.5565 -0.1257  0.3458
  110OSM     OF11400   3.317  -0.047  10.337  0.3136 -0.3334 -0.4905
  110OSM    C2F11401   3.219   0.062  10.141 -0.5166  0.6548 -0.2125
  110OSM    H2F11402   3.323   0.100  10.131 -0.2578 -0.1409 -0.5596
  110OSM    H2G11403   3.165   0.155  10.114  2.7837  2.1968 -2.1620
  110OSM    C3F11404   3.189  -0.052  10.044 -0.3218 -0.3131 -0.2623
  110OSM    H3F11405   3.096  -0.101  10.079 -0.6809 -0.4608 -1.3677
  110OSM    H3G11406   3.264  -0.133  10.052 -0.4998 -0.3028  2.6296
  110OSM    C4F11407   3.172  -0.020   9.900  0.0758 -0.1506 -0.6979
  110OSM    H4F11408   3.079   0.040   9.890  0.1357 -0.0577 -0.6966
  110OSM    H4G11409   3.156  -0.113   9.841  0.5163 -2.7382  2.9281
  110OSM    C5F11410   3.290   0.052   9.847  0.1293  0.3286  0.4206
  110OSM    H5F11411   3.384   0.000   9.876 -1.0001 -2.9191 -1.1783
  110OSM    H5G11412   3.284   0.148   9.902 -1.1481 -0.1472  1.1578
  110OSM    C6F11413   3.277   0.054   9.695  0.0020 -0.5941  0.4552
  110OSM    H6F11414   3.174   0.058   9.654  0.0349  1.0199  0.4416
  110OSM    H6G11415   3.322  -0.033   9.644 -2.7067 -1.7521 -0.1636
  110OSM    C7F11416   3.366   0.172   9.649  0.4512  0.1273 -0.1495
  110OSM    H7F11417   3.465   0.164   9.698  1.3109 -0.3586 -1.8758
  110OSM    H7G11418   3.323   0.262   9.698 -1.0922  0.0411 -1.2654
  110OSM    C8F11419   3.376   0.193   9.494  0.2769  0.2586  0.2937
  110OSM    H8F11420   3.431   0.110   9.445  1.1932 -0.2090  2.0514
  110OSM    H8G11421   3.449   0.277   9.486  2.6165 -1.3517  2.9296
  110OSM    C9F11422   3.250   0.217   9.426  0.4266 -0.7001  0.0460
  110OSM    H9F11423   3.177   0.139   9.455 -0.0032 -1.3383 -2.5284
  110OSM   C10F11424   3.222   0.302   9.328  0.6685  0.2547  0.5791
  110OSM   H10F11425   3.119   0.303   9.288  0.2738  2.4741  1.4869
  110OSM   C11F11426   3.321   0.399   9.260 -0.4725 -0.2200 -0.2866
  110OSM   H11F11427   3.404   0.419   9.332  0.4299 -0.8452 -1.1333
  110OSM   H11G11428   3.264   0.493   9.243 -0.4966 -0.2071 -0.1421
  110OSM   C12F11429   3.388   0.343   9.133 -0.5117 -0.4610 -0.3071
  110OSM   H12F11430   3.448   0.254   9.159  1.1961  0.0688 -2.2085
  110OSM   H12G11431   3.457   0.424   9.103 -0.2160 -0.1431  1.1406
  110OSM   C13F11432   3.296   0.308   9.018  0.0562  0.7990 -0.0605
  110OSM   H13F11433   3.200   0.263   9.051  1.5711  0.0803  3.9137
  110OSM   H13G11434   3.350   0.224   8.969 -0.5247 -0.3832  1.2527
  110OSM   C14F11435   3.269   0.429   8.928  0.3210 -1.0021  0.1045
  110OSM   H14F11436   3.367   0.458   8.885  1.0228 -1.1606  1.5427
  110OSM   H14G11437   3.224   0.507   8.993  0.4873  0.6916 -1.7210
  110OSM   C15F11438   3.177   0.399   8.813  0.0305  0.3026 -0.3471
  110OSM   H15F11439   3.087   0.351   8.857 -0.9349  1.7544 -0.6443
  110OSM   H15G11440   3.229   0.338   8.737 -1.0745 -1.1452  0.0238
  110OSM   C16F11441   3.132   0.532   8.742 -0.2351  0.0420 -0.3563
  110OSM   H16F11442   3.082   0.606   8.808  0.0601  0.2875 -0.4023
  110OSM   H16G11443   3.058   0.496   8.668 -0.2891  3.0076 -1.8889
  110OSM   C17F11444   3.249   0.605   8.668 -0.1347 -0.4439  0.0648
  110OSM   H17F11445   3.313   0.536   8.609 -0.7903 -1.6445  0.7153
  110OSM   H17G11446   3.312   0.648   8.749  0.4444  0.4970 -0.8668
  110OSM   C18F11447   3.209   0.731   8.584 -0.0113 -0.1232 -0.0284
  110OSM   H18F11448   3.139   0.783   8.653 -1.0186 -0.2027 -0.9633
  110OSM   H18G11449   3.160   0.703   8.488  2.2540 -0.3009 -1.1786
  110OSM   H18H11450   3.288   0.802   8.554  0.0740 -0.2291 -0.0557
  111OSM      N11451   4.129   4.126  11.261 -0.2993 -0.1992 -0.1053
  111OSM    C1511452   3.999   4.138  11.330 -0.1889  0.6527  0.0896
  111OSM   H15A11453   4.002   4.167  11.434  1.8660 -1.3012  0.6446
  111OSM   H15B11454   3.943   4.046  11.321 -0.9721  1.1691 -0.4552
  111OSM   H15C11455   3.951   4.219  11.276 -0.0443 -0.8680 -2.4966
  111OSM    C1411456   4.213   4.230  11.325  0.2031 -0.5184  0.0903
  111OSM   H14A11457   4.173   4.331  11.328 -2.0464 -1.3573  1.6249
  111OSM   H14B11458   4.313   4.232  11.286  1.6510  0.2713  3.4654
  111OSM   H14C11459   4.223   4.207  11.430  0.3400  2.3092  0.7720
  111OSM    C1311460   4.200   3.995  11.295 -0.7411 -0.1334  0.6091
  111OSM   H13A11461   4.137   3.909  11.275  0.2845 -0.4783 -1.3704
  111OSM   H13B11462   4.220   3.996  11.401 -2.1651  2.3728  0.9145
  111OSM   H13C11463   4.289   3.993  11.234  0.0372 -1.0541  1.7272
  111OSM    C1211464   4.121   4.154  11.113  0.2030  0.7359  0.4836
  111OSM   H12A11465   4.080   4.249  11.083 -1.3263 -1.0343 -3.9911
  111OSM   H12B11466   4.054   4.083  11.065  0.3967  0.6257  0.3750
  111OSM    C1111467   4.259   4.149  11.030 -0.6648 -0.1959 -0.1463
  111OSM   H11A11468   4.335   4.217  11.075  2.6842 -3.4768 -0.3772
  111OSM   H11B11469   4.240   4.185  10.926 -0.6352  1.5877  0.4191
  111OSM      P11470   4.327   3.941  10.889 -0.1473 -0.5153  0.1802
  111OSM    O1311471   4.427   3.827  10.892  0.3085 -0.2120 -0.2512
  111OSM    O1411472   4.188   3.908  10.842 -1.2232  0.5995 -0.4279
  111OSM    O1111473   4.392   4.050  10.793  0.2911 -0.1986 -0.0382
  111OSM    O1211474   4.326   4.023  11.031  0.2149 -0.0079  0.1582
  111OSM    C1S11475   4.435   4.010  10.662  0.3404  0.0186 -0.0089
  111OSM    H1S11476   4.478   3.908  10.655  0.3769  0.1224 -1.8631
  111OSM    H1T11477   4.526   4.072  10.648  1.3681 -0.8658  2.3241
  111OSM     NF11478   4.409   4.019  10.422  0.1924 -0.4115 -0.4057
  111OSM    HNF11479   4.446   4.094  10.369  0.3530  0.2432  0.5914
  111OSM    C2S11480   4.349   4.061  10.549  0.1130  0.2639 -0.2052
  111OSM    H2S11481   4.253   4.007  10.553 -0.3239  1.0693  0.5357
  111OSM    C3S11482   4.313   4.220  10.563 -0.7002 -0.2083 -0.2809
  111OSM    H3S11483   4.403   4.278  10.531 -0.4519 -0.9227 -0.9015
  111OSM     O311484   4.285   4.266  10.695  0.5600  0.6940  0.5123
  111OSM    HO311485   4.298   4.188  10.751  0.4369 -0.5186 -1.0921
  111OSM    C4S11486   4.203   4.262  10.471  0.2186  0.5326 -0.3653
  111OSM    H4S11487   4.102   4.271  10.514  0.3048  1.3969 -0.3238
  111OSM    C5S11488   4.224   4.313  10.347  0.0417  0.7934 -0.0573
  111OSM    H5S11489   4.326   4.326  10.307  0.2546 -0.9677 -0.1926
  111OSM    C6S11490   4.116   4.363  10.257 -0.6046 -0.3831 -0.0203
  111OSM    H6S11491   4.135   4.472  10.250  1.3683 -0.7848 -3.1533
  111OSM    H6T11492   4.017   4.340  10.301  0.4662 -1.0734  2.1990
  111OSM    C7S11493   4.133   4.297  10.119  0.3678 -0.2248  0.0027
  111OSM    H7S11494   4.103   4.190  10.129 -1.6224  0.4532  1.8041
  111OSM    H7T11495   4.238   4.309  10.084  0.6333 -1.2906  0.4002
  111OSM    C8S11496   4.058   4.376  10.012 -0.3755 -0.4536  0.2729
  111OSM    H8S11497   4.110   4.372   9.915  0.1991 -0.7700  0.5935
  111OSM    H8T11498   4.055   4.483  10.041 -0.8764 -0.2476 -0.5126
  111OSM    C9S11499   3.917   4.328   9.986 -0.3104 -0.4534 -0.3350
  111OSM    H9S11500   3.873   4.298  10.083  3.5027 -2.2208  1.0238
  111OSM    H9T11501   3.913   4.238   9.921 -1.4489 -0.1649 -0.6854
  111OSM   C10S11502   3.821   4.434   9.928  0.2253  0.6402 -0.1670
  111OSM   H10S11503   3.832   4.478   9.826 -1.0453  3.4016  0.8002
  111OSM   H10T11504   3.812   4.521   9.996  0.0518 -0.6021  1.4547
  111OSM   C11S11505   3.675   4.380   9.936  0.0795  0.4825  0.1208
  111OSM   H11S11506   3.609   4.460   9.896 -0.3038  0.2425  0.2735
  111OSM   H11T11507   3.658   4.362  10.044 -2.8929  0.4982 -0.2625
  111OSM   C12S11508   3.637   4.250   9.854  0.0319  0.3950  0.5039
  111OSM   H12S11509   3.536   4.220   9.889  0.8895  0.0304  2.8329
  111OSM   H12T11510   3.698   4.163   9.888 -1.0810 -1.7222 -2.5053
  111OSM   C13S11511   3.655   4.264   9.706  0.3857 -0.2237  0.1382
  111OSM   H13S11512   3.647   4.169   9.649 -0.4301 -0.3146  0.3904
  111OSM   H13T11513   3.756   4.303   9.682 -0.5016  2.2146  0.0262
  111OSM   C14S11514   3.556   4.361   9.629 -0.5413  0.3755  0.0950
  111OSM   H14S11515   3.563   4.462   9.675 -0.3438  1.4884 -2.2475
  111OSM   H14T11516   3.457   4.322   9.659 -0.4803  1.4707  1.9312
  111OSM   C15S11517   3.585   4.377   9.483  0.1438  0.4918  0.0946
  111OSM   H15S11518   3.595   4.277   9.435 -2.3128 -0.8428  2.0987
  111OSM   H15T11519   3.682   4.430   9.479  0.5395 -0.3051 -2.6685
  111OSM   C16S11520   3.463   4.444   9.417 -0.7128 -0.1407 -0.0351
  111OSM   H16S11521   3.449   4.526   9.490  0.3094 -0.4141  0.4929
  111OSM   H16T11522   3.378   4.373   9.408 -2.4091  1.7501  0.6167
  111OSM   C17S11523   3.498   4.491   9.280 -0.2961  0.0762 -0.6124
  111OSM   H17S11524   3.605   4.522   9.278  0.2534 -1.5526  0.7260
  111OSM   H17T11525   3.435   4.577   9.251  0.8583  1.1814  0.0750
  111OSM   C18S11526   3.470   4.384   9.169 -0.3481 -0.3909  0.2322
  111OSM   H18S11527   3.486   4.278   9.199 -1.0931 -0.6265 -0.1738
  111OSM   H18T11528   3.545   4.388   9.087  0.8341 -0.8721  1.2751
  111OSM   H18U11529   3.362   4.377   9.142 -0.3924  0.6300  0.0933
  111OSM    C1F11530   4.437   3.898  10.387  0.2833  0.3760 -0.1506
  111OSM     OF11531   4.399   3.806  10.455 -0.3250  0.0552 -0.2574
  111OSM    C2F11532   4.527   3.879  10.277 -0.1382 -0.0372 -0.5344
  111OSM    H2F11533   4.633   3.870  10.310  0.3000  0.5872 -1.6979
  111OSM    H2G11534   4.531   3.970  10.213  3.4028 -0.2728 -0.8640
  111OSM    C3F11535   4.509   3.741  10.206  0.3491 -0.2569  0.1182
  111OSM    H3F11536   4.421   3.737  10.139  0.3554  0.1648  0.0819
  111OSM    H3G11537   4.505   3.658  10.280  0.6842  0.4312  0.9178
  111OSM    C4F11538   4.627   3.695  10.115 -0.1700 -0.3599 -0.3346
  111OSM    H4F11539   4.582   3.601  10.078 -0.7833 -0.0050 -0.5099
  111OSM    H4G11540   4.725   3.686  10.167  1.3121  1.1289 -2.6960
  111OSM    C5F11541   4.645   3.782   9.989 -0.5719  0.4369  0.3326
  111OSM    H5F11542   4.742   3.759   9.938 -2.0881  0.5270 -2.8706
  111OSM    H5G11543   4.648   3.891  10.014  2.6762  0.9077 -1.4512
  111OSM    C6F11544   4.550   3.742   9.879  0.9778  0.0707  0.1595
  111OSM    H6F11545   4.447   3.754   9.919  1.0656 -1.3762  0.8772
  111OSM    H6G11546   4.563   3.636   9.849  0.3425  0.8220 -3.2629
  111OSM    C7F11547   4.557   3.824   9.750  0.9035 -0.4984  0.4303
  111OSM    H7F11548   4.660   3.829   9.708  2.0959  1.4543  3.2115
  111OSM    H7G11549   4.545   3.930   9.781  1.3269  0.1080 -1.3396
  111OSM    C8F11550   4.451   3.794   9.641  0.3266  0.6520  0.8135
  111OSM    H8F11551   4.484   3.704   9.586 -3.1667 -0.8645  0.9882
  111OSM    H8G11552   4.450   3.868   9.558 -3.8244 -1.3080 -1.1405
  111OSM    C9F11553   4.309   3.768   9.675  0.0451 -0.0711  0.4939
  111OSM    H9F11554   4.286   3.661   9.672 -0.1847 -0.0084 -0.4357
  111OSM   C10F11555   4.212   3.851   9.707  0.4271 -0.7526 -0.0488
  111OSM   H10F11556   4.105   3.825   9.713 -0.0080  0.9793  0.4768
  111OSM   C11F11557   4.234   4.004   9.736  0.4932  0.0939 -0.2560
  111OSM   H11F11558   4.335   4.029   9.697  0.8484 -0.8001  0.0664
  111OSM   H11G11559   4.237   4.024   9.846 -1.8505 -1.1581  0.0994
  111OSM   C12F11560   4.140   4.094   9.655  0.4236  0.8030 -0.3370
  111OSM   H12F11561   4.042   4.093   9.708  1.2218 -0.5823  1.2081
  111OSM   H12G11562   4.124   4.075   9.547  0.5500  2.0388 -0.5825
  111OSM   C13F11563   4.191   4.240   9.681  0.7416  0.1194 -0.3394
  111OSM   H13F11564   4.276   4.272   9.617 -0.0039  2.7236 -0.1571
  111OSM   H13G11565   4.210   4.254   9.790 -1.2293  1.1022 -0.0630
  111OSM   C14F11566   4.071   4.336   9.644 -0.6338  0.0925  0.2875
  111OSM   H14F11567   4.115   4.432   9.679  0.6971 -0.1894 -0.5407
  111OSM   H14G11568   3.973   4.315   9.691 -1.3532  0.3224 -1.0793
  111OSM   C15F11569   4.033   4.344   9.493  0.9013  0.0515 -0.9077
  111OSM   H15F11570   3.988   4.245   9.467 -0.3992  0.4430 -0.2105
  111OSM   H15G11571   4.132   4.354   9.443  2.0821 -1.2015  1.0603
  111OSM   C16F11572   3.966   4.479   9.475  0.2779  0.2838 -0.5124
  111OSM   H16F11573   4.031   4.560   9.514  2.4630 -0.6335 -2.0090
  111OSM   H16G11574   3.874   4.475   9.537  2.0533  2.1668  2.4615
  111OSM   C17F11575   3.934   4.528   9.334  0.0222 -0.1202  0.8502
  111OSM   H17F11576   4.016   4.578   9.280 -1.1105 -2.6308 -3.7803
  111OSM   H17G11577   3.847   4.592   9.360 -0.6262 -0.4437 -0.4619
  111OSM   C18F11578   3.887   4.429   9.235 -0.1618 -0.4646  0.6947
  111OSM   H18F11579   3.855   4.469   9.136  0.8905 -4.0404 -1.2564
  111OSM   H18G11580   3.804   4.369   9.276  0.0737  0.1395  2.0847
  111OSM   H18H11581   3.961   4.350   9.210  0.4523 -0.1599  1.5091
  112OSM      N11582   3.190   1.077  11.177 -0.3034  0.7352 -0.0212
  112OSM    C1511583   3.305   0.982  11.145  0.0492  0.0266  0.7942
  112OSM   H15A11584   3.397   1.039  11.151  0.5558 -0.6931  0.0615
  112OSM   H15B11585   3.283   0.946  11.045 -0.0087  1.8664  0.0912
  112OSM   H15C11586   3.309   0.893  11.206 -2.2794 -1.2082 -0.6890
  112OSM    C1411587   3.077   0.982  11.197  0.4417 -0.3282  0.1463
  112OSM   H14A11588   3.102   0.912  11.275  1.6032  2.2215  2.2333
  112OSM   H14B11589   3.056   0.924  11.108  0.3906  0.0950 -0.1200
  112OSM   H14C11590   2.988   1.038  11.223  0.4059 -0.2362 -0.1735
  112OSM    C1311591   3.227   1.141  11.308  0.3819 -0.5107 -0.3201
  112OSM   H13A11592   3.238   1.069  11.388 -1.6123  0.6055  1.0353
  112OSM   H13B11593   3.165   1.219  11.348  0.2492 -0.8809  0.2012
  112OSM   H13C11594   3.324   1.187  11.299 -0.2999  0.9292 -0.5457
  112OSM    C1211595   3.163   1.180  11.070  0.2108  0.2135 -0.1721
  112OSM   H12A11596   3.240   1.256  11.071 -0.3289  0.7685  0.5457
  112OSM   H12B11597   3.067   1.226  11.091 -1.1326 -2.1177 -0.8270
  112OSM    C1111598   3.160   1.143  10.915 -0.2246 -0.0026  0.4031
  112OSM   H11A11599   3.261   1.101  10.893 -0.4467 -0.0054 -0.6309
  112OSM   H11B11600   3.148   1.232  10.850 -2.8616 -0.8659 -0.4295
  112OSM      P11601   2.908   1.102  10.879  0.4573 -0.5622 -0.7701
  112OSM    O1311602   2.822   0.997  10.924  0.5454 -0.1451  0.4932
  112OSM    O1411603   2.901   1.234  10.950 -0.4947  0.2477 -0.0787
  112OSM    O1111604   2.884   1.108  10.729 -0.6465  0.2230  0.1053
  112OSM    O1211605   3.053   1.056  10.886 -0.2096 -0.1420 -0.6508
  112OSM    C1S11606   2.989   1.065  10.637  0.3263  0.2327  0.0571
  112OSM    H1S11607   2.958   0.964  10.602 -1.3578  0.8377 -0.2665
  112OSM    H1T11608   3.094   1.062  10.673  0.3139 -0.4379  0.0512
  112OSM     NF11609   3.024   1.080  10.394  0.3917 -0.3403 -0.0280
  112OSM    HNF11610   3.110   1.118  10.361 -0.3933  1.5288 -0.0829
  112OSM    C2S11611   2.971   1.149  10.509 -0.6155 -0.1936 -0.7644
  112OSM    H2S11612   2.866   1.171  10.480 -0.8718 -0.0356  0.2478
  112OSM    C3S11613   3.043   1.285  10.526 -0.6873  0.2315  0.3685
  112OSM    H3S11614   3.150   1.262  10.545  0.2954  2.4827 -1.8436
  112OSM     O311615   2.993   1.359  10.642  0.3635  0.0273 -0.0503
  112OSM    HO311616   2.945   1.289  10.687  0.5058  1.0635  1.8078
  112OSM    C4S11617   3.026   1.367  10.406  0.4764 -0.2237  0.3069
  112OSM    H4S11618   2.927   1.400  10.374  1.5591  2.5157 -0.5140
  112OSM    C5S11619   3.128   1.425  10.342 -0.1134  0.1242  0.0385
  112OSM    H5S11620   3.234   1.412  10.371 -0.1044  2.0814  1.0310
  112OSM    C6S11621   3.114   1.516  10.222  0.0942  0.2095  0.1379
  112OSM    H6S11622   3.214   1.547  10.185  0.4770 -1.2570 -0.1352
  112OSM    H6T11623   3.062   1.607  10.258  1.2028  0.4092  1.2920
  112OSM    C7S11624   3.046   1.451  10.105  0.6301  0.0584  0.3529
  112OSM    H7S11625   3.028   1.517  10.017 -3.9179  0.5635  1.4015
  112OSM    H7T11626   2.951   1.399  10.130  1.5145 -1.8333 -0.0253
  112OSM    C8S11627   3.135   1.330  10.048  0.2430 -0.9222  0.1226
  112OSM    H8S11628   3.146   1.246  10.120 -0.8402  0.6470  2.2341
  112OSM    H8T11629   3.233   1.377  10.024 -0.6212  0.9008  0.0160
  112OSM    C9S11630   3.067   1.275   9.922 -0.1533  0.9223 -0.0306
  112OSM    H9S11631   3.007   1.356   9.875 -1.0464  1.1790  1.4829
  112OSM    H9T11632   2.997   1.194   9.952 -0.9897  1.8907  0.7349
  112OSM   C10S11633   3.171   1.223   9.821 -0.1875  0.6424 -0.4994
  112OSM   H10S11634   3.214   1.139   9.880 -0.4245  0.2569 -0.8722
  112OSM   H10T11635   3.250   1.299   9.800  2.1196 -1.3869  0.2596
  112OSM   C11S11636   3.105   1.185   9.685  0.2395  0.1148 -0.8888
  112OSM   H11S11637   3.026   1.260   9.661 -0.2461  0.1455  0.6856
  112OSM   H11T11638   3.048   1.091   9.704 -2.1108  1.7500  0.5628
  112OSM   C12S11639   3.199   1.178   9.564  0.3583 -0.0711 -0.9162
  112OSM   H12S11640   3.274   1.108   9.608  0.5432  1.8706  2.1551
  112OSM   H12T11641   3.249   1.277   9.558 -1.3382  0.7561 -1.8971
  112OSM   C13S11642   3.136   1.140   9.427 -0.6886  0.3969  0.1179
  112OSM   H13S11643   3.082   1.046   9.449 -0.5009  0.4200  0.7043
  112OSM   H13T11644   3.213   1.121   9.349 -0.9446  3.0494 -0.8923
  112OSM   C14S11645   3.028   1.230   9.380  1.0165 -0.5368 -0.2068
  112OSM   H14S11646   3.060   1.333   9.356 -0.3281  0.1711  0.8855
  112OSM   H14T11647   2.946   1.243   9.454 -1.2575 -1.4795 -2.4075
  112OSM   C15S11648   2.969   1.179   9.242 -0.1146  0.8165  0.1477
  112OSM   H15S11649   2.898   1.093   9.248 -0.6226  1.1039 -1.4217
  112OSM   H15T11650   3.059   1.155   9.182 -1.5257 -0.4219 -1.6048
  112OSM   C16S11651   2.908   1.294   9.163  0.2571 -0.1661  0.6321
  112OSM   H16S11652   2.981   1.377   9.155 -0.2268  0.2530  0.5060
  112OSM   H16T11653   2.817   1.333   9.215  0.4847 -0.4590  1.2655
  112OSM   C17S11654   2.868   1.254   9.018  0.2618 -0.3516  0.3423
  112OSM   H17S11655   2.798   1.168   9.028  1.7349 -1.5026  1.2319
  112OSM   H17T11656   2.960   1.222   8.965  1.3052  1.7367  0.7643
  112OSM   C18S11657   2.821   1.372   8.926  0.6629 -0.5979  0.0084
  112OSM   H18S11658   2.831   1.342   8.820 -0.4192 -0.1789 -0.2321
  112OSM   H18T11659   2.875   1.465   8.952 -0.9582 -0.2292  2.4944
  112OSM   H18U11660   2.710   1.374   8.937  0.6162 -1.2771 -0.2854
  112OSM    C1F11661   2.982   0.971  10.335  0.2203  0.2108  0.3181
  112OSM     OF11662   2.888   0.912  10.380  0.4931 -0.2690  0.1927
  112OSM    C2F11663   3.059   0.928  10.214  0.2064 -0.2034 -0.2914
  112OSM    H2F11664   3.119   0.838  10.240  0.0777  0.4176  2.4175
  112OSM    H2G11665   3.125   1.013  10.187 -0.3456 -0.2202 -1.8076
  112OSM    C3F11666   2.960   0.882  10.101  0.2760 -0.3703  0.1129
  112OSM    H3F11667   2.893   0.964  10.067  0.3550 -0.5169 -0.4169
  112OSM    H3G11668   2.889   0.800  10.126  0.9495 -0.8136  0.5780
  112OSM    C4F11669   3.029   0.814   9.981 -0.4706  0.7331 -0.4748
  112OSM    H4F11670   3.092   0.729  10.014 -2.0167 -0.4786 -0.5757
  112OSM    H4G11671   3.108   0.879   9.937  2.0328 -0.5891  1.7678
  112OSM    C5F11672   2.922   0.782   9.871 -0.6957  0.1882  1.2135
  112OSM    H5F11673   2.866   0.874   9.846 -0.9082  0.1766  1.6405
  112OSM    H5G11674   2.852   0.708   9.915 -0.9434 -0.1964  0.2121
  112OSM    C6F11675   2.992   0.720   9.742  0.6455 -0.0405 -0.2739
  112OSM    H6F11676   2.917   0.668   9.679  0.8904 -0.7018 -0.0309
  112OSM    H6G11677   3.059   0.639   9.776 -0.5096 -1.4709 -1.2645
  112OSM    C7F11678   3.064   0.828   9.655  0.5013 -1.6449 -0.0638
  112OSM    H7F11679   3.112   0.897   9.727 -1.4710  1.8138 -1.7939
  112OSM    H7G11680   2.985   0.890   9.608  2.3624  2.0254  1.2159
  112OSM    C8F11681   3.155   0.783   9.549 -0.2497  0.0036 -0.9636
  112OSM    H8F11682   3.247   0.762   9.609 -0.8705  4.2155  1.8660
  112OSM    H8G11683   3.165   0.871   9.483  2.7095  0.3993 -0.1661
  112OSM    C9F11684   3.120   0.657   9.472 -0.2938 -0.4201 -1.1318
  112OSM    H9F11685   3.114   0.559   9.521  0.6615 -0.7005 -1.5498
  112OSM   C10F11686   3.073   0.650   9.347 -0.0504  0.1861 -0.3557
  112OSM   H10F11687   3.047   0.550   9.309 -0.6205  0.0322  0.4178
  112OSM   C11F11688   3.057   0.764   9.255 -0.3667  0.9199 -0.0782
  112OSM   H11F11689   3.024   0.853   9.312  2.0126  2.5700 -1.1365
  112OSM   H11G11690   2.975   0.740   9.184  1.4204 -0.6820 -1.7294
  112OSM   C12F11691   3.178   0.794   9.164  0.1558  0.1112  0.4575
  112OSM   H12F11692   3.225   0.700   9.126  2.4123  2.1786 -2.3524
  112OSM   H12G11693   3.254   0.846   9.226  1.0031  1.9030 -1.9044
  112OSM   C13F11694   3.149   0.883   9.042  0.3287  0.3930  0.1080
  112OSM   H13F11695   3.116   0.984   9.077  0.9213 -0.0114  1.9241
  112OSM   H13G11696   3.080   0.846   8.963  1.3930  1.1172 -1.2145
  112OSM   C14F11697   3.275   0.912   8.962  0.4969  0.2570 -0.2662
  112OSM   H14F11698   3.307   0.818   8.914 -0.3380 -0.6566  0.9037
  112OSM   H14G11699   3.359   0.941   9.030  0.5080  1.2161 -0.6696
  112OSM   C15F11700   3.261   1.022   8.858 -0.5438 -0.2544 -0.5136
  112OSM   H15F11701   3.243   1.117   8.913 -2.6852  0.5067 -2.3924
  112OSM   H15G11702   3.180   1.009   8.783  0.7322  0.7879 -2.1496
  112OSM   C16F11703   3.392   1.030   8.785  0.7628 -0.5312 -0.0938
  112OSM   H16F11704   3.422   0.933   8.740  1.2732 -1.4803  2.1540
  112OSM   H16G11705   3.476   1.059   8.851  0.4753  2.2845 -0.8053
  112OSM   C17F11706   3.387   1.139   8.670  0.6807  1.1876 -0.2650
  112OSM   H17F11707   3.379   1.241   8.711  0.1398  1.5201 -1.1816
  112OSM   H17G11708   3.301   1.124   8.601  0.0707  0.9819  0.5302
  112OSM   C18F11709   3.522   1.135   8.585  0.5083  0.1168 -1.1569
  112OSM   H18F11710   3.598   1.164   8.661  0.0634  1.1098 -1.0616
  112OSM   H18G11711   3.518   1.215   8.508  0.8336  2.6463  1.2448
  112OSM   H18H11712   3.550   1.038   8.541 -1.4947 -0.8441 -0.4681
  113OSM      N11713   1.619   5.797  11.399  0.4821 -1.1483 -0.0302
  113OSM    C1511714   1.750   5.751  11.449  0.3434  0.0653  0.6693
  113OSM   H15A11715   1.776   5.651  11.418 -0.4759  0.3071 -0.8819
  113OSM   H15B11716   1.762   5.753  11.557  1.1283 -1.2681  0.6333
  113OSM   H15C11717   1.826   5.816  11.408 -0.2177  0.0892 -0.3432
  113OSM    C1411718   1.517   5.710  11.457  0.3479 -0.6400  0.2394
  113OSM   H14A11719   1.569   5.662  11.538  0.6480 -1.5484 -0.4759
  113OSM   H14B11720   1.473   5.631  11.397 -0.2095 -0.6377  0.6367
  113OSM   H14C11721   1.431   5.761  11.497  0.7445  0.4152 -0.2189
  113OSM    C1311722   1.606   5.938  11.440 -0.2440 -0.2288 -0.0906
  113OSM   H13A11723   1.506   5.974  11.424  0.0256 -0.3579 -2.3699
  113OSM   H13B11724   1.670   6.008  11.388 -0.8924 -2.1134 -3.7821
  113OSM   H13C11725   1.631   5.938  11.545  0.4608  1.7637 -0.2234
  113OSM    C1211726   1.618   5.791  11.243  0.7225 -0.1581 -0.2450
  113OSM   H12A11727   1.673   5.879  11.211 -0.2791  0.0046 -1.5784
  113OSM   H12B11728   1.513   5.792  11.219  0.7533 -0.5318 -0.3994
  113OSM    C1111729   1.669   5.664  11.165  0.4203  0.7338 -0.4062
  113OSM   H11A11730   1.779   5.681  11.164  0.6397 -0.5855 -0.7692
  113OSM   H11B11731   1.641   5.666  11.057 -0.2995  0.6403 -0.2213
  113OSM      P11732   1.502   5.466  11.167  0.3373  0.5605  0.1867
  113OSM    O1311733   1.487   5.337  11.235 -0.1551 -0.0150  0.0438
  113OSM    O1411734   1.386   5.561  11.176  0.1521 -0.2054 -0.3983
  113OSM    O1111735   1.547   5.446  11.022 -0.0815  0.6814  0.3827
  113OSM    O1211736   1.632   5.543  11.224  0.2639 -0.4249  0.0420
  113OSM    C1S11737   1.464   5.379  10.926 -0.4000  0.2711  0.0272
  113OSM    H1S11738   1.358   5.412  10.928 -0.6251 -0.4776  0.4474
  113OSM    H1T11739   1.472   5.269  10.933 -0.5531  0.2142 -0.6178
  113OSM     NF11740   1.418   5.374  10.676 -0.2443  0.1396 -0.1639
  113OSM    HNF11741   1.424   5.285  10.633  1.9414 -0.3306  0.9733
  113OSM    C2S11742   1.519   5.412  10.780 -0.0094 -0.0895 -0.6971
  113OSM    H2S11743   1.534   5.522  10.788 -1.7826  0.0889  0.8824
  113OSM    C3S11744   1.655   5.349  10.756 -0.6121 -0.0264  0.4737
  113OSM    H3S11745   1.640   5.240  10.741 -0.5323  0.2649 -2.3190
  113OSM     O311746   1.750   5.355  10.858  0.1215  0.1262 -0.2867
  113OSM    HO311747   1.706   5.402  10.929  0.4223 -1.4224  0.9717
  113OSM    C4S11748   1.717   5.410  10.629  0.9638 -0.2490 -0.0518
  113OSM    H4S11749   1.743   5.516  10.636  2.1018 -0.3495 -2.1995
  113OSM    C5S11750   1.727   5.341  10.511  0.0789 -0.7629 -0.3841
  113OSM    H5S11751   1.692   5.237  10.501 -1.4586 -0.5607  2.0552
  113OSM    C6S11752   1.773   5.393  10.379 -0.3905  0.2572  0.9841
  113OSM    H6S11753   1.861   5.332  10.350 -1.3147 -0.8041  0.3632
  113OSM    H6T11754   1.813   5.497  10.378  1.0108 -0.2044 -1.9387
  113OSM    C7S11755   1.669   5.379  10.265 -0.8185  0.3237  0.5846
  113OSM    H7S11756   1.584   5.450  10.275  0.7568  2.3217  0.4732
  113OSM    H7T11757   1.633   5.274  10.263 -0.7633  0.2958 -2.0422
  113OSM    C8S11758   1.725   5.395  10.124  0.0570  0.0221  1.1741
  113OSM    H8S11759   1.808   5.326  10.099 -1.6779 -1.4047 -1.0733
  113OSM    H8T11760   1.765   5.497  10.108  1.0589 -0.7952 -2.4923
  113OSM    C9S11761   1.605   5.378  10.025 -0.8564 -0.2855 -0.0661
  113OSM    H9S11762   1.535   5.458  10.055 -1.0977 -0.6613  0.3794
  113OSM    H9T11763   1.561   5.277  10.041  2.6210 -2.2894 -1.7641
  113OSM   C10S11764   1.651   5.382   9.872 -0.4596  0.5984  0.4420
  113OSM   H10S11765   1.721   5.296   9.861 -0.6909  0.0687  2.5878
  113OSM   H10T11766   1.708   5.477   9.861 -1.8051  1.2906 -0.9920
  113OSM   C11S11767   1.545   5.374   9.762 -0.4418 -0.5516  0.0428
  113OSM   H11S11768   1.478   5.461   9.778  0.9243  0.2897  1.5814
  113OSM   H11T11769   1.484   5.283   9.776  1.9034 -2.0353  1.3496
  113OSM   C12S11770   1.594   5.372   9.621  0.7656 -0.0411 -0.0000
  113OSM   H12S11771   1.672   5.294   9.609 -2.2246 -3.2444 -0.2790
  113OSM   H12T11772   1.639   5.473   9.607 -1.2180  0.9728  0.5425
  113OSM   C13S11773   1.483   5.336   9.521 -0.0501 -0.3759  0.7554
  113OSM   H13S11774   1.392   5.399   9.518  0.6271  0.5928 -1.1484
  113OSM   H13T11775   1.461   5.227   9.535  3.7909 -1.5390 -0.9837
  113OSM   C14S11776   1.552   5.330   9.379 -0.4565 -0.2519  0.0995
  113OSM   H14S11777   1.480   5.276   9.314 -3.2396  2.2355  0.9413
  113OSM   H14T11778   1.640   5.262   9.390 -0.4194  0.0644  2.2022
  113OSM   C15S11779   1.584   5.471   9.327  0.1771  0.1960  0.1526
  113OSM   H15S11780   1.654   5.524   9.395 -0.5003  0.4485  0.6612
  113OSM   H15T11781   1.489   5.528   9.321  0.5595  0.7306 -1.3954
  113OSM   C16S11782   1.638   5.465   9.181  0.0150  0.2827 -0.0840
  113OSM   H16S11783   1.717   5.387   9.178 -1.3681 -1.1673 -0.5325
  113OSM   H16T11784   1.694   5.557   9.153  1.0115 -0.9843 -2.6410
  113OSM   C17S11785   1.531   5.437   9.078 -0.7604 -0.7204 -0.4697
  113OSM   H17S11786   1.450   5.512   9.094 -1.0548 -1.1600  0.1418
  113OSM   H17T11787   1.473   5.343   9.091 -0.7068 -0.5885  0.8648
  113OSM   C18S11788   1.590   5.439   8.940  0.4237 -0.0552 -0.2585
  113OSM   H18S11789   1.659   5.521   8.912  1.7857 -1.0875 -0.0545
  113OSM   H18T11790   1.505   5.437   8.870 -0.2561  1.3499  0.4769
  113OSM   H18U11791   1.660   5.354   8.926  0.4821  0.2390 -1.8890
  113OSM    C1F11792   1.308   5.442  10.650 -0.1279 -0.6591  0.4097
  113OSM     OF11793   1.278   5.535  10.721  0.3866  0.2763 -0.1258
  113OSM    C2F11794   1.228   5.406  10.528 -0.6935 -0.4580 -0.2047
  113OSM    H2F11795   1.155   5.329  10.561 -0.2668 -0.0444  1.8229
  113OSM    H2G11796   1.300   5.354  10.462 -0.1299  0.0360  0.0065
  113OSM    C3F11797   1.163   5.535  10.459 -1.0654 -0.1917  0.4455
  113OSM    H3F11798   1.250   5.603  10.444  0.4891 -1.4323  3.0896
  113OSM    H3G11799   1.102   5.574  10.542 -1.0264 -1.0424  0.8871
  113OSM    C4F11800   1.085   5.501  10.333  0.1930 -0.2123  0.4775
  113OSM    H4F11801   1.043   5.600  10.304 -1.9390 -0.8717  1.1534
  113OSM    H4G11802   0.992   5.446  10.359 -0.9920  0.4587 -1.9865
  113OSM    C5F11803   1.168   5.432  10.226 -0.7283  0.5131 -0.6435
  113OSM    H5F11804   1.213   5.334  10.252  2.7027  1.5768 -2.1000
  113OSM    H5G11805   1.250   5.500  10.196  1.3587 -1.9911 -0.9874
  113OSM    C6F11806   1.094   5.411  10.093 -0.4470 -0.2846 -0.4113
  113OSM    H6F11807   1.040   5.503  10.062 -0.7974 -1.2120 -2.8464
  113OSM    H6G11808   1.022   5.328  10.101  0.3969 -0.9640  0.3823
  113OSM    C7F11809   1.190   5.382   9.979  0.2341  0.4249  0.4429
  113OSM    H7F11810   1.258   5.301  10.010  0.1533  0.9000  1.9601
  113OSM    H7G11811   1.264   5.463   9.962  0.2501 -0.0596 -2.1814
  113OSM    C8F11812   1.124   5.360   9.839 -0.0192 -0.1815 -0.7294
  113OSM    H8F11813   1.206   5.384   9.768 -1.7595  1.3180 -2.3337
  113OSM    H8G11814   1.047   5.436   9.815 -0.5322 -0.6824 -0.6698
  113OSM    C9F11815   1.071   5.221   9.808  0.4389 -0.3932 -0.9880
  113OSM    H9F11816   1.027   5.169   9.895 -0.2048  0.0471 -1.0471
  113OSM   C10F11817   1.091   5.152   9.697 -0.1828 -0.8105 -0.0908
  113OSM   H10F11818   1.040   5.055   9.686 -2.6730  0.3375  0.6323
  113OSM   C11F11819   1.151   5.217   9.576 -0.1745  0.3107 -0.5102
  113OSM   H11F11820   1.262   5.212   9.582 -0.2150  0.8743  2.5610
  113OSM   H11G11821   1.111   5.319   9.559 -0.6660 -0.0623 -1.6991
  113OSM   C12F11822   1.104   5.145   9.441 -0.1864  0.5094 -0.1896
  113OSM   H12F11823   0.993   5.149   9.447 -0.2598 -0.4688 -0.7463
  113OSM   H12G11824   1.122   5.036   9.448 -0.9037  0.4740  1.9606
  113OSM   C13F11825   1.167   5.197   9.310  0.4301 -0.5468 -0.5656
  113OSM   H13F11826   1.277   5.178   9.314  0.1877 -1.8305  1.4911
  113OSM   H13G11827   1.167   5.309   9.309 -1.1863 -0.4953  0.6023
  113OSM   C14F11828   1.111   5.145   9.182  0.4174 -0.2763 -0.2103
  113OSM   H14F11829   1.001   5.160   9.189  0.2222 -2.0751  4.3904
  113OSM   H14G11830   1.125   5.037   9.163 -1.7387 -0.8100  0.9026
  113OSM   C15F11831   1.165   5.214   9.055  0.3025  0.3562  0.1447
  113OSM   H15F11832   1.274   5.194   9.046  0.3250  1.2604 -2.3108
  113OSM   H15G11833   1.135   5.321   9.062 -2.4730 -0.1890 -1.8289
  113OSM   C16F11834   1.098   5.164   8.926  0.8780  0.0995 -0.3043
  113OSM   H16F11835   1.122   5.240   8.848 -0.6478 -0.7100 -1.6265
  113OSM   H16G11836   0.992   5.157   8.957  1.6016 -0.4266  2.2647
  113OSM   C17F11837   1.160   5.030   8.887  0.3188  0.1323  0.0812
  113OSM   H17F11838   1.136   4.963   8.973 -0.3384  0.9423  0.5384
  113OSM   H17G11839   1.268   5.056   8.888  0.3087  0.5379  3.3863
  113OSM   C18F11840   1.109   4.970   8.757  0.4107 -0.1800  0.3932
  113OSM   H18F11841   1.128   5.028   8.665  0.2150 -1.5543 -0.5399
  113OSM   H18G11842   0.998   4.968   8.757  0.2981  1.9939  2.3157
  113OSM   H18H11843   1.146   4.868   8.732 -2.0255 -0.8294 -0.8560
  114OSM      N11844   2.311   0.413  11.156 -0.5747  0.0934  0.0837
  114OSM    C1511845   2.417   0.410  11.258  0.4856 -0.5852  0.5058
  114OSM   H15A11846   2.424   0.508  11.302 -0.8386 -0.4721  0.5231
  114OSM   H15B11847   2.514   0.383  11.219 -0.2910  0.1783 -2.2056
  114OSM   H15C11848   2.403   0.335  11.335 -1.9614 -1.2632 -0.4921
  114OSM    C1411849   2.260   0.270  11.136 -0.3299  0.8389 -0.3799
  114OSM   H14A11850   2.168   0.256  11.081  0.1136 -0.0895 -0.9073
  114OSM   H14B11851   2.256   0.216  11.229  0.9258  1.3719  0.0108
  114OSM   H14C11852   2.336   0.212  11.085 -2.1225 -2.3788  0.3329
  114OSM    C1311853   2.192   0.485  11.205  0.3302 -0.6971 -0.7186
  114OSM   H13A11854   2.144   0.451  11.295  0.3099 -2.7216 -1.4462
  114OSM   H13B11855   2.115   0.480  11.130 -0.3399  1.6943 -0.2724
  114OSM   H13C11856   2.212   0.591  11.213 -0.1933 -0.5117 -1.7097
  114OSM    C1211857   2.360   0.473  11.023 -0.1176  0.2690 -0.0410
  114OSM   H12A11858   2.284   0.450  10.951  0.7613 -3.7925  0.0842
  114OSM   H12B11859   2.444   0.416  10.987 -1.3178 -0.9654 -0.9627
  114OSM    C1111860   2.390   0.624  11.024 -0.3234 -0.4630 -0.1137
  114OSM   H11A11861   2.325   0.695  11.078  2.1478  1.5911  0.3751
  114OSM   H11B11862   2.391   0.650  10.916  1.2244  0.9536  0.1977
  114OSM      P11863   2.647   0.614  10.988  0.5231  0.1844  0.3965
  114OSM    O1311864   2.767   0.629  11.068  0.1725 -0.9771  0.4000
  114OSM    O1411865   2.636   0.475  10.942  0.2822 -0.2213  0.5004
  114OSM    O1111866   2.639   0.719  10.878  0.2176 -0.2899  0.3513
  114OSM    O1211867   2.525   0.648  11.076 -0.2006 -0.1912 -0.4032
  114OSM    C1S11868   2.744   0.738  10.784 -0.0398 -0.2395 -0.3850
  114OSM    H1S11869   2.842   0.703  10.824  0.0126 -0.7707 -0.9505
  114OSM    H1T11870   2.759   0.847  10.771 -0.5752 -0.1578 -0.3305
  114OSM     NF11871   2.841   0.667  10.583  0.2584 -0.1077 -0.0962
  114OSM    HNF11872   2.863   0.745  10.525  0.1595  0.4392  0.5880
  114OSM    C2S11873   2.721   0.680  10.654 -0.4504  0.5043  0.0480
  114OSM    H2S11874   2.684   0.576  10.663  0.3775  0.2190  0.2218
  114OSM    C3S11875   2.616   0.768  10.582 -0.2929  0.3857  0.1857
  114OSM    H3S11876   2.655   0.871  10.595  0.0406  0.5980 -2.1364
  114OSM     O311877   2.485   0.759  10.643 -0.1809  0.1142  0.2394
  114OSM    HO311878   2.510   0.731  10.731 -1.7118  0.2476  0.7434
  114OSM    C4S11879   2.611   0.746  10.434  0.3768  0.0341 -0.7211
  114OSM    H4S11880   2.689   0.806  10.386  1.9196  0.2256  1.8041
  114OSM    C5S11881   2.538   0.672  10.359 -0.0492 -0.4313  0.2074
  114OSM    H5S11882   2.457   0.613  10.407 -1.5941  1.2923 -0.1791
  114OSM    C6S11883   2.552   0.667  10.209  0.2471  0.0984 -0.3358
  114OSM    H6S11884   2.652   0.693  10.168 -0.4153 -2.1604 -3.8611
  114OSM    H6T11885   2.479   0.734  10.158  0.9310 -0.9840 -2.9012
  114OSM    C7S11886   2.522   0.527  10.157 -0.6705 -0.0781 -0.1374
  114OSM    H7S11887   2.427   0.482  10.192  0.1652 -0.5632  1.6117
  114OSM    H7T11888   2.589   0.451  10.202  0.6285  2.3540  2.3880
  114OSM    C8S11889   2.530   0.517  10.010 -0.3859 -0.1611  0.1331
  114OSM    H8S11890   2.550   0.413   9.976 -0.2130 -0.0480 -0.1113
  114OSM    H8T11891   2.621   0.575   9.983 -0.7208  0.2689 -0.0862
  114OSM    C9S11892   2.400   0.559   9.930  0.1282 -0.5165  0.3866
  114OSM    H9S11893   2.360   0.660   9.954 -1.4413 -0.7458 -1.0680
  114OSM    H9T11894   2.326   0.482   9.959 -0.0006 -0.1847  0.9507
  114OSM   C10S11895   2.421   0.546   9.779 -0.4549  0.0923 -0.1110
  114OSM   H10S11896   2.478   0.453   9.761  1.2982  1.2897 -1.0895
  114OSM   H10T11897   2.489   0.630   9.751 -0.4047 -0.1645 -0.7857
  114OSM   C11S11898   2.290   0.553   9.696 -0.2502 -0.0874  0.4015
  114OSM   H11S11899   2.234   0.642   9.733 -0.4574  0.9656 -2.1588
  114OSM   H11T11900   2.234   0.459   9.714  1.0155 -0.5835  1.9264
  114OSM   C12S11901   2.319   0.564   9.551  0.4225  1.1284  0.3257
  114OSM   H12S11902   2.320   0.463   9.504  0.3339 -0.1245  2.8752
  114OSM   H12T11903   2.415   0.616   9.529  2.8364 -3.3168 -1.0084
  114OSM   C13S11904   2.208   0.643   9.482  0.0423  0.3322 -0.5375
  114OSM   H13S11905   2.201   0.736   9.543  3.6199  1.9261 -2.2168
  114OSM   H13T11906   2.110   0.593   9.491 -0.6452  1.7022 -0.1592
  114OSM   C14S11907   2.228   0.678   9.337 -0.8681 -0.3253  0.1001
  114OSM   H14S11908   2.327   0.726   9.321 -0.0022 -1.1375  2.5509
  114OSM   H14T11909   2.141   0.733   9.294 -0.3178 -0.2276 -0.9104
  114OSM   C15S11910   2.230   0.550   9.245 -0.5589  0.5805 -0.3432
  114OSM   H15S11911   2.130   0.503   9.255 -0.3465  0.0896 -0.4799
  114OSM   H15T11912   2.312   0.480   9.271 -0.0015  1.6096  0.7570
  114OSM   C16S11913   2.243   0.574   9.093 -0.3728  0.1078  0.5567
  114OSM   H16S11914   2.337   0.633   9.096 -0.1631 -0.2350  0.7259
  114OSM   H16T11915   2.159   0.639   9.059 -0.7163  0.2089  1.5625
  114OSM   C17S11916   2.261   0.444   9.011 -0.5128  0.2915  0.2458
  114OSM   H17S11917   2.186   0.367   9.041 -1.0044  0.5455 -0.3212
  114OSM   H17T11918   2.354   0.393   9.043 -0.8249 -0.1858  0.4179
  114OSM   C18S11919   2.256   0.460   8.857  0.0478 -0.2589 -0.0996
  114OSM   H18S11920   2.335   0.397   8.812 -1.6058 -1.1019 -1.9242
  114OSM   H18T11921   2.272   0.564   8.821 -1.0818 -0.6160 -1.6965
  114OSM   H18U11922   2.155   0.433   8.820 -0.8318  1.6754  0.7140
  114OSM    C1F11923   2.937   0.573  10.610  0.8706 -0.1615  0.0328
  114OSM     OF11924   2.911   0.478  10.683  0.5225  0.5331  0.3640
  114OSM    C2F11925   3.074   0.598  10.550 -0.2086 -1.1524 -0.5571
  114OSM    H2F11926   3.151   0.610  10.629  0.1016  0.9325 -1.1118
  114OSM    H2G11927   3.077   0.695  10.496 -1.0676 -0.8733 -0.1230
  114OSM    C3F11928   3.112   0.493  10.449 -0.5704 -0.1340  0.2000
  114OSM    H3F11929   3.099   0.389  10.485  0.4361 -0.9617 -1.6791
  114OSM    H3G11930   3.209   0.503  10.395 -1.4827  0.8886 -1.3516
  114OSM    C4F11931   3.005   0.513  10.334  0.5394 -0.2201  0.1112
  114OSM    H4F11932   3.016   0.612  10.285 -0.1794 -0.4481 -0.5329
  114OSM    H4G11933   2.899   0.508  10.366  0.6491 -0.5681  0.4312
  114OSM    C5F11934   3.024   0.406  10.222 -0.1813 -0.3451 -0.9057
  114OSM    H5F11935   2.966   0.317  10.255 -0.2572  0.6090  1.7916
  114OSM    H5G11936   3.130   0.375  10.211 -0.7143 -1.6631 -2.7930
  114OSM    C6F11937   2.973   0.441  10.086  0.1819 -0.0563  0.5112
  114OSM    H6F11938   3.029   0.528  10.046 -0.4926  0.7071  1.2034
  114OSM    H6G11939   2.868   0.474  10.101  0.4813  0.5164  1.4094
  114OSM    C7F11940   2.988   0.321   9.991 -0.0742  0.4933  0.0223
  114OSM    H7F11941   2.941   0.237  10.046  1.2713  0.4949  1.2421
  114OSM    H7G11942   3.096   0.302   9.975 -0.2012 -0.9974  0.8074
  114OSM    C8F11943   2.915   0.349   9.857  0.1332 -0.6195  0.3155
  114OSM    H8F11944   2.985   0.377   9.776  0.6799 -1.3851  0.5163
  114OSM    H8G11945   2.853   0.437   9.885  0.7550 -0.2978  0.7069
  114OSM    C9F11946   2.822   0.242   9.815  0.2768  0.6425  0.3059
  114OSM    H9F11947   2.754   0.201   9.892 -0.7893  1.9973  0.1233
  114OSM   C10F11948   2.799   0.215   9.689 -0.1220 -0.5161  0.2225
  114OSM   H10F11949   2.724   0.136   9.672 -0.9282  0.1382  0.6999
  114OSM   C11F11950   2.846   0.285   9.564 -0.0859  0.6999 -0.0234
  114OSM   H11F11951   2.883   0.202   9.500 -0.4443  0.2179  0.3840
  114OSM   H11G11952   2.936   0.349   9.580  1.4042 -1.4811  0.8683
  114OSM   C12F11953   2.734   0.356   9.494 -0.1948  0.1621  0.1023
  114OSM   H12F11954   2.702   0.440   9.559  0.3092  0.4596 -0.0375
  114OSM   H12G11955   2.647   0.286   9.489  0.4892 -0.7216  0.3749
  114OSM   C13F11956   2.775   0.403   9.351  1.0858 -0.2282 -1.1682
  114OSM   H13F11957   2.801   0.311   9.293 -0.5811 -1.1371 -0.5398
  114OSM   H13G11958   2.864   0.468   9.363  0.1870  1.3760 -2.6729
  114OSM   C14F11959   2.667   0.484   9.281 -0.1887  0.2946  0.4930
  114OSM   H14F11960   2.625   0.573   9.332 -0.7420  0.0549  0.4559
  114OSM   H14G11961   2.577   0.420   9.272  0.6977 -0.8580 -0.6530
  114OSM   C15F11962   2.707   0.539   9.141  0.3518 -0.4792 -0.0014
  114OSM   H15F11963   2.800   0.599   9.150  1.2104 -1.4239 -2.0102
  114OSM   H15G11964   2.635   0.613   9.101  3.0616  0.8700 -2.7657
  114OSM   C16F11965   2.740   0.430   9.043 -0.0418 -0.2533 -0.0390
  114OSM   H16F11966   2.660   0.354   9.056 -1.2033  1.2621  2.3791
  114OSM   H16G11967   2.838   0.384   9.068 -0.6750 -2.1196 -0.7602
  114OSM   C17F11968   2.750   0.473   8.897 -0.7622 -0.7099  0.1244
  114OSM   H17F11969   2.826   0.411   8.844 -1.1809 -1.8275  0.7967
  114OSM   H17G11970   2.795   0.574   8.903  1.9621 -1.9028  2.0192
  114OSM   C18F11971   2.620   0.467   8.817  0.3281 -0.9405  0.0631
  114OSM   H18F11972   2.539   0.522   8.869 -1.9024 -4.2411  0.4294
  114OSM   H18G11973   2.589   0.362   8.799 -2.8062 -0.1672  0.4198
  114OSM   H18H11974   2.635   0.512   8.717 -2.8423 -1.2405 -0.6667
  115OSM      N11975   1.165   1.429  11.323  0.5577  0.1837  0.8299
  115OSM    C1511976   1.113   1.553  11.242 -0.7013  0.1195 -0.0772
  115OSM   H15A11977   1.007   1.571  11.256 -0.3616  1.8378  0.5310
  115OSM   H15B11978   1.114   1.522  11.138  1.8124  0.6984 -0.2992
  115OSM   H15C11979   1.175   1.640  11.259  0.2892 -0.7207  0.7040
  115OSM    C1411980   1.138   1.441  11.467 -0.0829 -0.7527 -1.5340
  115OSM   H14A11981   1.040   1.482  11.481  0.2156 -0.2162 -0.9515
  115OSM   H14B11982   1.199   1.519  11.512  2.3011 -1.7303 -2.8542
  115OSM   H14C11983   1.139   1.347  11.521 -0.6607 -0.3564 -0.8332
  115OSM    C1311984   1.094   1.307  11.269 -0.0235 -0.3592 -0.4598
  115OSM   H13A11985   0.986   1.312  11.275 -0.1121 -1.8090 -0.4657
  115OSM   H13B11986   1.130   1.217  11.314  1.1663 -0.1685 -0.9873
  115OSM   H13C11987   1.129   1.294  11.167  1.2432 -3.8764  0.3046
  115OSM    C1211988   1.316   1.409  11.290  0.2405  0.1015  0.0729
  115OSM   H12A11989   1.356   1.331  11.354  0.2116  1.7547  2.2587
  115OSM   H12B11990   1.361   1.504  11.315 -1.1544  0.8886 -0.2723
  115OSM    C1111991   1.358   1.385  11.145 -0.3458 -0.2556 -0.0618
  115OSM   H11A11992   1.341   1.282  11.105  0.7150  0.3409 -2.2427
  115OSM   H11B11993   1.468   1.399  11.150 -0.5756  1.1768  2.3616
  115OSM      P11994   1.380   1.609  11.017 -0.2563 -0.2010  0.0799
  115OSM    O1311995   1.291   1.704  10.940 -0.2412 -0.2886  0.3662
  115OSM    O1411996   1.447   1.658  11.138 -0.0699  0.2113 -0.3727
  115OSM    O1111997   1.493   1.584  10.912  0.3875 -0.0345 -0.4372
  115OSM    O1211998   1.308   1.474  11.048  0.0356 -0.3472  0.4103
  115OSM    C1S11999   1.466   1.510  10.792  0.0049  0.0225  0.2558
  115OSM    H1S12000   1.380   1.551  10.735  0.4543 -0.2354 -0.6223
  115OSM    H1T12001   1.439   1.404  10.814 -0.4495  0.1302  0.2411
  115OSM     NF12002   1.560   1.454  10.576 -0.3580 -0.4778  0.4856
  115OSM    HNF12003   1.607   1.369  10.553  0.1244  0.1495 -0.9234
  115OSM    C2S12004   1.593   1.510  10.701 -0.6265  0.8351 -0.4111
  115OSM    H2S12005   1.618   1.616  10.679 -1.7761  0.8571 -1.7697
  115OSM    C3S12006   1.720   1.442  10.762  0.1830 -0.2114  0.1550
  115OSM    H3S12007   1.717   1.332  10.753  2.2815 -0.4323  1.4255
  115OSM     O312008   1.721   1.457  10.905  0.1690 -0.4920  0.0130
  115OSM    HO312009   1.643   1.512  10.914 -0.3883 -1.0649 -1.0606
  115OSM    C4S12010   1.846   1.484  10.694 -0.3623 -0.1288 -0.2702
  115OSM    H4S12011   1.856   1.440  10.594 -1.5715 -0.7662 -0.1297
  115OSM    C5S12012   1.921   1.580  10.743  0.7050 -0.2911 -0.6931
  115OSM    H5S12013   1.891   1.635  10.834  1.0898 -0.0563 -0.7070
  115OSM    C6S12014   2.048   1.633  10.690  0.1634 -0.3218 -0.1878
  115OSM    H6S12015   2.120   1.652  10.773 -0.8339 -0.3348  0.6920
  115OSM    H6T12016   2.023   1.731  10.644 -0.4560  0.1507  1.1368
  115OSM    C7S12017   2.114   1.552  10.576 -0.4205  0.6390  0.4620
  115OSM    H7S12018   2.117   1.444  10.603 -1.8989  0.1835 -1.0147
  115OSM    H7T12019   2.221   1.581  10.561 -0.4170  0.7211  0.6359
  115OSM    C8S12020   2.063   1.582  10.435  0.1000 -0.1289 -0.6407
  115OSM    H8S12021   2.060   1.689  10.406  2.6147 -0.7129 -3.5665
  115OSM    H8T12022   1.955   1.553  10.433  0.2239 -1.2883  2.7482
  115OSM    C9S12023   2.143   1.501  10.335  0.0670 -0.1821 -0.5670
  115OSM    H9S12024   2.156   1.396  10.369 -1.4248 -0.3897 -0.5548
  115OSM    H9T12025   2.247   1.540  10.331 -0.0472  0.0796 -0.9933
  115OSM   C10S12026   2.071   1.493  10.199 -0.2675  0.8983 -0.0394
  115OSM   H10S12027   2.053   1.597  10.164 -1.4789  0.6531 -0.2046
  115OSM   H10T12028   1.974   1.451  10.236 -0.5819  0.8560 -0.8841
  115OSM   C11S12029   2.143   1.425  10.080  0.5127  0.0537  0.1997
  115OSM   H11S12030   2.162   1.330  10.134 -1.4808 -0.3654  0.2172
  115OSM   H11T12031   2.232   1.490  10.067  2.5443 -2.4244  0.9517
  115OSM   C12S12032   2.059   1.406   9.952  0.2891 -0.1631  0.5660
  115OSM   H12S12033   2.020   1.500   9.906  0.3662 -0.7029 -0.6302
  115OSM   H12T12034   1.971   1.345   9.984 -0.6178  0.7189 -0.1766
  115OSM   C13S12035   2.129   1.319   9.850  0.2153 -0.1808 -0.3033
  115OSM   H13S12036   2.166   1.227   9.900  0.3065  0.7766  1.4390
  115OSM   H13T12037   2.219   1.366   9.805 -0.2310  0.7664 -0.2417
  115OSM   C14S12038   2.032   1.266   9.741 -0.1419 -0.6069 -0.1655
  115OSM   H14S12039   1.929   1.273   9.781 -0.2068 -0.3371 -0.3760
  115OSM   H14T12040   2.050   1.158   9.723  1.5724 -0.3366 -0.2649
  115OSM   C15S12041   2.045   1.349   9.611  0.1377  0.5594 -0.4560
  115OSM   H15S12042   2.116   1.295   9.546 -0.6926 -0.8207 -0.2488
  115OSM   H15T12043   2.085   1.448   9.643 -0.8533  1.2709 -1.3409
  115OSM   C16S12044   1.907   1.362   9.541 -0.0187 -0.2369 -0.5634
  115OSM   H16S12045   1.842   1.429   9.601  2.5773  0.9127  1.1864
  115OSM   H16T12046   1.859   1.263   9.528  0.1547 -0.3560 -0.3079
  115OSM   C17S12047   1.911   1.437   9.402 -0.4103 -0.0180 -0.2646
  115OSM   H17S12048   1.985   1.517   9.423 -1.8952  0.5496  3.5774
  115OSM   H17T12049   1.811   1.486   9.400 -1.1310 -1.4580 -0.9616
  115OSM   C18S12050   1.923   1.358   9.273  0.0751 -0.3646 -0.1771
  115OSM   H18S12051   2.014   1.294   9.269 -0.3396 -0.9919  0.0757
  115OSM   H18T12052   1.927   1.427   9.186  0.9916 -0.1319  0.0404
  115OSM   H18U12053   1.830   1.301   9.252 -0.7463  0.2829  1.4780
  115OSM    C1F12054   1.463   1.518  10.505  0.1447 -0.4421 -0.4943
  115OSM     OF12055   1.445   1.641  10.522  0.1496  0.1392 -0.1427
  115OSM    C2F12056   1.386   1.435  10.404  0.5061 -0.1343 -0.3611
  115OSM    H2F12057   1.354   1.338  10.448  1.4977  0.2115  1.2314
  115OSM    H2G12058   1.457   1.422  10.319 -1.6341  0.8457 -2.3733
  115OSM    C3F12059   1.255   1.504  10.346 -0.6337 -0.2584 -0.7927
  115OSM    H3F12060   1.285   1.608  10.318  0.4571 -0.0384  1.0347
  115OSM    H3G12061   1.185   1.518  10.432  0.6923  0.3772  0.2212
  115OSM    C4F12062   1.196   1.430  10.227 -0.3004  0.1330  0.2956
  115OSM    H4F12063   1.280   1.420  10.155  1.4306 -1.2287  2.3519
  115OSM    H4G12064   1.113   1.491  10.186 -1.7602 -1.8992  0.0469
  115OSM    C5F12065   1.147   1.289  10.253  0.9382  0.2074  0.7685
  115OSM    H5F12066   1.107   1.276  10.356  1.0176 -1.1978  0.6420
  115OSM    H5G12067   1.239   1.227  10.244  0.0992 -0.8587 -1.1529
  115OSM    C6F12068   1.030   1.243  10.157  0.1972 -0.1650  0.9975
  115OSM    H6F12069   0.930   1.289  10.170 -0.7832 -2.0519  0.5353
  115OSM    H6G12070   1.012   1.136  10.181  0.0715 -0.1062  1.1625
  115OSM    C7F12071   1.071   1.247  10.003  0.8303  0.0089 -0.1198
  115OSM    H7F12072   1.171   1.202   9.990  0.4471 -1.0715  0.5399
  115OSM    H7G12073   1.083   1.353   9.972 -1.0487 -0.6326 -3.5658
  115OSM    C8F12074   0.964   1.172   9.916 -0.2583  0.5803 -0.6673
  115OSM    H8F12075   0.943   1.072   9.959 -0.5608  0.6249 -0.7111
  115OSM    H8G12076   1.009   1.155   9.815  1.4312  1.2693 -0.0688
  115OSM    C9F12077   0.831   1.240   9.896 -0.3617  0.0814  0.1704
  115OSM    H9F12078   0.783   1.291   9.981  0.9022 -0.8424  1.5008
  115OSM   C10F12079   0.750   1.234   9.784  0.1848 -0.8838  0.2364
  115OSM   H10F12080   0.655   1.291   9.786  1.0405  0.5890  2.1417
  115OSM   C11F12081   0.792   1.169   9.656  0.2713 -0.3816 -0.0538
  115OSM   H11F12082   0.710   1.113   9.606 -0.4875  0.0015  0.7476
  115OSM   H11G12083   0.869   1.090   9.670  0.4018 -1.4475 -4.9538
  115OSM   C12F12084   0.847   1.271   9.554 -0.0393 -0.4835 -0.2753
  115OSM   H12F12085   0.913   1.343   9.606 -0.0572  0.3330 -1.3472
  115OSM   H12G12086   0.766   1.337   9.517 -0.4003 -1.6328 -1.6259
  115OSM   C13F12087   0.917   1.218   9.433 -0.2877 -0.2587  0.0791
  115OSM   H13F12088   0.870   1.127   9.390 -2.6711  0.9803 -0.0695
  115OSM   H13G12089   1.013   1.183   9.477 -0.6251 -0.2708  0.8237
  115OSM   C14F12090   0.945   1.331   9.336 -0.0916 -0.4980  1.4120
  115OSM   H14F12091   1.007   1.406   9.390 -2.2698  1.7937  0.9434
  115OSM   H14G12092   0.854   1.389   9.309  0.2381 -0.0177  1.3320
  115OSM   C15F12093   1.032   1.287   9.209  0.1764  0.2465  0.2764
  115OSM   H15F12094   0.977   1.207   9.155  0.6244  1.0845 -1.4922
  115OSM   H15G12095   1.132   1.266   9.253 -0.8792 -2.6863  1.5686
  115OSM   C16F12096   1.057   1.403   9.115  0.4982  0.0526 -0.0088
  115OSM   H16F12097   1.116   1.481   9.166 -0.1461  0.8959 -0.5322
  115OSM   H16G12098   0.960   1.447   9.082  0.0890 -0.4007  0.5470
  115OSM   C17F12099   1.142   1.352   8.999  0.3641 -0.2039 -0.0287
  115OSM   H17F12100   1.108   1.254   8.959  1.7611  0.0813 -2.0716
  115OSM   H17G12101   1.243   1.327   9.037 -0.5517 -1.2819  1.8421
  115OSM   C18F12102   1.160   1.460   8.893 -0.6906 -0.5174 -0.5335
  115OSM   H18F12103   1.069   1.491   8.836 -0.8155  0.2876  0.0849
  115OSM   H18G12104   1.237   1.431   8.819 -0.3004 -1.8451  0.3657
  115OSM   H18H12105   1.182   1.559   8.938 -0.2334 -0.3248 -1.1567
  116OSM      N12106   5.389   2.594  11.145  0.3275  0.3886 -0.3886
  116OSM    C1512107   5.383   2.462  11.082 -0.3480  0.7392 -0.4210
  116OSM   H15A12108   5.323   2.403  11.149  2.7089 -1.7715  0.3107
  116OSM   H15B12109   5.477   2.411  11.073 -1.4465 -1.5586  0.5338
  116OSM   H15C12110   5.335   2.467  10.985  2.9401  0.6492 -2.2032
  116OSM    C1412111   5.420   2.573  11.286  0.1688 -0.2005  0.1609
  116OSM   H14A12112   5.427   2.665  11.343  0.0460 -0.3419  0.4054
  116OSM   H14B12113   5.516   2.524  11.300  1.2033  1.8707  0.7824
  116OSM   H14C12114   5.340   2.515  11.330  0.6876 -1.5019 -0.5335
  116OSM    C1312115   5.499   2.670  11.088  0.0847  0.1005  0.4421
  116OSM   H13A12116   5.461   2.712  10.996  0.7999  3.8026  1.6750
  116OSM   H13B12117   5.581   2.602  11.071 -0.9196 -0.9554 -0.3267
  116OSM   H13C12118   5.536   2.744  11.157  0.1795  0.5499 -0.0862
  116OSM    C1212119   5.257   2.678  11.125 -0.2951 -0.0179 -0.7672
  116OSM   H12A12120   5.272   2.757  11.197 -0.7568 -0.7249  0.1197
  116OSM   H12B12121   5.167   2.629  11.159 -0.2836  2.3347  3.3258
  116OSM    C1112122   5.234   2.728  10.978 -0.4307  0.6071  0.3951
  116OSM   H11A12123   5.313   2.793  10.936 -0.0645  0.3547  0.6856
  116OSM   H11B12124   5.141   2.789  10.973 -1.8560 -1.5912 -3.1285
  116OSM      P12125   5.087   2.535  10.851  0.1905 -0.2853 -0.3955
  116OSM    O1312126   5.123   2.413  10.791 -0.3054  0.2110 -0.1141
  116OSM    O1412127   4.998   2.534  10.974 -0.2362 -0.1172  0.0381
  116OSM    O1112128   5.019   2.623  10.743  0.0947 -0.0304 -0.0124
  116OSM    O1212129   5.217   2.616  10.893  0.5729  0.6035 -0.1932
  116OSM    C1S12130   5.094   2.715  10.670 -0.5811 -0.7137 -0.8321
  116OSM    H1S12131   5.196   2.676  10.653 -0.0658  0.2266  0.0273
  116OSM    H1T12132   5.104   2.817  10.713 -0.4010 -0.3142 -1.7842
  116OSM     NF12133   5.112   2.825  10.444 -0.2567 -0.5261 -0.0117
  116OSM    HNF12134   5.072   2.915  10.425 -1.6356 -1.0619  0.2637
  116OSM    C2S12135   5.036   2.729  10.527 -0.2265  0.6721 -0.4493
  116OSM    H2S12136   5.031   2.632  10.473 -1.8714 -0.4272  1.5212
  116OSM    C3S12137   4.879   2.769  10.545 -0.6074 -0.5649  0.1299
  116OSM    H3S12138   4.869   2.865  10.600 -0.4969 -1.1375  1.1623
  116OSM     O312139   4.807   2.670  10.613 -0.3237 -0.6917  0.2909
  116OSM    HO312140   4.877   2.633  10.667 -0.2221  1.3030  1.6438
  116OSM    C4S12141   4.823   2.776  10.402 -0.1236  0.4568 -0.2521
  116OSM    H4S12142   4.793   2.679  10.361 -1.5698  1.3696 -1.4523
  116OSM    C5S12143   4.790   2.884  10.337 -0.0278 -0.0498  0.1832
  116OSM    H5S12144   4.810   2.985  10.376  1.7092 -0.7261  1.1434
  116OSM    C6S12145   4.713   2.892  10.204 -1.9967  0.1422  0.4612
  116OSM    H6S12146   4.778   2.930  10.122 -0.1187 -1.5817  1.0538
  116OSM    H6T12147   4.649   2.982  10.206  0.3475  1.9495 -0.7407
  116OSM    C7S12148   4.613   2.781  10.168  0.2418 -0.3324  1.1996
  116OSM    H7S12149   4.557   2.743  10.257 -0.4016 -4.5555 -0.7592
  116OSM    H7T12150   4.659   2.687  10.130  0.6015 -0.0775  1.0010
  116OSM    C8S12151   4.514   2.821  10.045 -0.3369  0.2505 -0.4837
  116OSM    H8S12152   4.472   2.919  10.076  0.2351  0.1937  0.5138
  116OSM    H8T12153   4.432   2.746  10.047 -1.1022  1.0543 -0.7748
  116OSM    C9S12154   4.582   2.845   9.913  0.3624  0.2611  0.6775
  116OSM    H9S12155   4.593   2.753   9.851 -1.5944  0.0416  0.5876
  116OSM    H9T12156   4.677   2.902   9.922  0.3988  0.5075 -1.0648
  116OSM   C10S12157   4.493   2.925   9.827  0.0370  0.3666  0.0674
  116OSM   H10S12158   4.493   3.029   9.866  1.5083 -0.0604  1.3023
  116OSM   H10T12159   4.388   2.891   9.823  0.6517 -1.5893 -3.4445
  116OSM   C11S12160   4.549   2.922   9.683  0.3213 -0.4015 -0.7727
  116OSM   H11S12161   4.553   2.815   9.652  2.0667  0.1544 -2.6802
  116OSM   H11T12162   4.652   2.963   9.679 -0.8129  2.9025  0.1966
  116OSM   C12S12163   4.469   3.008   9.585  0.1049 -0.1926  0.1554
  116OSM   H12S12164   4.480   3.114   9.615  1.0819 -0.9614  2.7971
  116OSM   H12T12165   4.358   2.998   9.591  0.2129 -0.8214  1.5286
  116OSM   C13S12166   4.495   2.975   9.436 -0.0503 -0.9545  0.3792
  116OSM   H13S12167   4.476   2.866   9.431  2.9525 -1.5738  0.5373
  116OSM   H13T12168   4.603   2.996   9.427 -0.3140  0.8958  0.9548
  116OSM   C14S12169   4.433   3.068   9.326  0.1727  0.1948  0.1679
  116OSM   H14S12170   4.462   3.175   9.327  0.4682  0.1322 -0.5543
  116OSM   H14T12171   4.323   3.060   9.336  0.1080 -1.7585 -1.4465
  116OSM   C15S12172   4.469   3.021   9.182  0.2611  1.1530 -0.1019
  116OSM   H15S12173   4.424   2.920   9.184  2.3216  0.1951  0.6244
  116OSM   H15T12174   4.578   3.003   9.169  0.4916  1.2172  1.5060
  116OSM   C16S12175   4.406   3.098   9.067  0.2346 -0.0087  0.2360
  116OSM   H16S12176   4.312   3.145   9.101 -0.6994 -2.8136  1.9094
  116OSM   H16T12177   4.381   3.042   8.974 -0.2132 -1.1021  0.9917
  116OSM   C17S12178   4.498   3.210   9.022 -0.1638  0.3465 -0.1935
  116OSM   H17S12179   4.584   3.172   8.964  0.2189  1.0739 -0.1070
  116OSM   H17T12180   4.532   3.260   9.115  0.8325  0.5055 -0.6353
  116OSM   C18S12181   4.434   3.312   8.934  0.3219  0.2976  0.5657
  116OSM   H18S12182   4.510   3.373   8.882  0.3819 -0.2491  0.0047
  116OSM   H18T12183   4.382   3.394   8.988  0.0655  0.1427  0.5579
  116OSM   H18U12184   4.377   3.256   8.857 -1.5293 -0.9292  2.6751
  116OSM    C1F12185   5.233   2.792  10.394 -0.2003 -0.6980 -0.1509
  116OSM     OF12186   5.287   2.686  10.428 -0.4029  0.9716  0.1654
  116OSM    C2F12187   5.296   2.901  10.304  0.0584  0.3887 -0.6362
  116OSM    H2F12188   5.395   2.926  10.347  0.2069 -0.0931 -0.6998
  116OSM    H2G12189   5.238   2.996  10.299  2.6051  1.9997 -1.4790
  116OSM    C3F12190   5.325   2.843  10.160 -0.2696 -0.5771  1.0132
  116OSM    H3F12191   5.406   2.767  10.166  0.6668  0.1860 -0.9743
  116OSM    H3G12192   5.373   2.920  10.095  0.8445  1.3815  3.9493
  116OSM    C4F12193   5.208   2.775  10.086  0.6828  0.1646 -0.2853
  116OSM    H4F12194   5.187   2.674  10.125  2.1080 -1.3399 -3.1038
  116OSM    H4G12195   5.238   2.767   9.979  0.6502  1.2300 -0.3897
  116OSM    C5F12196   5.075   2.862  10.069  0.4713  0.3043 -0.1476
  116OSM    H5F12197   5.106   2.969  10.074 -2.6848  1.2832  0.8779
  116OSM    H5G12198   5.010   2.844  10.157  1.4460 -2.5401  0.0999
  116OSM    C6F12199   5.005   2.812   9.947 -0.4899  0.6894  0.5840
  116OSM    H6F12200   5.072   2.840   9.863  1.0742 -0.4371  1.3970
  116OSM    H6G12201   4.913   2.874   9.943 -0.1478  1.2038  0.6003
  116OSM    C7F12202   4.971   2.660   9.944  0.2191  0.1899 -0.0688
  116OSM    H7F12203   4.897   2.647  10.026 -1.4785  1.1201 -1.3681
  116OSM    H7G12204   5.061   2.597   9.956 -0.8597 -1.0618  1.9726
  116OSM    C8F12205   4.905   2.606   9.810  0.2189  0.5520  0.6756
  116OSM    H8F12206   4.810   2.654   9.777  0.7940  0.5208 -1.1293
  116OSM    H8G12207   4.881   2.501   9.837 -0.2825  0.5959  0.4090
  116OSM    C9F12208   5.001   2.597   9.693  0.4620 -0.3894 -0.2073
  116OSM    H9F12209   5.072   2.513   9.696 -0.1691 -0.9180  0.2805
  116OSM   C10F12210   5.016   2.684   9.592  0.1003 -0.2953  0.6690
  116OSM   H10F12211   5.101   2.661   9.526 -2.0275 -2.2702 -1.5854
  116OSM   C11F12212   4.941   2.813   9.564  0.0458 -0.2065  0.3380
  116OSM   H11F12213   5.013   2.885   9.521  0.2784  0.4901  1.8594
  116OSM   H11G12214   4.892   2.862   9.651  0.3837 -2.0617  1.6436
  116OSM   C12F12215   4.833   2.801   9.451 -0.5734 -0.5901 -0.0745
  116OSM   H12F12216   4.794   2.904   9.431 -0.1539 -0.9301 -3.1402
  116OSM   H12G12217   4.753   2.736   9.491 -0.8179 -1.6200 -2.1142
  116OSM   C13F12218   4.891   2.749   9.314 -0.4084 -0.8563  0.1225
  116OSM   H13F12219   4.930   2.645   9.326  0.0183 -0.7174 -0.0415
  116OSM   H13G12220   4.962   2.827   9.278 -1.2869 -0.6231 -1.1431
  116OSM   C14F12221   4.772   2.736   9.216  0.3191 -0.8667  0.1145
  116OSM   H14F12222   4.682   2.789   9.256 -0.5936 -2.1290 -0.2038
  116OSM   H14G12223   4.734   2.631   9.214 -0.8754 -0.4597 -2.1990
  116OSM   C15F12224   4.809   2.771   9.073  0.2769 -0.2312  0.1902
  116OSM   H15F12225   4.898   2.713   9.040 -1.0885 -1.4047 -1.6071
  116OSM   H15G12226   4.818   2.880   9.060 -1.2829 -0.0088  0.7379
  116OSM   C16F12227   4.699   2.720   8.972 -0.1950  0.1766 -0.1274
  116OSM   H16F12228   4.601   2.754   9.011  0.1330  0.1969  0.6938
  116OSM   H16G12229   4.695   2.610   8.987 -1.8027 -0.0914 -2.1328
  116OSM   C17F12230   4.735   2.779   8.832  0.5907  0.2933 -0.6022
  116OSM   H17F12231   4.677   2.721   8.757 -0.3540  1.9099 -1.1808
  116OSM   H17G12232   4.841   2.750   8.817  0.9252  1.2209 -0.0652
  116OSM   C18F12233   4.706   2.928   8.809 -0.3043 -1.0525 -0.1444
  116OSM   H18F12234   4.597   2.946   8.809  0.0267  1.2413  0.3712
  116OSM   H18G12235   4.726   2.957   8.704 -2.6433  1.8509  0.1086
  116OSM   H18H12236   4.747   3.003   8.880 -0.0890  0.1689 -1.5039
  117OSM      N12237   0.964   4.956  11.224  0.1140 -0.5030 -0.2438
  117OSM    C1512238   0.946   5.068  11.321  0.0758  0.2724  0.2585
  117OSM   H15A12239   0.844   5.102  11.330 -0.3214 -0.6467 -0.5689
  117OSM   H15B12240   1.001   5.153  11.282 -0.1050  0.4741  0.4399
  117OSM   H15C12241   0.979   5.040  11.421 -2.0918  1.5474  1.4029
  117OSM    C1412242   0.922   4.836  11.292  0.1319  0.2344  0.0694
  117OSM   H14A12243   0.915   4.764  11.211 -2.6932  0.7340 -0.2517
  117OSM   H14B12244   0.822   4.846  11.332  0.2785  0.5430  0.3630
  117OSM   H14C12245   0.996   4.798  11.360  0.5033  1.3509  0.3064
  117OSM    C1312246   0.876   4.982  11.107  0.3673 -0.4577  0.0284
  117OSM   H13A12247   0.900   5.078  11.063 -0.3679 -0.4585 -0.3968
  117OSM   H13B12248   0.774   4.992  11.142  0.5472 -0.4467  0.5554
  117OSM   H13C12249   0.879   4.906  11.031  1.8527 -0.5896  0.1963
  117OSM    C1212250   1.112   4.949  11.182  0.0617  0.1701 -0.5860
  117OSM   H12A12251   1.173   4.914  11.263  0.0235  4.0524  1.3911
  117OSM   H12B12252   1.142   5.050  11.157  0.2068  0.4650  0.7449
  117OSM    C1112253   1.139   4.863  11.061 -0.4740 -0.0119 -0.2278
  117OSM   H11A12254   1.109   4.759  11.087  2.7405 -1.3171 -1.1958
  117OSM   H11B12255   1.250   4.854  11.058 -0.5723 -1.4447 -0.4389
  117OSM      P12256   1.145   5.054  10.875  0.1584  0.0794  0.1293
  117OSM    O1312257   1.067   5.107  10.764 -0.0047  0.7274  0.4373
  117OSM    O1412258   1.182   5.151  10.983  0.3918 -0.4734 -0.2430
  117OSM    O1112259   1.282   4.992  10.819  0.2683 -0.2225  0.5628
  117OSM    O1212260   1.088   4.919  10.938 -0.1297  0.1409 -0.4336
  117OSM    C1S12261   1.285   4.864  10.750 -0.1485 -0.3266  0.7727
  117OSM    H1S12262   1.212   4.787  10.781  1.0061 -1.4025  0.9111
  117OSM    H1T12263   1.388   4.824  10.759  1.1020  2.7088  1.0505
  117OSM     NF12264   1.274   4.743  10.531 -0.1682  0.3128  0.0403
  117OSM    HNF12265   1.361   4.720  10.488  0.6729  2.2166  0.6262
  117OSM    C2S12266   1.268   4.872  10.589 -0.3148  0.6790  0.4066
  117OSM    H2S12267   1.170   4.912  10.556  0.4567  1.4454 -1.0760
  117OSM    C3S12268   1.383   4.959  10.535 -0.0656 -0.8410  0.1831
  117OSM    H3S12269   1.477   4.916  10.574  1.1140  0.7493 -0.7853
  117OSM     O312270   1.386   5.089  10.601 -0.1879 -0.7800  0.1201
  117OSM    HO312271   1.351   5.075  10.689  1.4985  1.8626  1.3497
  117OSM    C4S12272   1.401   4.974  10.383  0.6428 -0.4911 -0.1972
  117OSM    H4S12273   1.471   4.911  10.327  1.6656 -0.1015  0.6197
  117OSM    C5S12274   1.331   5.064  10.305 -0.2565 -0.0535  0.2739
  117OSM    H5S12275   1.264   5.132  10.359 -0.5851 -0.5802  0.5345
  117OSM    C6S12276   1.333   5.062  10.151 -0.1312  0.1477 -1.1291
  117OSM    H6S12277   1.385   5.155  10.118 -0.2809 -0.0603 -1.9963
  117OSM    H6T12278   1.228   5.066  10.117 -0.0597  0.2860 -1.3386
  117OSM    C7S12279   1.403   4.956  10.067 -0.3377  0.3856 -0.3773
  117OSM    H7S12280   1.338   4.871  10.100  1.3094 -0.4636  0.8252
  117OSM    H7T12281   1.509   4.941  10.096 -0.6534 -2.1891 -0.2730
  117OSM    C8S12282   1.394   4.981   9.917  0.3448 -0.5443 -0.0848
  117OSM    H8S12283   1.435   5.083   9.897  1.9431 -1.3430 -1.0679
  117OSM    H8T12284   1.286   4.989   9.891  0.2582  0.0224  0.4133
  117OSM    C9S12285   1.464   4.886   9.823  0.3002 -0.1848  0.0467
  117OSM    H9S12286   1.422   4.785   9.838  2.2572 -0.9178  0.9706
  117OSM    H9T12287   1.575   4.894   9.827  0.4693  0.1687 -3.0475
  117OSM   C10S12288   1.448   4.916   9.666  0.8252 -0.2201 -0.6575
  117OSM   H10S12289   1.477   5.023   9.656  2.0558 -0.3238  1.2827
  117OSM   H10T12290   1.341   4.904   9.639  0.7268  0.7324 -0.7223
  117OSM   C11S12291   1.535   4.833   9.571  0.6166 -0.5153 -0.4587
  117OSM   H11S12292   1.491   4.731   9.567 -2.0943  0.6037 -1.4954
  117OSM   H11T12293   1.635   4.832   9.620  0.7852  1.1517 -0.7077
  117OSM   C12S12294   1.549   4.883   9.426  0.1118 -0.7026 -0.3286
  117OSM   H12S12295   1.634   4.825   9.383  0.8961  1.6482 -2.2424
  117OSM   H12T12296   1.570   4.993   9.429 -1.0361 -0.5100  2.1260
  117OSM   C13S12297   1.425   4.861   9.340 -0.6731  0.2356 -0.2192
  117OSM   H13S12298   1.341   4.916   9.387 -1.1621  0.7562 -1.6412
  117OSM   H13T12299   1.394   4.755   9.351 -0.1565  0.1671  0.6974
  117OSM   C14S12300   1.442   4.915   9.195  0.6500  0.7297 -1.2016
  117OSM   H14S12301   1.457   5.025   9.209  4.0125  0.1293  1.0807
  117OSM   H14T12302   1.342   4.903   9.149 -0.2915  0.0743  0.8851
  117OSM   C15S12303   1.546   4.844   9.112  0.0284  1.3130 -0.2944
  117OSM   H15S12304   1.539   4.737   9.139  1.2767  0.8129 -1.7539
  117OSM   H15T12305   1.652   4.873   9.124  0.3545  0.3453 -0.7405
  117OSM   C16S12306   1.523   4.865   8.965 -0.4208  0.5445  0.5397
  117OSM   H16S12307   1.540   4.973   8.946  1.5825  0.1273 -0.1869
  117OSM   H16T12308   1.416   4.841   8.944 -0.4310  0.4046  0.7412
  117OSM   C17S12309   1.602   4.786   8.866 -0.2332  0.7946 -0.0610
  117OSM   H17S12310   1.710   4.812   8.869  0.3760 -1.4554 -0.6944
  117OSM   H17T12311   1.563   4.811   8.765 -0.2777 -0.3040 -0.3317
  117OSM   C18S12312   1.582   4.635   8.884 -0.9392 -0.3402 -0.7052
  117OSM   H18S12313   1.603   4.600   8.988 -1.5988  1.0344 -0.0830
  117OSM   H18T12314   1.653   4.576   8.823 -2.6330 -1.4120 -1.7142
  117OSM   H18U12315   1.478   4.607   8.857 -1.3751 -0.5186  1.0140
  117OSM    C1F12316   1.175   4.649  10.551  0.1468  0.6650 -0.9813
  117OSM     OF12317   1.072   4.679  10.616  0.0643 -0.2726 -0.1144
  117OSM    C2F12318   1.193   4.510  10.500  0.4060 -0.4274 -0.0839
  117OSM    H2F12319   1.253   4.450  10.573 -0.7095  0.6748  1.7962
  117OSM    H2G12320   1.257   4.523  10.409  0.6766  0.8122  0.2686
  117OSM    C3F12321   1.065   4.438  10.450  0.3898 -0.8606  0.1899
  117OSM    H3F12322   0.996   4.515  10.409  1.0483  0.3026  1.1710
  117OSM    H3G12323   1.006   4.400  10.536  0.0498  0.5704  0.6267
  117OSM    C4F12324   1.095   4.338  10.348  0.0298  0.1313  0.2824
  117OSM    H4F12325   1.155   4.253  10.385 -0.5529 -0.6370 -0.4896
  117OSM    H4G12326   1.154   4.391  10.271 -0.3120 -0.8899 -0.7101
  117OSM    C5F12327   0.965   4.284  10.287  0.2869  0.0439  1.0205
  117OSM    H5F12328   0.886   4.361  10.279 -0.2953 -0.0069  4.5956
  117OSM    H5G12329   0.934   4.198  10.350 -1.1587  0.2771  0.6617
  117OSM    C6F12330   0.982   4.223  10.150 -0.3172  0.7237  0.0390
  117OSM    H6F12331   1.049   4.136  10.168 -1.9734 -0.2873  1.7639
  117OSM    H6G12332   1.017   4.304  10.083  2.3067  1.4828  2.1484
  117OSM    C7F12333   0.860   4.142  10.100 -0.6638 -0.0583 -0.0375
  117OSM    H7F12334   0.781   4.218  10.082 -1.0210  0.2766  2.6561
  117OSM    H7G12335   0.819   4.079  10.181  1.3334 -0.9008  0.3641
  117OSM    C8F12336   0.887   4.060   9.979  0.0758  0.8327 -0.0596
  117OSM    H8F12337   0.807   3.984   9.960  1.0895 -0.3251  0.1464
  117OSM    H8G12338   0.982   4.003   9.985 -0.5698 -0.2440  0.4291
  117OSM    C9F12339   0.890   4.149   9.856 -0.0040  0.4218  0.5635
  117OSM    H9F12340   0.838   4.244   9.870 -0.5170  0.2870 -0.3588
  117OSM   C10F12341   0.946   4.124   9.731 -0.5470  0.4285  0.2049
  117OSM   H10F12342   0.939   4.200   9.652 -1.6559 -0.3736 -0.4907
  117OSM   C11F12343   1.021   3.998   9.691  0.1086 -0.0945 -0.5818
  117OSM   H11F12344   1.053   3.939   9.780 -2.8575  1.4097  1.6849
  117OSM   H11G12345   1.114   4.018   9.634  0.5846 -0.6425 -0.0093
  117OSM   C12F12346   0.921   3.911   9.608 -0.1928  0.0472  0.2388
  117OSM   H12F12347   0.901   3.956   9.508  0.5980 -0.5846 -0.2144
  117OSM   H12G12348   0.826   3.902   9.665 -1.1696  0.1026 -1.3384
  117OSM   C13F12349   0.961   3.759   9.593 -0.0905 -0.7362  0.2961
  117OSM   H13F12350   0.889   3.694   9.537  0.3331 -1.3727  0.4897
  117OSM   H13G12351   0.961   3.717   9.696  1.2771 -2.1881 -0.2652
  117OSM   C14F12352   1.094   3.735   9.529 -0.4695 -0.2380  0.1427
  117OSM   H14F12353   1.124   3.630   9.549  1.6811  0.4759  0.8994
  117OSM   H14G12354   1.181   3.788   9.574 -0.0880 -0.1689 -0.6626
  117OSM   C15F12355   1.096   3.749   9.377  0.2936  0.0337 -0.1887
  117OSM   H15F12356   1.008   3.812   9.351  2.0369  1.5966 -2.6598
  117OSM   H15G12357   1.057   3.654   9.335 -1.4876  1.0433 -0.9418
  117OSM   C16F12358   1.223   3.807   9.314  0.4835  0.1941 -0.2101
  117OSM   H16F12359   1.300   3.730   9.338 -0.2621 -0.4111  0.2958
  117OSM   H16G12360   1.243   3.904   9.366 -0.3532  0.3847 -0.2268
  117OSM   C17F12361   1.217   3.826   9.160 -0.5358 -0.0563 -1.1171
  117OSM   H17F12362   1.319   3.861   9.132 -0.8286 -1.7772 -5.1027
  117OSM   H17G12363   1.152   3.911   9.131 -0.7697  0.3638  0.5485
  117OSM   C18F12364   1.199   3.689   9.088 -0.5285 -0.1278 -0.4283
  117OSM   H18F12365   1.243   3.698   8.986  3.0631  1.7459  1.1043
  117OSM   H18G12366   1.100   3.638   9.087 -0.2457 -0.6873 -1.2514
  117OSM   H18H12367   1.266   3.617   9.141 -2.1739 -1.0473  0.4805
  118OSM      N12368   2.220   5.653  11.190  0.5073  0.1361  0.3594
  118OSM    C1512369   2.271   5.563  11.304 -0.2812  0.5297  0.3342
  118OSM   H15A12370   2.210   5.477  11.330  1.6815 -1.0476 -0.0582
  118OSM   H15B12371   2.285   5.619  11.395 -1.2446 -2.4044  2.4644
  118OSM   H15C12372   2.363   5.515  11.276  0.8819  1.3486  2.4875
  118OSM    C1412373   2.338   5.720  11.132  0.7042 -0.1126 -0.6776
  118OSM   H14A12374   2.308   5.791  11.056  1.2041  1.4739  0.5552
  118OSM   H14B12375   2.378   5.643  11.066  0.5894  0.3679 -1.3180
  118OSM   H14C12376   2.412   5.744  11.206 -0.2930 -0.6753  0.5310
  118OSM    C1312377   2.134   5.561  11.092  0.6407 -0.1290 -0.2246
  118OSM   H13A12378   2.192   5.474  11.066 -1.1969 -1.0582 -1.4918
  118OSM   H13B12379   2.109   5.605  10.996 -0.4777  1.1217  0.6011
  118OSM   H13C12380   2.043   5.522  11.135 -0.6606  0.2742 -2.4437
  118OSM    C1212381   2.121   5.756  11.247 -0.3756  0.4876 -0.4306
  118OSM   H12A12382   2.177   5.825  11.309 -2.0938  0.3414  1.3639
  118OSM   H12B12383   2.051   5.701  11.307  0.7143  0.6224  1.0095
  118OSM    C1112384   2.050   5.837  11.140 -0.0081  0.5704 -0.2021
  118OSM   H11A12385   1.983   5.769  11.084 -0.7996  1.4776 -0.3811
  118OSM   H11B12386   2.120   5.896  11.077  0.9943  1.3270  1.5260
  118OSM      P12387   1.908   6.056  11.144  0.2103  0.3002 -0.2330
  118OSM    O1312388   1.848   6.147  11.242 -0.2891 -0.2506  0.4244
  118OSM    O1412389   1.995   6.117  11.045 -0.5164 -0.6580 -0.9038
  118OSM    O1112390   1.786   5.987  11.061 -0.4516  0.3598  0.3518
  118OSM    O1212391   1.964   5.922  11.219  0.1814  0.2404  0.5082
  118OSM    C1S12392   1.688   6.065  10.985  0.9692  0.6001 -0.3905
  118OSM    H1S12393   1.710   6.172  11.004 -0.1968  0.9754 -1.0283
  118OSM    H1T12394   1.591   6.047  11.036  0.2716  2.1266 -1.1420
  118OSM     NF12395   1.600   6.104  10.744  0.2676 -0.6607  0.3119
  118OSM    HNF12396   1.516   6.063  10.709 -1.3983  1.3670  1.7249
  118OSM    C2S12397   1.679   6.022  10.833 -0.5263 -0.8295  0.0653
  118OSM    H2S12398   1.781   6.035  10.790  0.0008  0.8813  1.7183
  118OSM    C3S12399   1.649   5.871  10.819  0.3272 -0.5961  0.3118
  118OSM    H3S12400   1.549   5.857  10.864 -0.6832  1.4738 -1.1330
  118OSM     O312401   1.743   5.788  10.884  0.3155  0.3044 -0.9507
  118OSM    HO312402   1.776   5.845  10.953 -0.6484 -1.4628  1.0892
  118OSM    C4S12403   1.644   5.825  10.679 -0.9442  0.1890  0.0965
  118OSM    H4S12404   1.741   5.805  10.632 -1.8387  1.6372 -2.5975
  118OSM    C5S12405   1.524   5.797  10.611  0.0060 -0.0179 -0.0358
  118OSM    H5S12406   1.426   5.808  10.659  0.1099  0.7081  0.0252
  118OSM    C6S12407   1.521   5.749  10.466 -0.1188 -0.3308  0.5450
  118OSM    H6S12408   1.412   5.747  10.444 -0.3134  1.1013  1.2588
  118OSM    H6T12409   1.566   5.648  10.456  2.0962  0.7649 -2.0256
  118OSM    C7S12410   1.587   5.841  10.367  0.4600 -0.6775  0.6661
  118OSM    H7S12411   1.688   5.872  10.399  0.6339  1.1696 -1.4551
  118OSM    H7T12412   1.524   5.931  10.350 -0.2797 -1.3933 -0.5730
  118OSM    C8S12413   1.618   5.766  10.238 -0.2197 -0.1384  1.0506
  118OSM    H8S12414   1.532   5.708  10.199  1.1311 -0.9725 -0.8105
  118OSM    H8T12415   1.703   5.700  10.266  0.6422  1.5607  2.6864
  118OSM    C9S12416   1.653   5.853  10.111 -0.3635  0.7081  0.7827
  118OSM    H9S12417   1.745   5.912  10.126  1.2414 -1.4206 -0.0360
  118OSM    H9T12418   1.573   5.927  10.089  0.9935  1.6111 -1.4804
  118OSM   C10S12419   1.673   5.768   9.983 -0.7332  0.3287  0.3594
  118OSM   H10S12420   1.591   5.696   9.963  0.6000 -1.2386  0.3517
  118OSM   H10T12421   1.763   5.705   9.998  0.7045  2.4343  1.0407
  118OSM   C11S12422   1.707   5.864   9.863  0.1292  0.4922 -0.3269
  118OSM   H11S12423   1.813   5.893   9.880  0.7919 -1.6598 -0.4723
  118OSM   H11T12424   1.655   5.962   9.871 -1.5511 -0.2470 -1.5824
  118OSM   C12S12425   1.685   5.800   9.731  0.4184  0.6899 -0.3005
  118OSM   H12S12426   1.575   5.779   9.730  0.2855  1.2981  0.5100
  118OSM   H12T12427   1.740   5.704   9.721 -1.5884 -0.5728  0.1175
  118OSM   C13S12428   1.716   5.901   9.615 -0.8866 -0.7768  0.1289
  118OSM   H13S12429   1.811   5.958   9.624 -0.8547 -0.5287 -1.5500
  118OSM   H13T12430   1.638   5.979   9.626  0.6185  1.2790 -2.6905
  118OSM   C14S12431   1.738   5.827   9.478  0.3875 -0.2157  0.4342
  118OSM   H14S12432   1.757   5.901   9.397 -0.7789  0.5318  0.8122
  118OSM   H14T12433   1.642   5.779   9.453 -0.0117 -0.7685  2.8143
  118OSM   C15S12434   1.856   5.723   9.473 -0.2304 -0.5390 -0.7752
  118OSM   H15S12435   1.837   5.629   9.530  1.5864 -0.5089 -0.0540
  118OSM   H15T12436   1.938   5.782   9.519  1.1620 -1.6095 -1.7628
  118OSM   C16S12437   1.899   5.690   9.332  0.0161  0.8446  0.1469
  118OSM   H16S12438   1.925   5.790   9.291 -1.3912  0.0996 -2.7846
  118OSM   H16T12439   1.811   5.659   9.272 -0.5415  1.6798  0.5074
  118OSM   C17S12440   2.009   5.590   9.336 -0.0466  0.2243 -0.4871
  118OSM   H17S12441   1.966   5.492   9.366  0.8167  0.4278  1.5699
  118OSM   H17T12442   2.073   5.619   9.422  0.7243 -0.5189 -0.7860
  118OSM   C18S12443   2.094   5.579   9.207 -0.1644 -0.3209 -0.2349
  118OSM   H18S12444   2.139   5.677   9.181  0.6782 -0.4427  0.6758
  118OSM   H18T12445   2.026   5.551   9.124 -1.2190 -0.5613  0.6848
  118OSM   H18U12446   2.169   5.497   9.218  1.2619  0.9562 -0.0557
  118OSM    C1F12447   1.623   6.239  10.721  0.1285 -0.0019 -0.7353
  118OSM     OF12448   1.691   6.306  10.800  0.0572 -0.1774 -0.6100
  118OSM    C2F12449   1.566   6.299  10.597 -0.0137 -0.1120  0.4451
  118OSM    H2F12450   1.619   6.396  10.591 -1.6712  0.7546 -0.8765
  118OSM    H2G12451   1.456   6.314  10.591 -0.0660 -0.8943 -1.2472
  118OSM    C3F12452   1.605   6.212  10.469 -0.3697 -0.1187  0.3838
  118OSM    H3F12453   1.560   6.110  10.472  2.0720 -1.2712  0.0115
  118OSM    H3G12454   1.716   6.211  10.475 -0.4331 -1.8408  2.4221
  118OSM    C4F12455   1.552   6.282  10.344 -0.0576  0.4075  0.8755
  118OSM    H4F12456   1.602   6.381  10.333  1.8497 -0.6758 -0.7628
  118OSM    H4G12457   1.446   6.312  10.360 -0.2788 -0.6042  1.3472
  118OSM    C5F12458   1.568   6.194  10.230 -0.3867 -0.1205 -0.7530
  118OSM    H5F12459   1.492   6.114  10.230  0.0587 -0.5974  1.0931
  118OSM    H5G12460   1.665   6.139  10.224  0.2352  1.0199 -1.8464
  118OSM    C6F12461   1.566   6.282  10.097  0.4221 -0.2742  0.2666
  118OSM    H6F12462   1.639   6.362  10.123  3.5531 -3.1836  1.2007
  118OSM    H6G12463   1.465   6.328  10.089 -0.0890 -1.2390  0.8775
  118OSM    C7F12464   1.601   6.206   9.969 -0.1047  0.1573  0.2653
  118OSM    H7F12465   1.525   6.127   9.953 -0.6384  0.4754  1.1356
  118OSM    H7G12466   1.696   6.151   9.984 -1.9253 -3.8577 -1.3571
  118OSM    C8F12467   1.614   6.298   9.851  0.1058 -0.5004  0.7606
  118OSM    H8F12468   1.642   6.398   9.890  0.9880  0.1843 -1.4285
  118OSM    H8G12469   1.515   6.304   9.802  0.1316 -0.3771  0.7238
  118OSM    C9F12470   1.716   6.249   9.750  0.2966  0.5158 -0.3362
  118OSM    H9F12471   1.806   6.201   9.792  1.0171  1.2293 -1.0537
  118OSM   C10F12472   1.712   6.265   9.618 -0.0771  0.1311  0.1184
  118OSM   H10F12473   1.794   6.210   9.570  0.2039 -1.8261  2.6637
  118OSM   C11F12474   1.610   6.327   9.527 -0.3327 -0.1257  0.3859
  118OSM   H11F12475   1.643   6.403   9.453  2.1715 -1.7508 -0.2726
  118OSM   H11G12476   1.531   6.380   9.585 -2.6215 -1.3949 -1.3640
  118OSM   C12F12477   1.532   6.210   9.458 -0.6579 -0.1885  0.3257
  118OSM   H12F12478   1.431   6.255   9.441  0.5383  2.0867 -1.3991
  118OSM   H12G12479   1.519   6.124   9.526 -2.7028  0.8116  1.2993
  118OSM   C13F12480   1.590   6.147   9.331 -0.0099 -0.0535  0.5623
  118OSM   H13F12481   1.540   6.049   9.313  1.8727 -1.2358  1.4759
  118OSM   H13G12482   1.695   6.113   9.345 -0.9830 -5.0027 -1.8118
  118OSM   C14F12483   1.588   6.233   9.203 -0.4129 -0.4553 -0.1613
  118OSM   H14F12484   1.628   6.335   9.219 -0.5534 -0.3462 -0.4963
  118OSM   H14G12485   1.480   6.245   9.180 -1.1996  0.1586  3.2444
  118OSM   C15F12486   1.670   6.173   9.092  0.6040  0.0924  0.5173
  118OSM   H15F12487   1.612   6.083   9.062  1.0772 -0.8648  2.2824
  118OSM   H15G12488   1.764   6.125   9.128 -0.5809 -0.2706  3.3481
  118OSM   C16F12489   1.705   6.269   8.967 -0.0523 -0.1767 -0.8010
  118OSM   H16F12490   1.735   6.368   9.005  1.8006 -1.2507  0.6621
  118OSM   H16G12491   1.605   6.277   8.918  0.3154 -1.9775 -1.9659
  118OSM   C17F12492   1.812   6.201   8.873  0.0371 -0.3810 -0.3907
  118OSM   H17F12493   1.790   6.092   8.870  0.2251 -0.4203 -0.3340
  118OSM   H17G12494   1.914   6.214   8.915  0.0140  1.4474 -0.8248
  118OSM   C18F12495   1.813   6.252   8.731  0.4003 -0.0846  0.1184
  118OSM   H18F12496   1.709   6.267   8.694  1.1437 -0.3194 -2.2416
  118OSM   H18G12497   1.860   6.190   8.651  2.5299 -2.0068  2.7082
  118OSM   H18H12498   1.862   6.352   8.735 -0.2388  0.1885  1.1980
  119OSM      N12499   4.069   0.258  11.184  0.5642  0.0270  0.6619
  119OSM    C1512500   4.192   0.172  11.174  0.2383  0.1477  0.4474
  119OSM   H15A12501   4.185   0.125  11.077 -0.0005 -0.9031  0.9601
  119OSM   H15B12502   4.198   0.084  11.237  0.4389 -0.4397 -0.3776
  119OSM   H15C12503   4.286   0.224  11.183  0.4490 -0.0712 -0.4217
  119OSM    C1412504   4.045   0.311  11.315 -1.2200 -0.4498 -0.5682
  119OSM   H14A12505   4.024   0.248  11.400  0.7288  2.1997  2.0953
  119OSM   H14B12506   3.961   0.379  11.315 -0.3503  0.6645 -1.0971
  119OSM   H14C12507   4.123   0.374  11.355  0.9650 -2.5505 -1.2742
  119OSM    C1312508   4.090   0.375  11.088 -0.2814 -0.6265 -0.0762
  119OSM   H13A12509   4.003   0.440  11.086  2.2571  3.1007 -1.8916
  119OSM   H13B12510   4.101   0.338  10.987  2.0722 -0.4594  0.0552
  119OSM   H13C12511   4.173   0.436  11.120 -0.4560  0.9771 -2.4073
  119OSM    C1212512   3.946   0.170  11.128 -0.4269 -0.0900 -0.1578
  119OSM   H12A12513   3.860   0.206  11.182 -0.5325  0.0854 -0.4413
  119OSM   H12B12514   3.967   0.064  11.137  1.6506  0.2316 -0.6949
  119OSM    C1112515   3.900   0.194  10.982  0.1259  0.4832  0.2909
  119OSM   H11A12516   3.817   0.120  10.973  0.6081 -0.1530  0.9432
  119OSM   H11B12517   3.980   0.166  10.910  1.0889  2.4426  0.5403
  119OSM      P12518   3.831   0.385  10.830  0.1013  0.1077 -0.0828
  119OSM    O1312519   3.713   0.326  10.766  0.0939  0.0516 -0.5636
  119OSM    O1412520   3.824   0.529  10.847  0.4102  0.1644  0.0281
  119OSM    O1112521   3.964   0.336  10.757 -0.2328 -0.7910  0.4977
  119OSM    O1212522   3.836   0.320  10.972  0.2506 -0.7880 -0.0754
  119OSM    C1S12523   3.956   0.269  10.634 -0.5762 -0.8364  0.2392
  119OSM    H1S12524   3.905   0.330  10.556 -0.9416 -1.4472 -0.0089
  119OSM    H1T12525   3.890   0.181  10.649 -2.0355 -0.0503 -1.2165
  119OSM     NF12526   4.073   0.161  10.460 -1.1878 -0.4346  0.6644
  119OSM    HNF12527   4.074   0.062  10.455 -0.6121 -0.5373  2.3635
  119OSM    C2S12528   4.094   0.229  10.588  0.3494 -0.2383 -1.0925
  119OSM    H2S12529   4.135   0.329  10.563 -0.4791  1.3450  3.0697
  119OSM    C3S12530   4.169   0.150  10.697 -0.1291 -0.4790  0.5107
  119OSM    H3S12531   4.095   0.078  10.737 -0.7222  0.2683  0.7767
  119OSM     O312532   4.206   0.229  10.813  0.0299  0.3409 -0.1325
  119OSM    HO312533   4.158   0.310  10.796  0.0080  0.0854 -1.4454
  119OSM    C4S12534   4.283   0.077  10.626  0.2142 -0.9900  0.0798
  119OSM    H4S12535   4.253  -0.027  10.604 -1.2713 -0.0861 -2.6500
  119OSM    C5S12536   4.405   0.128  10.606 -0.5866  1.0479  0.0200
  119OSM    H5S12537   4.429   0.228  10.646 -0.4630  1.4270 -0.9923
  119OSM    C6S12538   4.526   0.053  10.545  0.2138 -0.0108  0.8083
  119OSM    H6S12539   4.512  -0.056  10.562  0.1419  0.0414  1.0927
  119OSM    H6T12540   4.626   0.083  10.583  0.1218  0.3642  0.7611
  119OSM    C7S12541   4.537   0.073  10.386 -0.5956  0.3038 -0.0762
  119OSM    H7S12542   4.566   0.177  10.357  0.7144 -0.4735 -1.7217
  119OSM    H7T12543   4.443   0.048  10.333  0.6595 -0.3535 -2.1256
  119OSM    C8S12544   4.658  -0.010  10.328  0.6426 -0.0286  0.2468
  119OSM    H8S12545   4.662  -0.117  10.360  0.8503 -0.4095 -0.9873
  119OSM    H8T12546   4.754   0.026  10.370  1.6984 -1.7257 -0.5935
  119OSM    C9S12547   4.660  -0.034  10.171 -0.0529 -0.3478 -0.3326
  119OSM    H9S12548   4.646   0.061  10.116 -1.5399  0.3610  1.2079
  119OSM    H9T12549   4.579  -0.102  10.139 -0.5707 -0.6548  1.5119
  119OSM   C10S12550   4.783  -0.098  10.111 -0.7903  0.4298  0.0133
  119OSM   H10S12551   4.802  -0.190  10.172 -0.0121  0.4730 -0.1453
  119OSM   H10T12552   4.864  -0.024  10.127  1.2792 -1.6600 -0.2392
  119OSM   C11S12553   4.779  -0.125   9.953 -0.9855  0.9454  0.3865
  119OSM   H11S12554   4.800  -0.037   9.889  3.2288  0.1748  0.4417
  119OSM   H11T12555   4.678  -0.164   9.927 -0.8077  0.5318  0.2981
  119OSM   C12S12556   4.889  -0.231   9.912  0.2423 -0.5535 -0.1108
  119OSM   H12S12557   4.886  -0.320   9.977  2.9733 -0.5362  0.1292
  119OSM   H12T12558   4.993  -0.199   9.935  0.5602 -0.5635 -1.4238
  119OSM   C13S12559   4.873  -0.270   9.768 -0.3072 -0.0279  0.2188
  119OSM   H13S12560   4.862  -0.181   9.702 -1.1959  0.3485  0.8609
  119OSM   H13T12561   4.780  -0.328   9.753  0.7934 -1.3716 -2.1727
  119OSM   C14S12562   4.999  -0.354   9.730 -0.4856 -0.0498  1.0754
  119OSM   H14S12563   4.974  -0.391   9.628 -0.4669  1.6642  0.4120
  119OSM   H14T12564   5.003  -0.442   9.797  0.4698 -0.7854  0.0950
  119OSM   C15S12565   5.130  -0.281   9.736  0.1165 -0.1292 -0.2468
  119OSM   H15S12566   5.162  -0.249   9.837  1.0373  0.4389 -0.7041
  119OSM   H15T12567   5.118  -0.185   9.680 -0.8424  0.9872  1.7688
  119OSM   C16S12568   5.252  -0.351   9.668  0.1734  0.1013 -0.5099
  119OSM   H16S12569   5.265  -0.454   9.707 -0.8364  0.0741 -0.2217
  119OSM   H16T12570   5.347  -0.303   9.701  2.1916 -3.6487 -0.3098
  119OSM   C17S12571   5.243  -0.358   9.518 -0.0421  0.0635  0.3088
  119OSM   H17S12572   5.195  -0.264   9.480  0.5050  0.3643  0.3570
  119OSM   H17T12573   5.171  -0.439   9.493 -0.6405  0.9303 -0.9079
  119OSM   C18S12574   5.370  -0.388   9.437 -0.5563  0.3134 -0.3003
  119OSM   H18S12575   5.441  -0.303   9.446  0.8626 -0.8363 -0.4345
  119OSM   H18T12576   5.339  -0.395   9.330 -0.4496  2.8766 -0.5696
  119OSM   H18U12577   5.422  -0.482   9.465  2.6847  1.9354 -0.4019
  119OSM    C1F12578   4.026   0.221  10.348  0.4846  0.4220 -0.6805
  119OSM     OF12579   3.995   0.335  10.335 -0.3721 -0.1021  0.6272
  119OSM    C2F12580   4.010   0.127  10.233  0.2330  0.1052  0.5330
  119OSM    H2F12581   3.903   0.120  10.203 -0.0823  1.0536  1.3713
  119OSM    H2G12582   4.046   0.029  10.269 -1.0035  0.0966  1.8549
  119OSM    C3F12583   4.096   0.165  10.117  0.1344  0.1400 -0.3116
  119OSM    H3F12584   4.201   0.140  10.143 -0.2307 -1.4896 -0.2420
  119OSM    H3G12585   4.095   0.273  10.092  1.9464  0.6359  1.4932
  119OSM    C4F12586   4.052   0.082  10.003  0.3611 -0.0713  0.2484
  119OSM    H4F12587   4.038  -0.021  10.041 -0.0492  0.0712  0.4990
  119OSM    H4G12588   4.134   0.079   9.929  1.2969  1.6093  1.1479
  119OSM    C5F12589   3.912   0.121   9.936  0.1901 -0.0861 -0.4351
  119OSM    H5F12590   3.898   0.230   9.952  1.2234 -0.2042  1.5221
  119OSM    H5G12591   3.835   0.067   9.995  0.1273  0.7063  0.2152
  119OSM    C6F12592   3.888   0.089   9.790  0.5426  1.3325 -0.1772
  119OSM    H6F12593   3.892  -0.020   9.772 -2.1137  1.3559 -1.3154
  119OSM    H6G12594   3.975   0.128   9.732 -0.5617  2.6460 -1.0044
  119OSM    C7F12595   3.758   0.161   9.747 -0.2988 -0.3851 -0.5045
  119OSM    H7F12596   3.760   0.267   9.781  1.6368 -0.3059 -0.7714
  119OSM    H7G12597   3.677   0.099   9.793  0.4293 -1.0754 -0.1336
  119OSM    C8F12598   3.736   0.159   9.592 -0.0702 -0.3419  1.0616
  119OSM    H8F12599   3.814   0.223   9.544 -0.9228 -0.9734 -1.2621
  119OSM    H8G12600   3.635   0.200   9.570 -0.7153 -1.1833  2.3312
  119OSM    C9F12601   3.760   0.019   9.531  0.0779 -0.8430  0.0853
  119OSM    H9F12602   3.675  -0.049   9.545 -1.2224  0.8952  0.9953
  119OSM   C10F12603   3.873  -0.035   9.476 -0.2605 -0.3448 -0.0468
  119OSM   H10F12604   3.881  -0.137   9.437  1.1374 -0.2593 -0.0440
  119OSM   C11F12605   3.999   0.042   9.454  0.2264 -0.2616  0.1196
  119OSM   H11F12606   4.080   0.008   9.522  2.4339  1.4329 -1.5191
  119OSM   H11G12607   3.984   0.147   9.485 -0.3178 -0.8479  1.9932
  119OSM   C12F12608   4.065   0.038   9.317 -0.4044 -0.7131  0.3177
  119OSM   H12F12609   4.004   0.086   9.237 -0.6948 -1.6534 -0.0404
  119OSM   H12G12610   4.073  -0.069   9.288  1.7339 -0.3856 -0.5020
  119OSM   C13F12611   4.205   0.094   9.305 -0.6958  0.3648  0.0537
  119OSM   H13F12612   4.270   0.061   9.389  1.0169  0.1685 -1.2861
  119OSM   H13G12613   4.209   0.205   9.303  0.4218  0.4129  2.0910
  119OSM   C14F12614   4.273   0.028   9.182  0.4047 -0.0593 -0.3821
  119OSM   H14F12615   4.214   0.056   9.092 -0.6830 -1.9173 -0.2809
  119OSM   H14G12616   4.262  -0.081   9.199 -0.0601 -0.3423 -2.2558
  119OSM   C15F12617   4.413   0.085   9.159 -0.5183  0.0806 -0.3072
  119OSM   H15F12618   4.463   0.093   9.258 -0.3122 -0.1378 -0.3944
  119OSM   H15G12619   4.424   0.187   9.116  0.9889 -0.4295 -1.1803
  119OSM   C16F12620   4.485  -0.013   9.063 -0.7662  0.0746 -0.5471
  119OSM   H16F12621   4.475  -0.119   9.095 -0.3904  0.3829  0.6498
  119OSM   H16G12622   4.590   0.017   9.083 -1.2194  1.5209 -0.2321
  119OSM   C17F12623   4.440   0.000   8.915  0.4341 -0.4634 -0.1510
  119OSM   H17F12624   4.538  -0.009   8.862 -0.1750  0.7803 -1.5802
  119OSM   H17G12625   4.410   0.105   8.894 -1.9081 -0.6613  1.8683
  119OSM   C18F12626   4.341  -0.107   8.866 -0.3807 -0.0109  0.4419
  119OSM   H18F12627   4.260  -0.141   8.934  1.1299 -2.3941  1.1806
  119OSM   H18G12628   4.394  -0.201   8.839 -0.2419  0.3266 -0.5074
  119OSM   H18H12629   4.288  -0.070   8.776  1.0144  0.5959 -0.1594
  120OSM      N12630   2.445   4.004  10.899  0.0480 -0.2889 -0.3377
  120OSM    C1512631   2.342   3.933  10.817  0.2467 -0.2072  0.5295
  120OSM   H15A12632   2.384   3.885  10.729 -0.7393 -1.7900  0.8744
  120OSM   H15B12633   2.277   4.004  10.768  3.0724  0.7766 -2.1554
  120OSM   H15C12634   2.277   3.870  10.875 -1.7914  1.0478 -0.2904
  120OSM    C1412635   2.487   4.121  10.817 -0.0572  0.5847 -0.3265
  120OSM   H14A12636   2.544   4.083  10.734  2.8106  1.6976  1.0190
  120OSM   H14B12637   2.561   4.176  10.872 -0.2235 -0.7654  1.3484
  120OSM   H14C12638   2.405   4.185  10.787  1.9076  2.6787 -1.6129
  120OSM    C1312639   2.375   4.040  11.024 -0.1058  0.5380  0.4704
  120OSM   H13A12640   2.339   3.957  11.083  2.5801  0.9177  2.8301
  120OSM   H13B12641   2.286   4.099  11.005  0.1116  1.1309  1.2425
  120OSM   H13C12642   2.430   4.102  11.092  2.2679  1.4919 -2.1188
  120OSM    C1212643   2.554   3.913  10.938  0.1825 -0.0942  0.3799
  120OSM   H12A12644   2.504   3.835  10.994 -1.3179  0.1376 -0.5750
  120OSM   H12B12645   2.614   3.964  11.012 -1.0799  1.9231  0.0855
  120OSM    C1112646   2.638   3.850  10.821 -0.5327 -0.0845 -0.1046
  120OSM   H11A12647   2.725   3.805  10.873  0.7165  1.6873 -0.5835
  120OSM   H11B12648   2.677   3.932  10.756 -0.7830 -0.7313 -1.0855
  120OSM      P12649   2.529   3.610  10.764 -0.0678 -0.0219 -0.2340
  120OSM    O1312650   2.623   3.517  10.697 -0.5197 -0.0785 -0.2739
  120OSM    O1412651   2.503   3.599  10.911  0.2050  0.5043  0.5038
  120OSM    O1112652   2.389   3.611  10.688  0.2781 -0.3412  0.1031
  120OSM    O1212653   2.564   3.758  10.740  0.3936  0.5434  0.0698
  120OSM    C1S12654   2.385   3.678  10.556  0.0803 -0.3147 -0.3239
  120OSM    H1S12655   2.454   3.627  10.486 -0.5227  1.8456 -2.6118
  120OSM    H1T12656   2.415   3.785  10.558  0.3706 -0.3668 -1.4716
  120OSM     NF12657   2.229   3.721  10.354 -0.8823  0.2727 -0.3819
  120OSM    HNF12658   2.189   3.811  10.347  1.1602  1.2491 -0.3250
  120OSM    C2S12659   2.244   3.659  10.490  0.3680  0.1857 -0.2837
  120OSM    H2S12660   2.227   3.549  10.488 -1.3354  0.3838  0.7821
  120OSM    C3S12661   2.132   3.711  10.588 -0.1114  0.5775  0.4263
  120OSM    H3S12662   2.141   3.822  10.593  2.7889  0.4518 -0.2985
  120OSM     O312663   2.145   3.666  10.722 -0.4345 -0.0650 -0.3832
  120OSM    HO312664   2.235   3.634  10.728 -0.3031  0.0142 -1.6958
  120OSM    C4S12665   1.996   3.693  10.528  0.3114 -1.0849  0.0419
  120OSM    H4S12666   1.979   3.777  10.459  1.2613 -1.4991 -0.7206
  120OSM    C5S12667   1.902   3.597  10.530 -0.4967 -0.1435  0.3349
  120OSM    H5S12668   1.923   3.512  10.597 -1.6694 -0.3565  0.4567
  120OSM    C6S12669   1.774   3.603  10.458 -0.7466 -0.6346  0.0935
  120OSM    H6S12670   1.722   3.701  10.447 -2.1885 -1.3246  0.4275
  120OSM    H6T12671   1.702   3.533  10.506 -1.1643 -1.9093 -2.2511
  120OSM    C7S12672   1.773   3.567  10.302 -0.1757 -0.1891 -0.6729
  120OSM    H7S12673   1.670   3.556  10.263 -0.2812 -1.8295  0.0031
  120OSM    H7T12674   1.818   3.467  10.283 -2.2388 -0.8314 -2.6850
  120OSM    C8S12675   1.842   3.685  10.229  1.0015 -0.4436  0.6008
  120OSM    H8S12676   1.942   3.696  10.276  0.9737 -2.2326  1.1407
  120OSM    H8T12677   1.782   3.779  10.240 -0.9512 -1.8518  3.0516
  120OSM    C9S12678   1.864   3.650  10.083 -0.2418 -0.1866 -0.4935
  120OSM    H9S12679   1.893   3.544  10.064 -1.5969 -0.5526 -0.6272
  120OSM    H9T12680   1.938   3.726  10.051 -0.2948  0.7504  1.4504
  120OSM   C10S12681   1.741   3.673   9.992  0.7070  0.4607  0.1394
  120OSM   H10S12682   1.702   3.777  10.000 -1.7009 -0.2035 -1.7504
  120OSM   H10T12683   1.666   3.612  10.046  2.6473 -0.6108  1.7366
  120OSM   C11S12684   1.764   3.643   9.846  0.1989  0.4493  0.3510
  120OSM   H11S12685   1.675   3.670   9.786  0.5366 -0.3360 -0.5341
  120OSM   H11T12686   1.774   3.532   9.844  1.0104  0.4337  2.5076
  120OSM   C12S12687   1.893   3.695   9.793 -0.1164 -0.7753 -0.0816
  120OSM   H12S12688   1.984   3.653   9.840 -0.1277 -1.9177 -1.0280
  120OSM   H12T12689   1.901   3.805   9.802 -0.6819 -0.8433  1.5783
  120OSM   C13S12690   1.901   3.663   9.642  0.4286 -0.1936 -0.1562
  120OSM   H13S12691   1.996   3.699   9.596 -1.0009  1.0629 -2.3023
  120OSM   H13T12692   1.816   3.711   9.590 -1.5141 -1.6348  1.5481
  120OSM   C14S12693   1.891   3.513   9.608 -0.3882  0.3642  0.7357
  120OSM   H14S12694   1.789   3.468   9.610  0.6773 -2.5491 -1.8731
  120OSM   H14T12695   1.963   3.465   9.678  1.7851  1.8930 -0.3215
  120OSM   C15S12696   1.951   3.478   9.474 -1.0844 -0.2265  0.2889
  120OSM   H15S12697   1.955   3.367   9.465  0.3133 -0.2242  0.5252
  120OSM   H15T12698   2.055   3.517   9.467 -1.0306 -0.2128  1.1161
  120OSM   C16S12699   1.871   3.524   9.356  0.1502 -0.0756  0.5934
  120OSM   H16S12700   1.887   3.630   9.325  0.6226 -0.2812  0.1242
  120OSM   H16T12701   1.766   3.524   9.392  0.3456  0.0684  1.1748
  120OSM   C17S12702   1.883   3.437   9.228 -0.1347  0.6155 -0.2834
  120OSM   H17S12703   1.825   3.496   9.154  0.6472  1.5683 -0.1646
  120OSM   H17T12704   1.829   3.342   9.248  1.1754 -0.0816  0.0474
  120OSM   C18S12705   2.026   3.416   9.175 -0.0273 -0.4367  0.1310
  120OSM   H18S12706   2.097   3.386   9.255  1.8672  2.0811 -0.4755
  120OSM   H18T12707   2.064   3.514   9.137 -0.0387 -0.7182 -0.6242
  120OSM   H18U12708   2.034   3.344   9.090 -0.7634 -0.4408  0.0574
  120OSM    C1F12709   2.291   3.665  10.256 -0.7896 -0.0888  0.0943
  120OSM     OF12710   2.364   3.572  10.261 -0.6736  0.3781 -0.3390
  120OSM    C2F12711   2.259   3.723  10.122  0.5244 -0.0315  0.0118
  120OSM    H2F12712   2.277   3.833  10.126  2.0427  0.1089 -4.5214
  120OSM    H2G12713   2.154   3.712  10.087 -0.0463 -0.4333  1.7959
  120OSM    C3F12714   2.351   3.666  10.011  0.0289  0.3200 -0.1741
  120OSM    H3F12715   2.339   3.555  10.015 -3.0798  0.5468 -0.7203
  120OSM    H3G12716   2.457   3.688  10.036  0.7879  1.3100 -3.6621
  120OSM    C4F12717   2.320   3.718   9.874 -0.0306 -0.3127  0.5252
  120OSM    H4F12718   2.303   3.828   9.878  0.0671 -0.1365 -2.0278
  120OSM    H4G12719   2.221   3.683   9.835  1.2838 -0.5178 -3.0399
  120OSM    C5F12720   2.429   3.692   9.767  0.1140  0.0616  0.0134
  120OSM    H5F12721   2.437   3.581   9.773 -0.5753  0.0372  0.7206
  120OSM    H5G12722   2.522   3.745   9.794 -0.4879  1.3416 -0.3247
  120OSM    C6F12723   2.383   3.737   9.626  0.2678  0.6748  0.2644
  120OSM    H6F12724   2.346   3.842   9.637 -0.9398  0.0836  2.3477
  120OSM    H6G12725   2.295   3.678   9.592  1.6741 -0.8107 -0.9638
  120OSM    C7F12726   2.495   3.727   9.523  0.0276  0.1588  0.3198
  120OSM    H7F12727   2.493   3.622   9.485 -1.7444  0.1507  0.3705
  120OSM    H7G12728   2.593   3.748   9.570 -0.3073  1.9691  0.2782
  120OSM    C8F12729   2.483   3.820   9.402 -0.3792 -0.1177  0.7241
  120OSM    H8F12730   2.504   3.925   9.432  0.9898 -0.4596  1.0325
  120OSM    H8G12731   2.378   3.815   9.367 -0.0581  0.7458 -0.4307
  120OSM    C9F12732   2.576   3.770   9.296  0.1171 -0.2389  0.5585
  120OSM    H9F12733   2.681   3.781   9.325 -0.3525  0.1301  2.1864
  120OSM   C10F12734   2.552   3.722   9.169  0.8204  0.0644  0.0659
  120OSM   H10F12735   2.634   3.683   9.106 -0.5178 -1.9768 -0.5253
  120OSM   C11F12736   2.425   3.696   9.090 -0.5349  0.6205  0.0296
  120OSM   H11F12737   2.429   3.761   9.000 -3.2218  0.3950 -0.3226
  120OSM   H11G12738   2.339   3.739   9.144  0.0689 -0.3267  1.8125
  120OSM   C12F12739   2.411   3.558   9.034  0.3168 -0.0468  0.0328
  120OSM   H12F12740   2.314   3.565   8.979  1.6703 -1.4941 -2.7660
  120OSM   H12G12741   2.404   3.477   9.109  1.7359  0.5570  0.8591
  120OSM   C13F12742   2.506   3.528   8.919  0.8273  0.6244  0.7172
  120OSM   H13F12743   2.606   3.516   8.965  0.9690 -0.4133  0.1636
  120OSM   H13G12744   2.522   3.619   8.858 -1.0500  0.7913  0.3871
  120OSM   C14F12745   2.460   3.399   8.843 -0.1414 -0.3128 -0.1656
  120OSM   H14F12746   2.350   3.411   8.826 -0.0991  3.3868  1.0836
  120OSM   H14G12747   2.464   3.318   8.918 -0.7758 -0.5885 -0.4190
  120OSM   C15F12748   2.539   3.365   8.718  0.0201  0.3734 -0.2181
  120OSM   H15F12749   2.549   3.254   8.713 -1.6066  0.1286  1.1065
  120OSM   H15G12750   2.643   3.399   8.738 -0.2005 -0.3870  2.6918
  120OSM   C16F12751   2.479   3.415   8.587  0.0623 -0.2014  0.7540
  120OSM   H16F12752   2.377   3.374   8.574  0.7115 -1.0687 -2.4324
  120OSM   H16G12753   2.540   3.359   8.513 -1.5526  0.2786 -1.0209
  120OSM   C17F12754   2.485   3.569   8.570 -0.3727 -0.0375  0.0701
  120OSM   H17F12755   2.591   3.602   8.572 -0.3114 -0.2138 -0.2604
  120OSM   H17G12756   2.439   3.626   8.654 -0.3793 -0.1040  0.1117
  120OSM   C18F12757   2.420   3.603   8.429 -0.3427 -0.5238 -0.8257
  120OSM   H18F12758   2.480   3.550   8.352  0.1090  0.1628 -0.9587
  120OSM   H18G12759   2.423   3.714   8.422  2.1705 -0.4204  0.8239
  120OSM   H18H12760   2.312   3.578   8.419 -0.3356 -0.5455 -0.8496
  121OSM      N12761   0.306   5.421  11.155  0.3411 -0.1082  0.6687
  121OSM    C1512762   0.225   5.545  11.191  0.8119  0.3383  1.1372
  121OSM   H15A12763   0.132   5.546  11.135  0.5852 -0.0068  1.5030
  121OSM   H15B12764   0.265   5.645  11.178 -1.9243  1.6292  1.8121
  121OSM   H15C12765   0.190   5.545  11.293 -1.4932 -1.2210  0.4214
  121OSM    C1412766   0.429   5.410  11.235  0.7930  0.2947 -0.0525
  121OSM   H14A12767   0.408   5.392  11.340 -0.0050 -0.6924 -0.3588
  121OSM   H14B12768   0.492   5.497  11.234 -0.0141  0.8877 -1.5944
  121OSM   H14C12769   0.481   5.325  11.192 -1.7155 -0.8589 -0.9827
  121OSM    C1312770   0.225   5.299  11.179 -0.4402 -0.3265 -0.1985
  121OSM   H13A12771   0.198   5.310  11.283  0.4588  1.6084 -0.1294
  121OSM   H13B12772   0.282   5.211  11.155 -0.8147 -0.7307  0.3598
  121OSM   H13C12773   0.122   5.309  11.147 -1.3919 -1.3306  2.2937
  121OSM    C1212774   0.343   5.420  11.010 -0.4125 -0.8109 -0.1249
  121OSM   H12A12775   0.384   5.516  10.980 -0.4262  0.2624  2.9682
  121OSM   H12B12776   0.254   5.430  10.950 -0.2106  1.4135 -0.1631
  121OSM    C1112777   0.435   5.299  10.956 -0.2139  0.1894 -0.3420
  121OSM   H11A12778   0.533   5.319  11.006 -1.2949  0.3720  1.8040
  121OSM   H11B12779   0.446   5.319  10.847 -1.9034 -0.3421 -0.6331
  121OSM      P12780   0.485   5.043  10.992 -0.3921 -0.2038 -0.0544
  121OSM    O1312781   0.570   5.067  11.108 -0.3874 -0.0738  0.2011
  121OSM    O1412782   0.410   4.918  10.994 -0.4815  0.2866 -0.1228
  121OSM    O1112783   0.574   5.045  10.862  0.1825 -1.0187  0.1215
  121OSM    O1212784   0.386   5.169  10.976  0.0874 -0.9167 -0.6762
  121OSM    C1S12785   0.503   5.035  10.738 -0.4499 -0.1944 -0.1176
  121OSM    H1S12786   0.415   5.103  10.729 -2.1714 -1.9954  1.9790
  121OSM    H1T12787   0.461   4.933  10.733  2.4710 -1.5340  0.5733
  121OSM     NF12788   0.526   5.067  10.498 -0.0609  0.3170 -0.0618
  121OSM    HNF12789   0.515   4.979  10.453  0.0369 -0.1133  0.7390
  121OSM    C2S12790   0.597   5.049  10.620  0.1761 -0.4840 -0.0063
  121OSM    H2S12791   0.660   5.140  10.627 -1.2117  0.4081  1.7021
  121OSM    C3S12792   0.684   4.921  10.626  0.1230 -1.0848 -0.0178
  121OSM    H3S12793   0.624   4.837  10.584  0.2374 -0.4498 -1.5206
  121OSM     O312794   0.733   4.880  10.752  0.4126 -0.0217  0.0614
  121OSM    HO312795   0.681   4.937  10.809  2.7363 -0.0855  2.4045
  121OSM    C4S12796   0.807   4.946  10.540  0.4306  0.0203 -0.5760
  121OSM    H4S12797   0.891   4.977  10.603  1.1647  0.1251 -1.5884
  121OSM    C5S12798   0.819   4.939  10.409 -0.4189 -0.2419  0.5731
  121OSM    H5S12799   0.733   4.917  10.344  0.9959  1.7695 -2.1515
  121OSM    C6S12800   0.945   4.958  10.330 -0.0829 -0.4740 -0.5527
  121OSM    H6S12801   0.975   4.864  10.280 -1.6083 -0.2375 -2.0089
  121OSM    H6T12802   1.037   4.987  10.386  0.6779 -3.3808 -0.1105
  121OSM    C7S12803   0.922   5.060  10.206 -0.8732 -0.3927 -0.2037
  121OSM    H7S12804   1.025   5.098  10.183 -1.0213  1.1537  1.4516
  121OSM    H7T12805   0.859   5.144  10.241  0.6518  0.9928 -0.6531
  121OSM    C8S12806   0.851   5.002  10.080 -1.0008 -0.3336 -0.5422
  121OSM    H8S12807   0.821   5.095  10.029  0.9638  1.3224  1.1456
  121OSM    H8T12808   0.764   4.950  10.126  0.5876 -2.2531  0.5070
  121OSM    C9S12809   0.940   4.921   9.986 -0.4608 -0.9712  0.0225
  121OSM    H9S12810   0.956   4.818  10.024 -1.3617 -0.6854  1.2289
  121OSM    H9T12811   1.033   4.981   9.977  0.3280 -2.0467  0.8367
  121OSM   C10S12812   0.881   4.912   9.847 -0.0373 -0.1517 -0.1935
  121OSM   H10S12813   0.863   5.007   9.792 -1.1523 -0.4722 -0.4151
  121OSM   H10T12814   0.786   4.855   9.858 -0.3073 -0.5047 -3.5051
  121OSM   C11S12815   0.965   4.823   9.756 -0.1273 -0.2405  0.1578
  121OSM   H11S12816   0.963   4.716   9.785 -0.3541 -0.6341 -1.2595
  121OSM   H11T12817   1.067   4.867   9.747 -0.5318  1.2948  2.2776
  121OSM   C12S12818   0.900   4.818   9.617 -0.4133 -0.0557  0.5086
  121OSM   H12S12819   0.873   4.920   9.583  1.0976  0.8006  1.7196
  121OSM   H12T12820   0.803   4.765   9.627  1.2908 -3.3880  0.6665
  121OSM   C13S12821   0.995   4.760   9.510 -0.3924  0.3255  0.3290
  121OSM   H13S12822   1.003   4.649   9.517  0.0404  0.3161 -0.2236
  121OSM   H13T12823   1.092   4.815   9.516 -0.6033  0.7365  0.0153
  121OSM   C14S12824   0.951   4.788   9.364 -0.0800  0.8390  0.1418
  121OSM   H14S12825   0.940   4.898   9.373  0.6257  0.8420  1.1407
  121OSM   H14T12826   0.853   4.742   9.339  1.0231 -0.2310 -2.5907
  121OSM   C15S12827   1.059   4.759   9.259  0.9674  0.6953 -0.2020
  121OSM   H15S12828   1.115   4.667   9.285  0.4872  0.0535 -1.3483
  121OSM   H15T12829   1.127   4.846   9.270 -0.4748  1.7730  0.6952
  121OSM   C16S12830   1.000   4.750   9.115 -0.4722  0.0431  0.7858
  121OSM   H16S12831   1.078   4.743   9.036 -0.6287 -1.4884  0.7423
  121OSM   H16T12832   0.927   4.831   9.090  0.1770  0.4901  0.3034
  121OSM   C17S12833   0.912   4.622   9.105 -0.5802 -0.7130 -0.1028
  121OSM   H17S12834   0.822   4.639   9.168 -1.1264 -0.1801 -0.9968
  121OSM   H17T12835   0.972   4.543   9.154 -1.7617 -1.6717 -0.1702
  121OSM   C18S12836   0.887   4.588   8.964 -0.0381  0.1838  0.4117
  121OSM   H18S12837   0.977   4.597   8.900 -1.9573 -0.3122 -2.5481
  121OSM   H18T12838   0.799   4.641   8.924  0.0675  0.8309  1.0140
  121OSM   H18U12839   0.851   4.483   8.959  0.7795 -0.0378 -1.3646
  121OSM    C1F12840   0.477   5.180  10.442 -0.1958 -0.4784  0.1177
  121OSM     OF12841   0.515   5.290  10.481  0.3810 -0.4140  0.4589
  121OSM    C2F12842   0.386   5.158  10.325  0.3125  0.3447 -0.8724
  121OSM    H2F12843   0.332   5.252  10.299 -0.7126  0.9176  2.7606
  121OSM    H2G12844   0.315   5.076  10.349  0.0562 -0.8835 -5.0067
  121OSM    C3F12845   0.471   5.109  10.209 -0.2038  0.1448 -0.4610
  121OSM    H3F12846   0.502   5.002  10.216  0.2376  0.3622  3.0389
  121OSM    H3G12847   0.567   5.162  10.196  0.6158 -1.1547  0.0331
  121OSM    C4F12848   0.394   5.121  10.078  0.3817 -0.1694 -0.6987
  121OSM    H4F12849   0.366   5.226  10.055 -0.7770 -0.2921  0.1134
  121OSM    H4G12850   0.296   5.080  10.108  0.4722  0.1635  0.0872
  121OSM    C5F12851   0.465   5.049   9.956  0.2616 -0.2896 -0.4415
  121OSM    H5F12852   0.489   4.946   9.991 -3.7218 -1.5628 -0.9753
  121OSM    H5G12853   0.559   5.102   9.931  0.7149 -0.7021  0.3409
  121OSM    C6F12854   0.378   5.026   9.835  0.0183 -0.1092  0.8882
  121OSM    H6F12855   0.335   5.113   9.782  0.0205 -2.0434 -2.5851
  121OSM    H6G12856   0.285   4.967   9.852  0.1459 -0.0212  1.9422
  121OSM    C7F12857   0.456   4.953   9.723  0.4734 -0.1051  0.7543
  121OSM    H7F12858   0.494   4.856   9.764 -0.9296  0.3375  3.3101
  121OSM    H7G12859   0.536   5.023   9.690 -0.5706 -0.1828 -2.2475
  121OSM    C8F12860   0.378   4.935   9.589 -0.8644 -0.7405 -0.0631
  121OSM    H8F12861   0.353   5.030   9.539  2.1083  0.9167  1.3494
  121OSM    H8G12862   0.281   4.885   9.608 -0.5399 -2.2585 -2.0611
  121OSM    C9F12863   0.447   4.842   9.487 -0.3956 -0.5750 -0.5035
  121OSM    H9F12864   0.422   4.735   9.499 -0.2352 -0.5851 -0.2520
  121OSM   C10F12865   0.526   4.874   9.380  0.5850  0.4278  0.0276
  121OSM   H10F12866   0.585   4.797   9.328 -0.7410 -0.5557 -0.0896
  121OSM   C11F12867   0.560   5.009   9.328 -0.2359 -0.4553  0.1317
  121OSM   H11F12868   0.658   5.052   9.356 -0.0686  0.6719 -1.9501
  121OSM   H11G12869   0.480   5.077   9.363 -1.4081 -1.4387 -0.5691
  121OSM   C12F12870   0.539   5.003   9.173  0.1829 -0.1576  1.2641
  121OSM   H12F12871   0.523   5.107   9.135 -1.6771 -0.7797  0.2504
  121OSM   H12G12872   0.447   4.954   9.138  1.0002 -0.4806 -0.5155
  121OSM   C13F12873   0.675   4.942   9.115 -0.5692 -0.1725 -0.2548
  121OSM   H13F12874   0.669   4.832   9.097 -2.0810 -0.3430  1.0079
  121OSM   H13G12875   0.743   4.959   9.201 -2.5694  2.3471  0.9654
  121OSM   C14F12876   0.726   5.012   8.997  0.1372  0.4946  0.3949
  121OSM   H14F12877   0.819   4.960   8.964 -1.2956 -1.2240 -1.2088
  121OSM   H14G12878   0.754   5.117   9.021  0.4508  0.0274  2.2249
  121OSM   C15F12879   0.628   4.998   8.878 -0.6630  0.3424  0.3956
  121OSM   H15F12880   0.662   5.071   8.801  0.6655 -0.3270  0.3231
  121OSM   H15G12881   0.524   5.027   8.903 -0.7236  1.2081 -0.7964
  121OSM   C16F12882   0.637   4.863   8.808  0.8042  0.0130  0.6422
  121OSM   H16F12883   0.603   4.775   8.867 -1.5779 -0.5687 -1.4146
  121OSM   H16G12884   0.745   4.844   8.787  1.1174  0.9935  1.2993
  121OSM   C17F12885   0.575   4.864   8.662  0.0065  0.4122  0.0085
  121OSM   H17F12886   0.481   4.924   8.661 -1.1211 -1.2484  1.0485
  121OSM   H17G12887   0.546   4.759   8.640 -2.3252  0.5719  1.9271
  121OSM   C18F12888   0.680   4.902   8.558  0.0458 -0.4911 -0.6090
  121OSM   H18F12889   0.756   4.821   8.548 -0.5889 -1.5417  2.0401
  121OSM   H18G12890   0.745   4.987   8.589 -1.1909  0.1730  0.2322
  121OSM   H18H12891   0.625   4.928   8.465  0.5472 -2.2998 -1.4561
  122OSM      N12892   1.819   5.035  11.070 -0.2932  0.4157  0.1321
  122OSM    C1512893   1.751   5.106  11.186  0.4555  0.5480 -0.2127
  122OSM   H15A12894   1.723   5.203  11.147 -0.9370 -0.4058 -1.6781
  122OSM   H15B12895   1.826   5.105  11.264  1.9605  1.2664 -1.5802
  122OSM   H15C12896   1.666   5.058  11.232  1.4636 -0.7872  0.3287
  122OSM    C1412897   1.942   5.113  11.029  0.5930 -0.3858  0.3485
  122OSM   H14A12898   2.003   5.065  10.955  0.3753 -0.8148  0.4425
  122OSM   H14B12899   2.011   5.126  11.112  1.0548 -2.3180  0.3038
  122OSM   H14C12900   1.915   5.208  10.984 -0.7721 -0.2814  1.3029
  122OSM    C1312901   1.851   4.900  11.128  0.0334 -0.7674 -0.9254
  122OSM   H13A12902   1.916   4.843  11.062  0.6350 -2.3885  0.9696
  122OSM   H13B12903   1.770   4.834  11.153  0.2555  0.7337  5.2724
  122OSM   H13C12904   1.908   4.911  11.219 -1.8076 -1.1776  0.3265
  122OSM    C1212905   1.731   5.027  10.941 -0.5185  0.6240  0.1354
  122OSM   H12A12906   1.790   4.978  10.865  0.3507 -1.9096  2.2647
  122OSM   H12B12907   1.714   5.129  10.911 -0.7988 -0.0137 -2.0136
  122OSM    C1112908   1.592   4.957  10.957 -0.1755  0.1490 -0.8622
  122OSM   H11A12909   1.540   4.957  10.859  0.1359 -2.2903 -1.0853
  122OSM   H11B12910   1.531   5.008  11.034  1.1403  1.0083 -0.3529
  122OSM      P12911   1.653   4.703  10.914 -0.4036  0.6636 -0.1933
  122OSM    O1312912   1.776   4.656  10.969 -0.1090  0.5662  0.4305
  122OSM    O1412913   1.548   4.599  10.897  0.6193  0.4103  0.1035
  122OSM    O1112914   1.686   4.763  10.776 -0.0632 -0.1882  0.0355
  122OSM    O1212915   1.599   4.821  11.000  0.0080 -0.3108 -0.6754
  122OSM    C1S12916   1.738   4.679  10.667  0.1927  0.0259  0.2983
  122OSM    H1S12917   1.665   4.596  10.656  2.3573 -1.8583 -0.5756
  122OSM    H1T12918   1.841   4.638  10.676  0.4091  0.7345  1.1528
  122OSM     NF12919   1.729   4.688  10.419  0.1390 -1.4983 -0.1715
  122OSM    HNF12920   1.811   4.669  10.365 -0.1473 -1.7003 -0.5381
  122OSM    C2S12921   1.742   4.764  10.536  0.2974  0.0474 -0.0615
  122OSM    H2S12922   1.653   4.831  10.531 -0.8295 -1.4813 -1.2081
  122OSM    C3S12923   1.881   4.848  10.538 -0.0122 -0.6312  0.9836
  122OSM    H3S12924   1.965   4.776  10.527 -0.1445 -1.2537  3.3363
  122OSM     O312925   1.886   4.923  10.663 -0.2085  0.3795  0.1931
  122OSM    HO312926   1.810   4.901  10.718  0.3555  2.1120  1.7981
  122OSM    C4S12927   1.886   4.955  10.424  1.0799  0.1048 -1.1638
  122OSM    H4S12928   1.853   5.054  10.457 -1.4897 -1.3958  1.2541
  122OSM    C5S12929   1.936   4.945  10.298 -0.7661  0.0689  0.2628
  122OSM    H5S12930   1.976   4.848  10.266 -0.1732  0.3180  0.2540
  122OSM    C6S12931   1.934   5.042  10.184 -0.1834  0.1306 -0.2621
  122OSM    H6S12932   2.038   5.078  10.173  0.2100 -0.4968  1.1094
  122OSM    H6T12933   1.870   5.122  10.227 -0.4566 -0.8161  1.1859
  122OSM    C7S12934   1.880   4.969  10.056 -0.0120 -0.2191 -0.1928
  122OSM    H7S12935   1.770   4.960  10.069 -0.3030  1.1691 -1.4345
  122OSM    H7T12936   1.940   4.876  10.044  1.3713  0.8370 -1.9080
  122OSM    C8S12937   1.910   5.052   9.928 -0.1255 -0.3450 -0.3634
  122OSM    H8S12938   2.019   5.048   9.908 -0.1003 -2.3683 -0.0507
  122OSM    H8T12939   1.892   5.161   9.939 -0.5706  0.0390 -3.7674
  122OSM    C9S12940   1.846   5.004   9.798  0.8834 -0.3590 -0.4700
  122OSM    H9S12941   1.737   5.021   9.806  0.9577 -0.2354  0.3609
  122OSM    H9T12942   1.840   4.893   9.809  0.4830 -0.1111  2.6388
  122OSM   C10S12943   1.905   5.073   9.675 -0.2482 -0.0349 -0.6390
  122OSM   H10S12944   2.015   5.057   9.665 -0.6425 -2.6545 -1.4173
  122OSM   H10T12945   1.887   5.182   9.689 -2.2522 -0.4631  0.5375
  122OSM   C11S12946   1.846   5.023   9.543  0.2558 -0.2859  0.1291
  122OSM   H11S12947   1.735   5.026   9.551  0.2740  0.9699  0.1091
  122OSM   H11T12948   1.881   4.918   9.528 -1.4014 -1.4710  3.5806
  122OSM   C12S12949   1.897   5.102   9.420 -0.0788  0.0866 -0.0176
  122OSM   H12S12950   2.007   5.094   9.402 -0.3565 -1.8333 -1.1107
  122OSM   H12T12951   1.879   5.209   9.444  2.2108  0.5472 -0.0510
  122OSM   C13S12952   1.823   5.075   9.289 -0.5221  0.5495  0.8665
  122OSM   H13S12953   1.719   5.112   9.300 -0.5938  1.0087 -0.9863
  122OSM   H13T12954   1.824   4.965   9.270 -0.4520  0.6717  0.1388
  122OSM   C14S12955   1.911   5.137   9.175  0.4478  0.0054 -0.1301
  122OSM   H14S12956   2.018   5.109   9.186  1.1851  2.6333  0.1197
  122OSM   H14T12957   1.887   5.245   9.184 -1.5167 -0.4406  0.3510
  122OSM   C15S12958   1.851   5.085   9.040  0.1133  0.9083  0.2677
  122OSM   H15S12959   1.741   5.092   9.049 -0.1243 -1.8457  0.4908
  122OSM   H15T12960   1.869   4.975   9.038 -1.4387  0.6366 -1.7668
  122OSM   C16S12961   1.900   5.162   8.919  0.2928  0.0578  0.1751
  122OSM   H16S12962   1.852   5.262   8.925  1.4840  0.7994 -1.7318
  122OSM   H16T12963   1.865   5.113   8.826  1.6376 -1.9514  0.6675
  122OSM   C17S12964   2.055   5.169   8.909 -0.7528  0.5044 -0.9076
  122OSM   H17S12965   2.093   5.071   8.945 -0.5686  1.1111  0.6033
  122OSM   H17T12966   2.085   5.252   8.977  0.7681 -0.2410 -0.6421
  122OSM   C18S12967   2.118   5.192   8.769  0.3865 -0.4278  0.0705
  122OSM   H18S12968   2.078   5.108   8.708 -1.1607  0.5977 -0.3973
  122OSM   H18T12969   2.229   5.185   8.776  0.2894 -1.0705  1.3827
  122OSM   H18U12970   2.080   5.288   8.730 -1.9551 -0.0842  2.8830
  122OSM    C1F12971   1.615   4.642  10.377  0.6417  0.1340  0.0885
  122OSM     OF12972   1.513   4.637  10.449 -0.6443 -0.2534 -0.8292
  122OSM    C2F12973   1.602   4.609  10.232  0.2850  0.3545 -0.4259
  122OSM    H2F12974   1.685   4.545  10.194 -0.4963 -2.4284  2.1760
  122OSM    H2G12975   1.608   4.703  10.173 -0.5512  0.5407 -0.2332
  122OSM    C3F12976   1.463   4.555  10.198 -1.2668  0.2798  0.8023
  122OSM    H3F12977   1.388   4.634  10.218 -0.5119  1.0576  0.6330
  122OSM    H3G12978   1.436   4.476  10.271  0.3890 -0.7086  0.3808
  122OSM    C4F12979   1.443   4.514  10.048 -0.1161  1.0021 -0.2741
  122OSM    H4F12980   1.538   4.458  10.031 -1.3845 -0.6222 -2.5279
  122OSM    H4G12981   1.436   4.605   9.984 -0.3594  1.3136  0.1912
  122OSM    C5F12982   1.337   4.411  10.019 -0.1066  0.1565 -0.4538
  122OSM    H5F12983   1.231   4.442  10.030 -0.1039  0.1617 -0.4417
  122OSM    H5G12984   1.358   4.342  10.104  0.6723  1.7039  0.6543
  122OSM    C6F12985   1.351   4.344   9.883 -0.0278  0.0200 -0.7897
  122OSM    H6F12986   1.273   4.265   9.887  1.3221 -1.3506 -0.5856
  122OSM    H6G12987   1.448   4.291   9.875  0.6380  1.2273 -0.8024
  122OSM    C7F12988   1.324   4.436   9.763  0.6687  0.0822  0.0166
  122OSM    H7F12989   1.410   4.501   9.737 -0.1198  1.0200 -0.3375
  122OSM    H7G12990   1.248   4.514   9.788  1.1106  0.6771 -0.4639
  122OSM    C8F12991   1.276   4.358   9.643 -0.9514 -0.1964  0.3440
  122OSM    H8F12992   1.183   4.303   9.667 -1.3241  1.0011  1.7387
  122OSM    H8G12993   1.346   4.278   9.607 -3.2075 -2.2092  0.1862
  122OSM    C9F12994   1.256   4.443   9.517  0.0434  0.6487 -0.1992
  122OSM    H9F12995   1.267   4.550   9.537 -0.8650  0.8504 -0.7192
  122OSM   C10F12996   1.209   4.398   9.397  0.1799  0.3040 -0.5822
  122OSM   H10F12997   1.202   4.468   9.313 -0.9784 -0.8318 -1.4671
  122OSM   C11F12998   1.185   4.255   9.358 -0.1198 -0.2722 -0.4320
  122OSM   H11F12999   1.081   4.231   9.329 -0.0569  2.2591 -3.2828
  122OSM   H11G13000   1.217   4.189   9.441  0.4924  1.1839  0.5451
  122OSM   C12F13001   1.266   4.207   9.232  1.0030  0.5406 -0.3033
  122OSM   H12F13002   1.261   4.096   9.230  0.5761  0.4848  1.7187
  122OSM   H12G13003   1.370   4.244   9.247  0.3079  2.6240 -0.2339
  122OSM   C13F13004   1.223   4.257   9.091  0.5081  0.3576  0.0367
  122OSM   H13F13005   1.179   4.358   9.098 -1.3330 -0.4563  0.7741
  122OSM   H13G13006   1.145   4.191   9.048  0.7866  0.4700 -0.6540
  122OSM   C14F13007   1.330   4.276   8.982 -0.1029 -0.3791 -0.1403
  122OSM   H14F13008   1.391   4.185   8.965  0.8382  0.3750 -0.9153
  122OSM   H14G13009   1.401   4.350   9.025  0.2985 -0.0098 -1.3956
  122OSM   C15F13010   1.273   4.341   8.853  0.2365 -0.1916  0.1022
  122OSM   H15F13011   1.258   4.449   8.872 -1.8089 -0.2240 -1.0381
  122OSM   H15G13012   1.176   4.307   8.812  0.1396  1.1294 -0.8312
  122OSM   C16F13013   1.376   4.344   8.734 -0.6843 -0.4521 -0.4074
  122OSM   H16F13014   1.388   4.248   8.679 -0.6893  1.1381 -3.4207
  122OSM   H16G13015   1.478   4.344   8.777 -0.0153 -0.4928 -1.9325
  122OSM   C17F13016   1.347   4.455   8.634  0.5625 -0.4289  0.4050
  122OSM   H17F13017   1.395   4.409   8.545 -3.0532 -0.9295 -1.4993
  122OSM   H17G13018   1.402   4.549   8.651 -0.4565  0.2364  0.1170
  122OSM   C18F13019   1.197   4.465   8.582  0.0899  0.1550 -0.2989
  122OSM   H18F13020   1.166   4.362   8.554  1.2138 -0.3614  0.3004
  122OSM   H18G13021   1.184   4.524   8.489 -1.2397  0.1872 -0.1088
  122OSM   H18H13022   1.132   4.509   8.660  0.1237  0.5721 -0.5057
  123OSM      N13023   5.363   1.758   5.885  0.2320  0.3997  0.5834
  123OSM    C1513024   5.280   1.659   5.960  0.2148  0.7927 -0.4383
  123OSM   H15A13025   5.237   1.588   5.890 -0.6662  1.3560 -0.4810
  123OSM   H15B13026   5.209   1.710   6.022  0.0705 -1.0865  1.0453
  123OSM   H15C13027   5.340   1.605   6.032 -0.1823  0.6174 -0.2421
  123OSM    C1413028   5.447   1.675   5.798  0.1205  0.7071  0.2724
  123OSM   H14A13029   5.386   1.614   5.733 -0.5618  3.3481 -1.7946
  123OSM   H14B13030   5.502   1.606   5.859 -1.2929 -0.0839  0.7075
  123OSM   H14C13031   5.513   1.728   5.731  0.0560 -0.8818 -1.0969
  123OSM    C1313032   5.275   1.843   5.797  0.9566  0.1545 -0.8663
  123OSM   H13A13033   5.201   1.779   5.751  1.5151 -1.6999  0.6893
  123OSM   H13B13034   5.332   1.913   5.738  0.8853  1.6485  0.7635
  123OSM   H13C13035   5.217   1.915   5.851 -0.7796  0.7100 -3.2954
  123OSM    C1213036   5.439   1.842   5.991 -0.2264 -0.1158  0.4380
  123OSM   H12A13037   5.493   1.918   5.937  1.1840 -0.5267  1.2055
  123OSM   H12B13038   5.514   1.787   6.048  1.3387  0.7000 -0.7619
  123OSM    C1113039   5.354   1.931   6.082 -0.2494 -0.0419  0.7414
  123OSM   H11A13040   5.424   1.962   6.163  0.2054  2.3019 -0.4448
  123OSM   H11B13041   5.283   1.863   6.133  0.7708 -1.2400  0.6217
  123OSM      P13042   5.367   2.161   5.949 -0.9198  0.0183 -0.0713
  123OSM    O1313043   5.469   2.107   5.855  0.5240 -0.1211 -0.2235
  123OSM    O1413044   5.282   2.270   5.903  0.4896 -0.3920 -0.2032
  123OSM    O1113045   5.442   2.228   6.074  0.1988  0.1296 -0.3659
  123OSM    O1213046   5.289   2.036   6.012  0.1420  0.5222 -0.0415
  123OSM    C1S13047   5.364   2.301   6.168  0.8066  0.3299 -0.5843
  123OSM    H1S13048   5.255   2.276   6.167  1.3622 -2.5590  1.0267
  123OSM    H1T13049   5.372   2.412   6.157  1.2284  0.5142  1.2709
  123OSM     NF13050   5.325   2.340   6.414  0.5741 -0.2352 -0.9958
  123OSM    HNF13051   5.372   2.408   6.470  0.7395 -1.9320  1.0518
  123OSM    C2S13052   5.408   2.274   6.317 -0.1644 -0.2351  0.3794
  123OSM    H2S13053   5.392   2.167   6.344  0.9667 -0.1503  1.5092
  123OSM    C3S13054   5.560   2.297   6.324  0.5333 -0.3681 -0.4562
  123OSM    H3S13055   5.584   2.383   6.258  0.1841 -0.8619 -1.2426
  123OSM     O313056   5.643   2.188   6.280 -1.1129 -0.1901  0.4979
  123OSM    HO313057   5.583   2.144   6.219 -0.6735 -0.8080  0.5084
  123OSM    C4S13058   5.608   2.319   6.467  0.1125 -0.5924 -0.6281
  123OSM    H4S13059   5.555   2.261   6.544 -0.0932  0.5181  0.0960
  123OSM    C5S13060   5.711   2.389   6.510 -0.2357  0.6604 -0.4255
  123OSM    H5S13061   5.768   2.445   6.434  1.6981  1.5811  1.5831
  123OSM    C6S13062   5.755   2.412   6.654  0.3068 -0.5042  0.2380
  123OSM    H6S13063   5.778   2.521   6.661 -3.0385  0.2735  0.8562
  123OSM    H6T13064   5.845   2.356   6.688  2.0469  2.6682  1.3657
  123OSM    C7S13065   5.638   2.398   6.754 -0.1335 -0.0838 -0.0898
  123OSM    H7S13066   5.605   2.292   6.755  2.4824 -0.9791  1.3625
  123OSM    H7T13067   5.545   2.450   6.722 -1.4847 -1.1795  1.8617
  123OSM    C8S13068   5.686   2.424   6.902  0.1766 -0.0449  0.1660
  123OSM    H8S13069   5.732   2.523   6.878 -0.4912  0.4886  1.0279
  123OSM    H8T13070   5.755   2.344   6.935 -1.9807 -1.3403  1.7935
  123OSM    C9S13071   5.565   2.452   6.991  0.1813  0.3312  0.2794
  123OSM    H9S13072   5.493   2.368   6.997  1.0410 -0.5153 -0.8124
  123OSM    H9T13073   5.510   2.538   6.950  0.6998 -0.2169 -1.6559
  123OSM   C10S13074   5.617   2.499   7.123  0.2755  0.2168 -0.5769
  123OSM   H10S13075   5.541   2.560   7.176 -0.1725 -0.9396  0.1764
  123OSM   H10T13076   5.706   2.565   7.119 -0.7213  1.5729 -1.4097
  123OSM   C11S13077   5.651   2.377   7.208  0.1456 -0.1142 -0.0002
  123OSM   H11S13078   5.735   2.315   7.168  0.3045 -1.2944  2.0363
  123OSM   H11T13079   5.557   2.318   7.203 -0.5262  0.9419 -0.0444
  123OSM   C12S13080   5.677   2.416   7.356  0.7126  0.4042 -0.5783
  123OSM   H12S13081   5.697   2.327   7.420  0.5565  1.9108  1.6636
  123OSM   H12T13082   5.589   2.470   7.396  1.4478 -0.2459  2.1883
  123OSM   C13S13083   5.804   2.511   7.378 -0.2133 -1.0695 -0.4304
  123OSM   H13S13084   5.798   2.599   7.310 -1.7172 -0.4312  0.4832
  123OSM   H13T13085   5.897   2.452   7.365  0.8580  0.4841 -0.1027
  123OSM   C14S13086   5.794   2.574   7.519 -0.7478  0.0116 -0.1083
  123OSM   H14S13087   5.795   2.492   7.594  0.1025 -0.5996 -0.7639
  123OSM   H14T13088   5.701   2.630   7.544  0.6971  2.2298  0.5142
  123OSM   C15S13089   5.908   2.669   7.554  0.2902 -0.4739 -0.0178
  123OSM   H15S13090   5.913   2.759   7.488  0.1552 -1.0961 -0.8947
  123OSM   H15T13091   6.004   2.613   7.548  1.6193  1.3337  2.3858
  123OSM   C16S13092   5.893   2.714   7.696  0.3934 -0.3534 -0.2558
  123OSM   H16S13093   5.862   2.628   7.761  0.2972 -1.1725 -1.3634
  123OSM   H16T13094   5.809   2.787   7.698 -0.1111 -0.9036 -0.9367
  123OSM   C17S13095   6.020   2.764   7.762  0.0085 -0.0122 -0.0123
  123OSM   H17S13096   6.063   2.841   7.694 -0.5043  0.9980  0.7834
  123OSM   H17T13097   6.082   2.672   7.767 -1.2993 -0.8846  0.9002
  123OSM   C18S13098   6.002   2.819   7.901  0.3574  0.1257 -0.0488
  123OSM   H18S13099   5.935   2.908   7.896  1.8902  1.3161 -0.1841
  123OSM   H18T13100   6.102   2.845   7.941  1.7835 -0.1832 -3.1326
  123OSM   H18U13101   5.954   2.741   7.964  0.7577 -1.2856 -1.4567
  123OSM    C1F13102   5.189   2.323   6.419 -0.4004  0.4782 -0.1480
  123OSM     OF13103   5.137   2.233   6.359  0.1268 -0.0067  0.5975
  123OSM    C2F13104   5.114   2.415   6.499  0.4452 -0.3444  0.1225
  123OSM    H2F13105   5.070   2.497   6.438 -2.1643  0.2138  2.5419
  123OSM    H2G13106   5.177   2.469   6.572 -0.0903 -1.2579  1.2799
  123OSM    C3F13107   4.998   2.350   6.587  0.1618 -0.1255  0.3905
  123OSM    H3F13108   4.955   2.267   6.527 -2.0020  1.3695 -0.2811
  123OSM    H3G13109   4.914   2.422   6.600  0.8258  0.8455 -0.4512
  123OSM    C4F13110   5.033   2.289   6.717 -0.4780  0.4061  0.2440
  123OSM    H4F13111   5.118   2.220   6.699 -0.3593  0.1375  1.6855
  123OSM    H4G13112   4.945   2.224   6.739 -0.3979 -0.7426 -2.4596
  123OSM    C5F13113   5.073   2.388   6.831  0.5647 -0.0335  0.7839
  123OSM    H5F13114   4.985   2.452   6.853  0.3070  0.7730 -2.1552
  123OSM    H5G13115   5.155   2.454   6.795  0.1956 -0.1118 -0.2107
  123OSM    C6F13116   5.135   2.325   6.962  0.3241  0.4317  0.5090
  123OSM    H6F13117   5.234   2.292   6.924  0.2753  2.7972 -2.0480
  123OSM    H6G13118   5.071   2.237   6.983  0.2331  0.0984 -1.0050
  123OSM    C7F13119   5.141   2.434   7.063  0.0761  0.1173 -0.1975
  123OSM    H7F13120   5.045   2.489   7.071  0.2646  0.7183 -1.7067
  123OSM    H7G13121   5.213   2.517   7.048 -0.4495  0.9711  1.6686
  123OSM    C8F13122   5.168   2.372   7.201 -0.7514  0.5052  0.1453
  123OSM    H8F13123   5.220   2.274   7.195  0.2169  1.0558 -0.7317
  123OSM    H8G13124   5.066   2.361   7.244 -0.0727 -0.9435  1.5170
  123OSM    C9F13125   5.250   2.454   7.306  0.4776  0.0824  0.3056
  123OSM    H9F13126   5.354   2.468   7.273  0.8668  0.2177  1.5303
  123OSM   C10F13127   5.219   2.504   7.423  0.1832  0.8620 -0.0624
  123OSM   H10F13128   5.301   2.561   7.469  3.3793 -2.5539 -1.0076
  123OSM   C11F13129   5.083   2.494   7.490  0.1991 -0.3319  0.0678
  123OSM   H11F13130   5.005   2.461   7.418 -2.1416  3.0474  0.8179
  123OSM   H11G13131   5.045   2.598   7.494  4.8718  1.6753 -0.3350
  123OSM   C12F13132   5.078   2.413   7.624  0.0087  0.5822 -0.1512
  123OSM   H12F13133   5.104   2.308   7.602  0.3853  0.7276 -0.4078
  123OSM   H12G13134   4.971   2.417   7.654  0.5883  0.8545  2.0516
  123OSM   C13F13135   5.153   2.476   7.738 -0.0549 -1.0410  0.1869
  123OSM   H13F13136   5.131   2.585   7.734  1.5802 -0.6988 -0.4490
  123OSM   H13G13137   5.263   2.465   7.723 -0.0382 -0.1488 -0.4504
  123OSM   C14F13138   5.114   2.413   7.865  0.4830 -0.5592 -0.1593
  123OSM   H14F13139   5.153   2.309   7.875  0.8975 -0.4528 -0.6453
  123OSM   H14G13140   5.003   2.415   7.868  0.4307  0.4157 -1.5898
  123OSM   C15F13141   5.151   2.506   7.988 -0.6872  0.8594 -0.0278
  123OSM   H15F13142   5.111   2.606   7.961 -1.5151  0.0499 -1.9998
  123OSM   H15G13143   5.261   2.515   8.000 -0.2981 -1.0154 -1.6896
  123OSM   C16F13144   5.082   2.467   8.115 -0.3151 -0.4207  0.1198
  123OSM   H16F13145   5.095   2.360   8.140 -0.9559 -0.3327  0.9042
  123OSM   H16G13146   4.972   2.480   8.102 -0.1719  2.4939  1.1029
  123OSM   C17F13147   5.130   2.555   8.233 -0.4217  0.1873  0.0075
  123OSM   H17F13148   5.069   2.648   8.228 -1.6930 -0.6715 -1.2510
  123OSM   H17G13149   5.232   2.597   8.219  0.2873 -0.5360  2.5071
  123OSM   C18F13150   5.133   2.494   8.376 -0.2049  0.6147  0.2538
  123OSM   H18F13151   5.044   2.538   8.425 -0.5504 -0.0868  0.2641
  123OSM   H18G13152   5.222   2.522   8.436  2.1327 -1.6280 -1.8998
  123OSM   H18H13153   5.130   2.384   8.368  0.1904  0.5525  0.8811
  124OSM      N13154   1.879   0.261   6.199  0.7206  0.6882  0.5267
  124OSM    C1513155   1.833   0.165   6.090  0.0080  0.2929 -0.1332
  124OSM   H15A13156   1.786   0.081   6.139  2.0976 -1.5539 -1.1461
  124OSM   H15B13157   1.918   0.122   6.039 -1.3240 -0.6745 -1.6384
  124OSM   H15C13158   1.771   0.218   6.019 -1.9821 -1.0288  0.5488
  124OSM    C1413159   2.002   0.334   6.152 -0.4592 -0.4683  0.4544
  124OSM   H14A13160   1.987   0.375   6.053  0.0676  0.4184  0.7355
  124OSM   H14B13161   2.093   0.275   6.144 -1.4487 -2.3919  2.3247
  124OSM   H14C13162   2.026   0.418   6.216  0.5217 -1.3524  1.3087
  124OSM    C1313163   1.772   0.366   6.227  0.3521  0.4402  0.5023
  124OSM   H13A13164   1.797   0.446   6.294 -1.8780  2.3022 -0.7149
  124OSM   H13B13165   1.689   0.315   6.274 -1.9283  1.6877 -1.8798
  124OSM   H13C13166   1.735   0.412   6.136  0.2879 -1.0160 -0.2479
  124OSM    C1213167   1.908   0.185   6.326 -0.1844  0.1362  0.7273
  124OSM   H12A13168   1.957   0.258   6.389 -0.8141 -0.1025  1.4999
  124OSM   H12B13169   1.981   0.109   6.305 -0.3726  0.7177 -2.5379
  124OSM    C1113170   1.782   0.129   6.404 -0.8877  0.4983  0.1988
  124OSM   H11A13171   1.743   0.221   6.452  0.8397  1.2241  0.2742
  124OSM   H11B13172   1.817   0.075   6.495  0.5206 -0.6670 -0.9872
  124OSM      P13173   1.539   0.073   6.365 -0.0592 -0.3035 -0.2105
  124OSM    O1313174   1.505   0.215   6.353  0.3572 -0.5193  0.2616
  124OSM    O1413175   1.462  -0.022   6.286 -0.1203 -0.4479  0.6248
  124OSM    O1113176   1.520   0.025   6.512 -0.3434  0.4736  0.6444
  124OSM    O1213177   1.688   0.050   6.326  0.2272 -0.0043 -0.0901
  124OSM    C1S13178   1.589  -0.084   6.571  0.3179 -0.1067  0.7169
  124OSM    H1S13179   1.670  -0.115   6.502 -0.3801  0.6509 -0.4900
  124OSM    H1T13180   1.529  -0.176   6.588 -0.8719  0.0863 -1.9703
  124OSM     NF13181   1.728  -0.150   6.761  0.5738  0.0155  0.4879
  124OSM    HNF13182   1.675  -0.214   6.816 -0.2431  0.4782  0.2534
  124OSM    C2S13183   1.651  -0.039   6.710 -0.1265  0.3199 -0.2658
  124OSM    H2S13184   1.725   0.044   6.705 -0.6385  0.8641  0.7541
  124OSM    C3S13185   1.540   0.012   6.807 -0.2216  0.6796 -0.2072
  124OSM    H3S13186   1.444  -0.044   6.806  0.2556 -0.1798  0.9911
  124OSM     O313187   1.491   0.138   6.771  0.4946  0.0486 -0.1144
  124OSM    HO313188   1.525   0.160   6.684 -0.3626 -0.2398 -0.5227
  124OSM    C4S13189   1.588   0.021   6.957 -0.9255  0.2153  0.4942
  124OSM    H4S13190   1.655   0.105   6.980  1.7180 -1.5663 -0.1810
  124OSM    C5S13191   1.539  -0.046   7.058  0.2150  0.7229 -0.4565
  124OSM    H5S13192   1.459  -0.119   7.037  0.8537 -0.5324  1.2012
  124OSM    C6S13193   1.580  -0.050   7.205 -0.6148  0.0751 -0.3993
  124OSM    H6S13194   1.513   0.010   7.270  1.1828  1.3308  0.3820
  124OSM    H6T13195   1.675   0.007   7.217 -1.4632  1.6881 -0.9523
  124OSM    C7S13196   1.602  -0.187   7.265 -0.2362 -0.6229  0.8954
  124OSM    H7S13197   1.680  -0.178   7.344 -0.5661  2.9928  0.9637
  124OSM    H7T13198   1.642  -0.261   7.192 -0.7464  0.2199 -0.2688
  124OSM    C8S13199   1.473  -0.232   7.332  0.4653  0.3537 -0.3202
  124OSM    H8S13200   1.394  -0.232   7.254  1.0826 -1.9461 -1.0197
  124OSM    H8T13201   1.436  -0.156   7.405  2.2122  1.1758 -0.2504
  124OSM    C9S13202   1.475  -0.372   7.391 -0.5320 -0.2525 -0.7054
  124OSM    H9S13203   1.554  -0.367   7.469 -0.4373 -2.3709 -0.5994
  124OSM    H9T13204   1.523  -0.434   7.312  1.3520  1.0658 -0.6772
  124OSM   C10S13205   1.338  -0.425   7.446  0.1640  0.2446 -0.1105
  124OSM   H10S13206   1.350  -0.530   7.481 -0.1210 -0.0713 -0.9285
  124OSM   H10T13207   1.270  -0.433   7.359 -0.9685 -2.5506  0.9328
  124OSM   C11S13208   1.273  -0.340   7.553  0.4230 -0.9337  0.0678
  124OSM   H11S13209   1.171  -0.381   7.565 -0.6892  1.8235  0.6440
  124OSM   H11T13210   1.263  -0.236   7.515  3.7063 -0.9435 -1.1543
  124OSM   C12S13211   1.338  -0.346   7.693 -1.2458  0.4343 -0.0773
  124OSM   H12S13212   1.296  -0.264   7.756  0.9703  0.9932  0.7741
  124OSM   H12T13213   1.445  -0.323   7.669 -1.0181  0.0229  0.5205
  124OSM   C13S13214   1.314  -0.480   7.767  0.3146  0.0221 -0.4325
  124OSM   H13S13215   1.357  -0.567   7.714  0.1371 -0.5295  0.3183
  124OSM   H13T13216   1.203  -0.487   7.775  0.2057  2.2288  0.8750
  124OSM   C14S13217   1.368  -0.470   7.904 -0.3833  0.0956 -0.2191
  124OSM   H14S13218   1.355  -0.367   7.942  1.5657 -0.2600  1.6406
  124OSM   H14T13219   1.475  -0.499   7.901 -0.4880 -0.3205 -0.0679
  124OSM   C15S13220   1.277  -0.537   8.007  0.3602  0.5841 -0.2197
  124OSM   H15S13221   1.280  -0.646   7.984  0.4563  0.1200  1.7475
  124OSM   H15T13222   1.172  -0.502   8.011  0.2072  0.0590  1.6535
  124OSM   C16S13223   1.342  -0.519   8.142 -0.0119  0.0577 -0.1921
  124OSM   H16S13224   1.389  -0.418   8.139  1.1695 -0.2936  2.8603
  124OSM   H16T13225   1.426  -0.590   8.157  0.4434 -0.4065 -3.9482
  124OSM   C17S13226   1.229  -0.520   8.245  0.1238  0.3061 -1.0935
  124OSM   H17S13227   1.178  -0.618   8.232 -1.2081  0.6420  1.0088
  124OSM   H17T13228   1.159  -0.440   8.211 -1.5974  0.0765  1.5602
  124OSM   C18S13229   1.254  -0.501   8.394 -0.0341 -0.1099  0.0629
  124OSM   H18S13230   1.319  -0.412   8.405  1.0805 -1.0092  1.0013
  124OSM   H18T13231   1.314  -0.584   8.437  0.0530 -0.0740  0.0113
  124OSM   H18U13232   1.161  -0.497   8.454  0.6213 -0.6750  1.1531
  124OSM    C1F13233   1.835  -0.202   6.701  0.2092  0.1400 -0.7304
  124OSM     OF13234   1.891  -0.152   6.612 -0.0412 -0.6351 -0.2760
  124OSM    C2F13235   1.878  -0.341   6.748 -0.0468  0.2539  0.2176
  124OSM    H2F13236   1.923  -0.402   6.667 -1.6518 -1.2391  0.3874
  124OSM    H2G13237   1.787  -0.401   6.770 -0.6421 -0.8254 -4.3128
  124OSM    C3F13238   1.982  -0.340   6.865  0.0358  0.2771 -0.5674
  124OSM    H3F13239   2.077  -0.296   6.828  1.0676 -1.6666 -0.3058
  124OSM    H3G13240   2.024  -0.437   6.896  4.2016  1.6774 -1.2688
  124OSM    C4F13241   1.935  -0.262   6.990  0.3161 -0.2473 -0.2956
  124OSM    H4F13242   1.829  -0.280   7.018  1.2023 -1.1994  2.8293
  124OSM    H4G13243   1.936  -0.158   6.952 -2.4762  0.4695  1.3277
  124OSM    C5F13244   2.035  -0.278   7.106  0.3648  0.6902  1.1352
  124OSM    H5F13245   2.144  -0.270   7.086  0.2157 -0.1463 -0.2008
  124OSM    H5G13246   2.018  -0.386   7.122  1.5059  0.1973 -0.6585
  124OSM    C6F13247   2.006  -0.193   7.219 -0.0174 -0.3767  1.1806
  124OSM    H6F13248   1.896  -0.192   7.233 -0.6208 -3.0845 -2.0605
  124OSM    H6G13249   2.046  -0.095   7.184  0.0496 -0.5928  0.6322
  124OSM    C7F13250   2.092  -0.225   7.341  0.6315  0.2821  0.7624
  124OSM    H7F13251   2.199  -0.213   7.314  0.8148  0.1316  1.4049
  124OSM    H7G13252   2.078  -0.330   7.373  1.2182 -0.5683 -1.5746
  124OSM    C8F13253   2.069  -0.122   7.460  0.2392 -0.1393  0.7444
  124OSM    H8F13254   1.960  -0.120   7.479 -0.2666 -1.0231 -1.6934
  124OSM    H8G13255   2.101  -0.019   7.432  1.0673 -0.2795  1.1379
  124OSM    C9F13256   2.140  -0.166   7.591  0.4132 -0.5528  0.6596
  124OSM    H9F13257   2.250  -0.166   7.596  0.4692 -0.8470 -0.3959
  124OSM   C10F13258   2.084  -0.191   7.705  0.4631 -0.1520 -0.0418
  124OSM   H10F13259   2.147  -0.220   7.791 -1.2673 -1.4767  0.8294
  124OSM   C11F13260   1.940  -0.198   7.738 -0.6208 -0.1157  1.0748
  124OSM   H11F13261   1.901  -0.301   7.719  1.0306 -0.6666  0.5448
  124OSM   H11G13262   1.891  -0.130   7.665 -0.0218  0.5135  1.2498
  124OSM   C12F13263   1.911  -0.143   7.872  0.1811 -0.0130  0.4366
  124OSM   H12F13264   1.805  -0.111   7.876  0.1962 -0.0027  0.8450
  124OSM   H12G13265   1.970  -0.051   7.893  0.4071  0.0415 -0.4140
  124OSM   C13F13266   1.944  -0.250   7.989  0.5511  0.0318  0.2001
  124OSM   H13F13267   2.050  -0.283   7.987  1.5932  3.1480 -0.7396
  124OSM   H13G13268   1.892  -0.347   7.971  1.6848 -1.1433  2.7857
  124OSM   C14F13269   1.898  -0.195   8.127  0.3278 -0.4535 -0.2357
  124OSM   H14F13270   1.791  -0.170   8.115  0.1344 -1.5998 -1.0177
  124OSM   H14G13271   1.956  -0.106   8.162 -1.1281  0.0418  0.9984
  124OSM   C15F13272   1.912  -0.297   8.241  0.4764 -0.0903  0.2985
  124OSM   H15F13273   1.920  -0.245   8.338 -2.3617 -0.2744  0.7145
  124OSM   H15G13274   2.010  -0.349   8.240  0.5724  0.0504  1.3365
  124OSM   C16F13275   1.794  -0.402   8.247  0.4243 -0.4224 -0.7184
  124OSM   H16F13276   1.839  -0.489   8.300 -0.8356  0.4336  1.9570
  124OSM   H16G13277   1.755  -0.432   8.148  1.3593  1.3090 -1.6550
  124OSM   C17F13278   1.668  -0.366   8.326 -0.1770  0.3701  0.6446
  124OSM   H17F13279   1.595  -0.325   8.254  1.9432  0.3231 -1.6650
  124OSM   H17G13280   1.696  -0.281   8.392  0.9585 -1.7007  3.0080
  124OSM   C18F13281   1.619  -0.478   8.406  0.9131  0.4371  0.1911
  124OSM   H18F13282   1.576  -0.561   8.346 -1.8979 -0.2319  2.8420
  124OSM   H18G13283   1.538  -0.445   8.475  0.3837  1.3348 -0.8241
  124OSM   H18H13284   1.696  -0.531   8.466 -0.9962 -2.2190  0.4591
  125OSM      N13285   0.719   0.619   6.490 -0.2089 -0.5017  0.9938
  125OSM    C1513286   0.624   0.689   6.590  0.3607 -0.0762 -0.4524
  125OSM   H15A13287   0.663   0.785   6.622  0.9589 -0.9618  1.6195
  125OSM   H15B13288   0.620   0.635   6.683  0.2182  0.4699 -0.1335
  125OSM   H15C13289   0.530   0.710   6.541 -1.3653 -0.4106  2.5058
  125OSM    C1413290   0.649   0.491   6.468 -0.1704  0.0731 -0.6996
  125OSM   H14A13291   0.546   0.516   6.487  1.2835  4.5808  3.1039
  125OSM   H14B13292   0.686   0.419   6.540 -0.7313 -0.1969 -0.6761
  125OSM   H14C13293   0.674   0.464   6.367  0.6890  1.0677 -0.7740
  125OSM    C1313294   0.705   0.681   6.353 -0.3510 -0.6330 -0.0346
  125OSM   H13A13295   0.763   0.612   6.293  0.1980 -0.2087  0.0037
  125OSM   H13B13296   0.735   0.783   6.332  0.3241 -1.0144 -1.0221
  125OSM   H13C13297   0.603   0.665   6.320 -0.3196 -0.4711 -0.2153
  125OSM    C1213298   0.868   0.615   6.526 -0.3153 -0.5814  0.0572
  125OSM   H12A13299   0.931   0.576   6.448  0.1089  0.9646 -0.4120
  125OSM   H12B13300   0.875   0.557   6.617  0.1410 -1.8866 -0.7703
  125OSM    C1113301   0.936   0.752   6.558  0.1905  0.6443 -0.2306
  125OSM   H11A13302   1.035   0.738   6.606  0.4524  0.3319 -0.8460
  125OSM   H11B13303   0.867   0.803   6.629 -1.2669 -0.2105 -0.9703
  125OSM      P13304   1.067   0.816   6.331 -0.3114  0.5154  0.2045
  125OSM    O1313305   1.091   0.670   6.320  0.4636  0.3232  0.1369
  125OSM    O1413306   1.021   0.886   6.213  0.2284 -0.3759  0.0517
  125OSM    O1113307   1.186   0.892   6.414 -0.1238  0.8713 -0.0594
  125OSM    O1213308   0.949   0.827   6.438  0.4447 -0.0050  0.2556
  125OSM    C1S13309   1.171   1.020   6.480 -0.2448  0.1350 -0.2792
  125OSM    H1S13310   1.071   1.065   6.467 -0.2691  0.1088 -0.1869
  125OSM    H1T13311   1.247   1.093   6.444  0.2430  0.4592  1.3281
  125OSM     NF13312   1.158   1.147   6.686 -0.4524 -0.0833  0.2464
  125OSM    HNF13313   1.235   1.206   6.707 -0.1488  1.3243 -3.8924
  125OSM    C2S13314   1.193   1.016   6.634 -0.2857 -0.3186 -0.1670
  125OSM    H2S13315   1.118   0.948   6.680  0.5923 -0.4534  1.1271
  125OSM    C3S13316   1.339   0.977   6.674  0.3320 -0.1042  0.2216
  125OSM    H3S13317   1.408   1.054   6.632 -0.2220  0.5353  0.4678
  125OSM     O313318   1.396   0.864   6.601  0.1162 -0.2135  0.0289
  125OSM    HO313319   1.335   0.834   6.534  2.3135 -0.3054 -2.0578
  125OSM    C4S13320   1.361   0.964   6.822  0.6054  0.5113  0.2269
  125OSM    H4S13321   1.286   0.894   6.861  1.5602 -0.4721  0.3349
  125OSM    C5S13322   1.446   1.022   6.915  0.1338 -0.0119 -0.4685
  125OSM    H5S13323   1.518   1.099   6.886  0.8844 -0.7091 -0.4873
  125OSM    C6S13324   1.434   0.992   7.064  0.2612 -0.2809 -0.6941
  125OSM    H6S13325   1.521   1.025   7.124  1.7121 -1.7559 -1.8625
  125OSM    H6T13326   1.441   0.882   7.074  1.3352 -0.3025 -1.4481
  125OSM    C7S13327   1.305   1.050   7.118 -0.0948 -0.0845 -0.8286
  125OSM    H7S13328   1.219   1.033   7.049 -0.9895  2.0180 -0.3128
  125OSM    H7T13329   1.314   1.158   7.142 -0.3256 -0.7019  2.5508
  125OSM    C8S13330   1.266   0.983   7.264  0.3733 -0.0728  0.0460
  125OSM    H8S13331   1.290   0.874   7.256  1.6357  0.1715  0.3011
  125OSM    H8T13332   1.157   0.992   7.278  0.0701  2.4531 -2.9720
  125OSM    C9S13333   1.339   1.031   7.388 -0.3783  0.9055  0.0342
  125OSM    H9S13334   1.335   1.139   7.415  1.3053 -0.0203  4.9602
  125OSM    H9T13335   1.445   1.017   7.358 -0.3934 -0.7287  0.6787
  125OSM   C10S13336   1.314   0.956   7.526 -0.4997 -0.1874  0.4618
  125OSM   H10S13337   1.351   0.853   7.507  1.0087  0.6792 -1.7542
  125OSM   H10T13338   1.206   0.956   7.552 -0.9909  1.3793 -1.3954
  125OSM   C11S13339   1.382   1.028   7.646 -0.1250  0.4769  0.1773
  125OSM   H11S13340   1.358   1.137   7.647  0.4884  0.7039 -2.2890
  125OSM   H11T13341   1.492   1.028   7.630 -0.0862  1.6004  0.3574
  125OSM   C12S13342   1.326   0.963   7.767  0.6985 -0.4719 -1.3847
  125OSM   H12S13343   1.379   0.867   7.783  0.2934 -0.7736 -1.8214
  125OSM   H12T13344   1.216   0.945   7.770  0.7869 -0.8178  0.9107
  125OSM   C13S13345   1.363   1.045   7.887 -0.5025  0.0708  0.1531
  125OSM   H13S13346   1.326   1.150   7.886 -0.1058  0.2205 -1.1434
  125OSM   H13T13347   1.472   1.064   7.874 -0.8287  2.0250 -0.0538
  125OSM   C14S13348   1.328   0.978   8.019 -0.4118 -0.9296  0.1508
  125OSM   H14S13349   1.406   1.009   8.091 -0.2221 -2.2814  0.5502
  125OSM   H14T13350   1.344   0.868   8.017 -3.4371 -1.6165  3.3853
  125OSM   C15S13351   1.194   1.022   8.075  0.3520  0.3532 -0.3398
  125OSM   H15S13352   1.121   0.955   8.025  4.1896 -2.7008 -2.4593
  125OSM   H15T13353   1.167   1.127   8.050 -0.4555 -0.7140 -4.9116
  125OSM   C16S13354   1.169   1.018   8.234 -0.4728  0.2332 -0.4569
  125OSM   H16S13355   1.230   1.092   8.290  1.1228 -0.4891 -1.1595
  125OSM   H16T13356   1.198   0.914   8.260 -2.4560 -0.3262 -0.3313
  125OSM   C17S13357   1.023   1.020   8.292  0.0536 -0.0029 -0.3894
  125OSM   H17S13358   0.969   0.930   8.253 -1.3558 -0.5826  2.6280
  125OSM   H17T13359   0.970   1.114   8.265  1.4462  0.5650 -1.2529
  125OSM   C18S13360   1.022   1.018   8.441  0.6255 -0.4770  0.2936
  125OSM   H18S13361   1.058   1.112   8.486  1.0973  0.6028 -2.1550
  125OSM   H18T13362   1.082   0.932   8.479  0.0205 -0.9896  0.1033
  125OSM   H18U13363   0.923   1.005   8.488  1.6284 -0.0741  2.6254
  125OSM    C1F13364   1.033   1.191   6.693  0.3803 -0.4898 -0.9486
  125OSM     OF13365   0.934   1.120   6.673 -0.4872  0.8755 -0.3431
  125OSM    C2F13366   1.007   1.336   6.727  0.0965 -0.7513  0.1919
  125OSM    H2F13367   0.984   1.383   6.630  1.7553 -0.2309  0.0207
  125OSM    H2G13368   1.093   1.395   6.766  1.0317 -1.4259 -0.8200
  125OSM    C3F13369   0.890   1.362   6.823 -0.1833 -0.0495 -0.0525
  125OSM    H3F13370   0.918   1.342   6.928 -0.3617  2.4005  0.5177
  125OSM    H3G13371   0.803   1.294   6.808 -1.2108  1.2638 -0.1763
  125OSM    C4F13372   0.839   1.508   6.836  0.2512  0.1453  0.1233
  125OSM    H4F13373   0.766   1.525   6.754 -0.4554  0.4245  0.7971
  125OSM    H4G13374   0.926   1.575   6.826  0.6845 -0.0416  2.1539
  125OSM    C5F13375   0.757   1.528   6.964 -0.0582 -0.0039  0.1348
  125OSM    H5F13376   0.812   1.499   7.057 -1.0018  0.3232  0.8174
  125OSM    H5G13377   0.664   1.466   6.960  0.1355 -0.2990  0.1758
  125OSM    C6F13378   0.728   1.675   6.989 -0.1218 -0.1538  0.3902
  125OSM    H6F13379   0.820   1.736   6.999 -0.2477 -0.0643  1.0037
  125OSM    H6G13380   0.686   1.684   7.091  1.6165  0.3887  1.0999
  125OSM    C7F13381   0.637   1.740   6.884 -0.2643 -1.0706  0.5662
  125OSM    H7F13382   0.544   1.680   6.872  0.9498 -3.0879  0.7581
  125OSM    H7G13383   0.688   1.726   6.786 -2.9493 -1.0338 -0.9432
  125OSM    C8F13384   0.600   1.893   6.906 -0.2696  0.2259 -0.0090
  125OSM    H8F13385   0.558   1.888   7.009  0.0982 -2.3953  0.0636
  125OSM    H8G13386   0.522   1.918   6.831  0.0629  0.5260 -0.2629
  125OSM    C9F13387   0.725   1.978   6.887 -0.3621 -0.5831  0.2636
  125OSM    H9F13388   0.794   1.942   6.809 -0.3468  2.6290 -1.3563
  125OSM   C10F13389   0.770   2.074   6.968 -0.5064  0.0125 -0.1078
  125OSM   H10F13390   0.873   2.108   6.947  0.4834 -2.4821  0.3144
  125OSM   C11F13391   0.707   2.130   7.094  0.2493  0.6838  0.2825
  125OSM   H11F13392   0.600   2.157   7.080  0.1727  1.2903  1.8153
  125OSM   H11G13393   0.759   2.224   7.123 -0.1360  1.9416 -2.7349
  125OSM   C12F13394   0.723   2.025   7.206 -0.7738 -0.1027  0.3599
  125OSM   H12F13395   0.681   1.923   7.189  3.3915 -2.0850  0.8938
  125OSM   H12G13396   0.657   2.060   7.289 -2.3279 -3.1523  0.5758
  125OSM   C13F13397   0.867   2.008   7.261  0.5032 -0.5953  0.1330
  125OSM   H13F13398   0.915   2.100   7.302 -2.6119  1.0121  0.4510
  125OSM   H13G13399   0.935   1.974   7.179 -1.1221 -0.6853 -1.2407
  125OSM   C14F13400   0.879   1.909   7.378  0.3395  0.0611  0.4975
  125OSM   H14F13401   0.971   1.851   7.359 -0.7609 -0.9820 -2.0517
  125OSM   H14G13402   0.794   1.838   7.367 -0.8998  1.7008 -1.2941
  125OSM   C15F13403   0.874   1.972   7.522  0.0462 -0.4827  0.6453
  125OSM   H15F13404   0.774   2.018   7.529 -0.3005 -0.9915 -0.5608
  125OSM   H15G13405   0.958   2.045   7.531  0.6177 -0.9395 -0.6141
  125OSM   C16F13406   0.895   1.865   7.631  0.7813 -0.0224  0.2310
  125OSM   H16F13407   0.926   1.918   7.724 -1.5430  1.0417  0.4445
  125OSM   H16G13408   0.970   1.788   7.603 -1.1550 -2.6263  1.7990
  125OSM   C17F13409   0.769   1.785   7.672 -0.2161 -0.1396 -0.4459
  125OSM   H17F13410   0.740   1.721   7.585  1.5923  0.9806 -1.9628
  125OSM   H17G13411   0.688   1.859   7.685  1.5981  1.8475  0.0519
  125OSM   C18F13412   0.785   1.698   7.801 -0.5506 -0.4876  0.1731
  125OSM   H18F13413   0.734   1.600   7.797 -0.4491 -0.5562  0.5180
  125OSM   H18G13414   0.740   1.743   7.892  0.0206 -0.1340  0.2839
  125OSM   H18H13415   0.891   1.669   7.820 -0.0324  0.4721 -1.0538
  126OSM      N13416   5.948   6.448   6.503  0.2715  0.4201  0.3411
  126OSM    C1513417   5.899   6.415   6.637 -0.2465  0.0105  0.2811
  126OSM   H15A13418   5.863   6.313   6.634  0.1555 -0.1253 -0.0834
  126OSM   H15B13419   5.815   6.478   6.663 -0.1471  1.4262 -2.4988
  126OSM   H15C13420   5.981   6.428   6.706 -1.3316  1.7655  1.3220
  126OSM    C1413421   5.957   6.593   6.498 -0.5380 -0.5828  0.0971
  126OSM   H14A13422   5.992   6.644   6.587  1.7656 -0.3112 -0.8746
  126OSM   H14B13423   5.864   6.635   6.462 -0.9238 -0.2027  1.4794
  126OSM   H14C13424   6.026   6.621   6.420 -0.6528 -0.8333 -0.0922
  126OSM    C1313425   6.092   6.390   6.489  0.4473 -0.1887  0.4105
  126OSM   H13A13426   6.087   6.285   6.514  0.1883 -0.2104  0.2740
  126OSM   H13B13427   6.164   6.427   6.560  0.6171  3.0653 -1.2436
  126OSM   H13C13428   6.131   6.411   6.390  1.1879 -1.5934  0.3805
  126OSM    C1213429   5.861   6.385   6.395  0.2797 -0.1657  0.0705
  126OSM   H12A13430   5.885   6.434   6.302  1.6387  2.6344  1.7624
  126OSM   H12B13431   5.758   6.401   6.426  0.3653  3.9552 -1.1180
  126OSM    C1113432   5.884   6.238   6.359  0.3787 -0.2070  0.0688
  126OSM   H11A13433   5.984   6.226   6.311  1.2923  0.8589  1.6158
  126OSM   H11B13434   5.817   6.224   6.271  0.0711  1.1413  0.0543
  126OSM      P13435   5.727   6.091   6.503 -0.1637 -0.1861  0.1070
  126OSM    O1313436   5.630   6.204   6.487  0.1428 -0.4437 -0.2003
  126OSM    O1413437   5.712   5.981   6.410 -0.0002  0.1841  0.6403
  126OSM    O1113438   5.729   6.042   6.649  0.7562 -0.3156 -0.3619
  126OSM    O1213439   5.873   6.151   6.471  0.1183 -0.3405 -0.3744
  126OSM    C1S13440   5.843   6.034   6.734 -0.3617  0.2231 -0.0784
  126OSM    H1S13441   5.911   6.120   6.719  1.9093 -1.2276  1.2815
  126OSM    H1T13442   5.904   5.943   6.711  2.0364  0.8014  3.2713
  126OSM     NF13443   5.932   6.026   6.959 -0.2259 -0.3201  0.3962
  126OSM    HNF13444   5.948   5.941   7.008 -0.3607 -2.4315 -2.8934
  126OSM    C2S13445   5.810   6.023   6.885 -0.8277  0.4414 -0.2308
  126OSM    H2S13446   5.747   6.111   6.912  0.1169  0.5848  1.6423
  126OSM    C3S13447   5.716   5.902   6.908 -0.8907  0.2284 -0.3340
  126OSM    H3S13448   5.762   5.804   6.886  0.2303  1.0334 -1.7804
  126OSM     O313449   5.590   5.898   6.837  0.3374  0.5096 -0.0922
  126OSM    HO313450   5.607   5.944   6.755  0.4834  0.9541  0.1820
  126OSM    C4S13451   5.707   5.885   7.056  0.2748 -0.4382 -0.1710
  126OSM    H4S13452   5.805   5.867   7.103  0.4093 -0.5288 -0.4808
  126OSM    C5S13453   5.611   5.915   7.144  0.0043  0.0423  0.6936
  126OSM    H5S13454   5.522   5.966   7.103  0.4952 -0.0084 -0.4925
  126OSM    C6S13455   5.617   5.884   7.295  0.3036  0.3750  0.0796
  126OSM    H6S13456   5.707   5.819   7.305  1.5952  2.1332  0.4037
  126OSM    H6T13457   5.530   5.829   7.337  0.6592 -0.8745 -0.7594
  126OSM    C7S13458   5.638   5.996   7.395  0.2382 -0.4672  0.3517
  126OSM    H7S13459   5.551   6.066   7.394  0.8619  0.3668 -2.0129
  126OSM    H7T13460   5.722   6.058   7.357  1.1710 -0.6734  2.0033
  126OSM    C8S13461   5.675   5.922   7.529 -0.4281  0.4225  0.5686
  126OSM    H8S13462   5.766   5.863   7.504  1.6393  4.6453 -3.0928
  126OSM    H8T13463   5.603   5.839   7.548  1.1836 -1.1950 -0.0328
  126OSM    C9S13464   5.701   6.015   7.648  0.0098  0.1703  0.9295
  126OSM    H9S13465   5.607   6.072   7.666 -1.5523 -2.1948  0.7340
  126OSM    H9T13466   5.783   6.080   7.612 -0.5917  0.4286 -0.0347
  126OSM   C10S13467   5.734   5.938   7.780  0.0821  1.2387 -0.2219
  126OSM   H10S13468   5.765   5.833   7.764 -0.4269  1.0434  0.0431
  126OSM   H10T13469   5.642   5.916   7.839  1.5162 -0.5899  1.4623
  126OSM   C11S13470   5.832   6.013   7.870  0.2406 -0.1756 -0.1089
  126OSM   H11S13471   5.813   6.120   7.849  0.4910 -0.1124 -0.0181
  126OSM   H11T13472   5.935   5.996   7.831  0.8336  0.5511  1.0722
  126OSM   C12S13473   5.820   5.973   8.015  0.1679  0.2260  0.3133
  126OSM   H12S13474   5.828   5.864   8.035 -0.0149 -0.0925 -1.2070
  126OSM   H12T13475   5.723   6.003   8.060  0.3563  2.3276 -0.5571
  126OSM   C13S13476   5.923   6.050   8.096 -0.4178  0.4877 -0.9278
  126OSM   H13S13477   5.905   6.160   8.089 -3.3283  0.2289  0.9248
  126OSM   H13T13478   6.024   6.021   8.059 -0.4672 -0.0461 -0.6563
  126OSM   C14S13479   5.922   6.029   8.252  0.1548  0.0129 -0.2453
  126OSM   H14S13480   5.942   5.923   8.275  1.0085 -0.1461 -1.5515
  126OSM   H14T13481   5.829   6.072   8.295  0.0303  1.8356 -2.1397
  126OSM   C15S13482   6.043   6.098   8.318  0.3354 -0.6018  0.1592
  126OSM   H15S13483   6.068   6.191   8.262  2.7781 -2.3204 -1.8274
  126OSM   H15T13484   6.130   6.029   8.311  2.6182  2.1914 -0.9384
  126OSM   C16S13485   6.038   6.129   8.468 -0.1713  0.9604  0.0678
  126OSM   H16S13486   6.140   6.165   8.491  0.1816 -0.0368  0.1155
  126OSM   H16T13487   6.012   6.033   8.519  1.8283 -1.1451 -2.6203
  126OSM   C17S13488   5.933   6.233   8.507 -0.5716  0.5725  0.0801
  126OSM   H17S13489   5.832   6.212   8.465  0.0271 -0.7565 -0.7775
  126OSM   H17T13490   5.974   6.327   8.466  3.3461 -1.8269 -2.0856
  126OSM   C18S13491   5.909   6.242   8.663 -0.5951  0.2144  0.0392
  126OSM   H18S13492   5.829   6.318   8.671  0.7686  1.8905 -1.4203
  126OSM   H18T13493   5.993   6.293   8.715 -1.0865  1.9199 -0.7746
  126OSM   H18U13494   5.881   6.145   8.711 -1.4526  0.3220 -0.2357
  126OSM    C1F13495   6.009   6.134   6.971 -0.5056 -0.6098 -0.1721
  126OSM     OF13496   5.990   6.232   6.903 -0.4365 -0.0043  0.2026
  126OSM    C2F13497   6.124   6.127   7.064 -0.1182 -0.2483  0.3938
  126OSM    H2F13498   6.217   6.119   7.003  1.5552 -3.1083  3.0341
  126OSM    H2G13499   6.127   6.031   7.119 -1.6083 -0.6086 -0.1016
  126OSM    C3F13500   6.133   6.248   7.149  0.2939 -0.4790  0.0556
  126OSM    H3F13501   6.032   6.265   7.191  1.0352  1.4186  1.1957
  126OSM    H3G13502   6.161   6.345   7.102  0.9016 -0.7663 -0.1908
  126OSM    C4F13503   6.230   6.236   7.264  0.2531  0.4919 -0.1921
  126OSM    H4F13504   6.328   6.213   7.216 -0.7799 -1.9188 -1.3465
  126OSM    H4G13505   6.191   6.164   7.338  0.5258 -0.9575 -1.3961
  126OSM    C5F13506   6.263   6.365   7.347  0.3521 -0.3471 -0.1173
  126OSM    H5F13507   6.286   6.446   7.274 -1.5137  1.5011  1.2090
  126OSM    H5G13508   6.346   6.348   7.419  1.1833 -0.5102 -1.0915
  126OSM    C6F13509   6.129   6.406   7.425 -0.6210  0.3176  0.2075
  126OSM    H6F13510   6.102   6.321   7.491 -1.0627  0.0967 -0.2502
  126OSM    H6G13511   6.052   6.414   7.345 -1.0115  1.8187  0.7158
  126OSM    C7F13512   6.158   6.537   7.495  0.6461  0.1199 -0.3713
  126OSM    H7F13513   6.057   6.578   7.516 -0.1406 -1.2086 -1.3729
  126OSM    H7G13514   6.207   6.597   7.415  1.2311 -1.2417 -1.0693
  126OSM    C8F13515   6.244   6.523   7.625 -1.1095  0.2685  0.2524
  126OSM    H8F13516   6.342   6.476   7.605 -0.8158  0.3986  1.3151
  126OSM    H8G13517   6.202   6.446   7.693 -0.4148  0.1408  0.5451
  126OSM    C9F13518   6.261   6.655   7.693  0.6365  0.3030 -0.3653
  126OSM    H9F13519   6.354   6.702   7.658  1.3500 -0.6893  0.1353
  126OSM   C10F13520   6.176   6.713   7.781 -0.1806  0.2999  0.6661
  126OSM   H10F13521   6.198   6.817   7.809 -0.9290  0.9929 -1.1351
  126OSM   C11F13522   6.048   6.649   7.818 -0.1970 -0.5991  0.5674
  126OSM   H11F13523   6.051   6.541   7.793 -2.6991 -1.0925  2.0282
  126OSM   H11G13524   5.964   6.681   7.753  3.0854  1.0482 -3.2900
  126OSM   C12F13525   6.006   6.660   7.969  0.7106 -0.3439 -0.6042
  126OSM   H12F13526   6.100   6.647   8.028  0.3503 -2.6528 -0.4650
  126OSM   H12G13527   5.923   6.589   7.988  0.7410  0.0839  1.4082
  126OSM   C13F13528   5.949   6.799   8.008 -0.1305  0.4820 -0.2948
  126OSM   H13F13529   5.863   6.822   7.940 -0.5280  0.5726  0.2337
  126OSM   H13G13530   6.020   6.884   8.004  1.5613 -0.8122  0.8716
  126OSM   C14F13531   5.892   6.808   8.147  0.0688 -0.2408 -1.1350
  126OSM   H14F13532   5.974   6.798   8.220  0.0140  0.5848 -0.9554
  126OSM   H14G13533   5.818   6.727   8.168  0.4620 -0.2699  0.2055
  126OSM   C15F13534   5.811   6.936   8.171 -0.6563 -0.1746  0.1084
  126OSM   H15F13535   5.713   6.942   8.120 -0.8199 -0.8332  0.3350
  126OSM   H15G13536   5.869   7.018   8.124  0.1500 -0.5221  0.4732
  126OSM   C16F13537   5.784   6.959   8.325 -0.3530  0.1757 -0.3324
  126OSM   H16F13538   5.879   6.955   8.383 -0.4575  1.6642 -0.0105
  126OSM   H16G13539   5.724   6.875   8.365 -0.5940  0.5883  0.1790
  126OSM   C17F13540   5.729   7.095   8.359  0.1394  0.1570 -0.1730
  126OSM   H17F13541   5.637   7.106   8.298  0.4529 -1.3702 -0.9757
  126OSM   H17G13542   5.806   7.171   8.331  0.6176 -0.6566 -1.1410
  126OSM   C18F13543   5.691   7.112   8.506 -0.6120  0.1844 -0.2956
  126OSM   H18F13544   5.671   7.218   8.534 -2.1982 -0.4149  1.0342
  126OSM   H18G13545   5.768   7.051   8.557  1.1400  1.5411 -1.2015
  126OSM   H18H13546   5.592   7.068   8.529 -0.1258 -0.1039  1.4111
  127OSM      N13547   6.752   0.817   6.173  0.6134 -0.2399 -0.3372
  127OSM    C1513548   6.717   0.680   6.147 -0.1835 -0.1288 -0.2815
  127OSM   H15A13549   6.763   0.619   6.223  0.5907  1.5877  0.6763
  127OSM   H15B13550   6.732   0.627   6.054 -1.7299 -1.3445  0.1072
  127OSM   H15C13551   6.609   0.677   6.143 -0.1829 -1.0733 -0.0129
  127OSM    C1413552   6.893   0.833   6.172 -0.2881  0.0214 -0.1597
  127OSM   H14A13553   6.953   0.771   6.237 -0.1259 -0.5972 -0.8770
  127OSM   H14B13554   6.915   0.938   6.183 -2.1383  0.5485 -1.0621
  127OSM   H14C13555   6.925   0.808   6.072 -0.2659  0.0503 -0.1600
  127OSM    C1313556   6.692   0.897   6.058 -0.1390 -0.0717 -0.3779
  127OSM   H13A13557   6.586   0.874   6.061  0.2458 -1.8750  1.3386
  127OSM   H13B13558   6.725   0.858   5.963  1.1588  0.2687 -0.0879
  127OSM   H13C13559   6.695   1.003   6.075 -0.3319 -0.1118 -0.0837
  127OSM    C1213560   6.700   0.845   6.318  0.2040 -0.3394 -0.4056
  127OSM   H12A13561   6.715   0.946   6.353  0.6235 -0.0182 -1.4797
  127OSM   H12B13562   6.761   0.786   6.385 -1.8858 -0.6200  1.3784
  127OSM    C1113563   6.552   0.822   6.338  0.2854 -0.7989 -0.5497
  127OSM   H11A13564   6.533   0.823   6.448 -3.1080  1.4530 -0.9921
  127OSM   H11B13565   6.532   0.715   6.313  2.6562 -1.2048 -0.9186
  127OSM      P13566   6.473   1.062   6.321  0.2590  0.1845  0.0670
  127OSM    O1313567   6.607   1.124   6.298  0.0594  0.6471 -0.4395
  127OSM    O1413568   6.368   1.122   6.242  0.3736  0.0217 -0.0961
  127OSM    O1113569   6.432   1.066   6.472  0.1545 -0.3512  1.0429
  127OSM    O1213570   6.461   0.912   6.281 -1.1069 -0.4934 -0.2543
  127OSM    C1S13571   6.488   1.187   6.537  0.6644 -0.2222 -0.8475
  127OSM    H1S13572   6.461   1.284   6.491 -3.1869  0.0549  1.4948
  127OSM    H1T13573   6.598   1.170   6.541  0.5299 -1.0838 -0.4666
  127OSM     NF13574   6.426   1.319   6.741 -0.6611  0.1243  0.2409
  127OSM    HNF13575   6.500   1.334   6.806  0.0118 -1.8741  0.0157
  127OSM    C2S13576   6.431   1.186   6.681 -0.5158  0.5430 -0.3641
  127OSM    H2S13577   6.324   1.155   6.672  0.3782 -2.2333 -3.0757
  127OSM    C3S13578   6.517   1.077   6.755  0.4906 -0.4201  0.2497
  127OSM    H3S13579   6.618   1.123   6.754 -1.2850  3.9846  0.4009
  127OSM     O313580   6.519   0.950   6.693  0.5603  0.1318 -0.4091
  127OSM    HO313581   6.490   0.955   6.601  0.7965 -1.2211 -0.5828
  127OSM    C4S13582   6.462   1.060   6.893 -0.5343  0.0551 -0.5365
  127OSM    H4S13583   6.363   1.017   6.910  0.7688 -2.6244  1.0339
  127OSM    C5S13584   6.533   1.069   7.006  0.2330  0.3540 -0.0225
  127OSM    H5S13585   6.640   1.090   6.998  0.2614  0.0569 -0.4209
  127OSM    C6S13586   6.463   1.047   7.139 -0.0111 -0.2125  0.3214
  127OSM    H6S13587   6.354   1.066   7.146  0.4530  2.7815  0.9835
  127OSM    H6T13588   6.517   1.121   7.201  1.0981 -0.8508  0.1363
  127OSM    C7S13589   6.491   0.905   7.193  0.4104  0.3513  0.1494
  127OSM    H7S13590   6.438   0.823   7.140  0.6019 -0.8914  1.8337
  127OSM    H7T13591   6.442   0.884   7.291 -1.1939 -0.5375 -0.7901
  127OSM    C8S13592   6.643   0.878   7.205  0.4372 -0.0029 -0.1660
  127OSM    H8S13593   6.698   0.972   7.227 -0.2446  0.5949 -0.9540
  127OSM    H8T13594   6.682   0.839   7.108  0.6537  1.1646 -0.5725
  127OSM    C9S13595   6.679   0.781   7.325  0.6917  0.1093  0.7163
  127OSM    H9S13596   6.788   0.762   7.329  0.5745 -0.6483  0.6265
  127OSM    H9T13597   6.638   0.682   7.294  0.2020  0.5727 -0.1631
  127OSM   C10S13598   6.643   0.821   7.473 -0.2982 -0.4431 -0.0222
  127OSM   H10S13599   6.674   0.748   7.550  2.8130 -0.2951 -0.9707
  127OSM   H10T13600   6.533   0.829   7.473 -0.3839 -1.0727 -1.9352
  127OSM   C11S13601   6.714   0.958   7.510 -0.3656 -0.6494 -0.0911
  127OSM   H11S13602   6.703   1.049   7.448  1.2276  1.4580  2.5272
  127OSM   H11T13603   6.823   0.941   7.499  0.6276  3.2130  2.1884
  127OSM   C12S13604   6.701   1.005   7.658  0.2396 -0.5971  0.0765
  127OSM   H12S13605   6.779   1.085   7.665 -1.2480  0.7864  2.0140
  127OSM   H12T13606   6.728   0.921   7.725  0.5381 -1.0716 -0.6250
  127OSM   C13S13607   6.562   1.055   7.691  0.2658 -0.6918  0.4359
  127OSM   H13S13608   6.496   0.967   7.682 -0.1186 -0.2807 -0.9620
  127OSM   H13T13609   6.522   1.128   7.618  0.7864 -0.9532 -0.1179
  127OSM   C14S13610   6.542   1.116   7.833 -0.4172 -0.5390 -1.2427
  127OSM   H14S13611   6.559   1.226   7.841  0.4776 -0.7504  0.2918
  127OSM   H14T13612   6.611   1.063   7.903  0.3992  0.6619 -1.0946
  127OSM   C15S13613   6.405   1.078   7.889 -0.2934 -0.5975 -0.9548
  127OSM   H15S13614   6.403   0.970   7.914 -0.7248  0.0639  2.2044
  127OSM   H15T13615   6.325   1.106   7.818 -0.3738 -0.6156 -0.8719
  127OSM   C16S13616   6.357   1.140   8.016  0.0970 -0.2967  0.8689
  127OSM   H16S13617   6.349   1.249   7.996 -1.2684 -0.3687  0.9839
  127OSM   H16T13618   6.438   1.130   8.091  0.6275  3.0869  0.9188
  127OSM   C17S13619   6.224   1.080   8.057  0.6584  0.2836  0.3463
  127OSM   H17S13620   6.209   0.974   8.026  2.7687  0.1208 -0.2534
  127OSM   H17T13621   6.149   1.130   7.992  0.6515  1.1390  1.0015
  127OSM   C18S13622   6.170   1.093   8.202 -0.3047 -0.1796 -0.3402
  127OSM   H18S13623   6.176   1.199   8.234  2.2088 -0.6355  0.8841
  127OSM   H18T13624   6.240   1.056   8.279 -0.1572  3.2855  1.3619
  127OSM   H18U13625   6.062   1.067   8.199 -0.4877  0.6082 -2.8451
  127OSM    C1F13626   6.330   1.405   6.714 -0.1204  0.3651 -0.3540
  127OSM     OF13627   6.219   1.363   6.673 -0.6393  0.2834 -0.3670
  127OSM    C2F13628   6.367   1.546   6.739 -0.0738 -0.4628 -0.2401
  127OSM    H2F13629   6.294   1.609   6.684 -0.0195 -0.2713 -0.0923
  127OSM    H2G13630   6.470   1.573   6.708  1.0221 -0.7067  2.8803
  127OSM    C3F13631   6.371   1.583   6.890 -0.2502 -0.8769  0.3150
  127OSM    H3F13632   6.430   1.517   6.958  3.5587  1.1513 -0.7190
  127OSM    H3G13633   6.267   1.571   6.928 -0.3326 -1.0286  0.0398
  127OSM    C4F13634   6.426   1.721   6.909  1.0624  0.3512  0.4069
  127OSM    H4F13635   6.418   1.779   6.815  1.9026  0.4955  0.4203
  127OSM    H4G13636   6.537   1.724   6.913  1.0313  2.3059  0.8550
  127OSM    C5F13637   6.363   1.799   7.017 -0.5220 -0.4784  0.5146
  127OSM    H5F13638   6.342   1.732   7.104  1.7462 -2.1711 -0.1337
  127OSM    H5G13639   6.270   1.845   6.980  0.3954  0.2219 -1.0087
  127OSM    C6F13640   6.459   1.902   7.071  0.0801 -0.0627 -0.0972
  127OSM    H6F13641   6.505   1.967   6.993 -0.5125  0.4170 -0.0544
  127OSM    H6G13642   6.532   1.852   7.137  0.6125  1.4597  0.5174
  127OSM    C7F13643   6.391   1.994   7.181 -0.8457 -0.5651  0.0404
  127OSM    H7F13644   6.299   1.943   7.217  0.6373 -3.9578 -0.5969
  127OSM    H7G13645   6.356   2.081   7.120 -0.6659 -0.6509 -0.1901
  127OSM    C8F13646   6.481   2.067   7.288 -0.3052  0.3453 -0.0496
  127OSM    H8F13647   6.517   1.986   7.355 -0.6840 -0.3387 -0.6622
  127OSM    H8G13648   6.408   2.131   7.342 -1.5420 -0.2406 -0.9730
  127OSM    C9F13649   6.597   2.146   7.238  0.1987  0.2073 -0.4508
  127OSM    H9F13650   6.603   2.132   7.129 -1.7232 -2.2418 -0.3223
  127OSM   C10F13651   6.679   2.232   7.293  0.2936 -0.1577  0.4263
  127OSM   H10F13652   6.759   2.279   7.233 -0.0194 -0.9460 -0.6502
  127OSM   C11F13653   6.679   2.278   7.436 -0.9161  0.2835 -0.1407
  127OSM   H11F13654   6.583   2.256   7.487  0.6520  0.5319  3.2082
  127OSM   H11G13655   6.691   2.387   7.451  2.1962 -0.2478  2.1994
  127OSM   C12F13656   6.791   2.213   7.518  0.1127  0.4063  0.8279
  127OSM   H12F13657   6.892   2.232   7.475  1.0881 -1.0439  2.3923
  127OSM   H12G13658   6.766   2.105   7.519 -0.3845  0.4618 -0.9588
  127OSM   C13F13659   6.786   2.267   7.659 -0.3142 -0.4632 -0.8704
  127OSM   H13F13660   6.685   2.263   7.705 -0.1655 -1.7747 -0.6193
  127OSM   H13G13661   6.809   2.374   7.641  1.2952 -0.5483  0.4548
  127OSM   C14F13662   6.879   2.201   7.749  0.1513  0.1933  0.1734
  127OSM   H14F13663   6.982   2.225   7.713  0.3427  0.5212  0.9240
  127OSM   H14G13664   6.861   2.092   7.739  0.0411 -0.1865  3.5589
  127OSM   C15F13665   6.875   2.238   7.890 -0.0317 -0.0041  0.0012
  127OSM   H15F13666   6.780   2.212   7.942 -0.2101 -0.5491 -0.5869
  127OSM   H15G13667   6.891   2.345   7.915 -0.7499 -0.0550  0.7322
  127OSM   C16F13668   6.982   2.174   7.980 -0.7121 -0.1658  0.5408
  127OSM   H16F13669   7.082   2.175   7.931 -0.8882  1.0969  0.1683
  127OSM   H16G13670   6.961   2.067   7.998  1.5203 -0.4956  1.4906
  127OSM   C17F13671   7.000   2.259   8.108  0.3550 -0.3290  0.2993
  127OSM   H17F13672   6.902   2.260   8.160 -0.6661 -0.3981 -1.5184
  127OSM   H17G13673   7.025   2.365   8.086  2.8535 -0.1256  3.4008
  127OSM   C18F13674   7.103   2.200   8.201  0.0467 -0.2479 -0.5800
  127OSM   H18F13675   7.072   2.097   8.232  0.8450 -0.5592 -0.8031
  127OSM   H18G13676   7.124   2.260   8.292 -1.1299 -0.3218 -0.2369
  127OSM   H18H13677   7.200   2.191   8.149  0.4315 -0.8142  0.2143
  128OSM      N13678   2.384   2.884   5.944  0.6294 -1.0154  0.1486
  128OSM    C1513679   2.430   2.868   6.084  0.5431 -0.0416  0.1000
  128OSM   H15A13680   2.504   2.943   6.107 -2.0571  2.6346  0.3225
  128OSM   H15B13681   2.473   2.769   6.093 -1.2934 -1.2197 -2.7043
  128OSM   H15C13682   2.348   2.876   6.154 -1.3495  1.1687 -2.1061
  128OSM    C1413683   2.499   2.860   5.852 -0.4519 -0.5871  0.1325
  128OSM   H14A13684   2.591   2.909   5.880  0.4221  0.1283 -3.4966
  128OSM   H14B13685   2.461   2.888   5.755 -2.4524  2.9634  1.7312
  128OSM   H14C13686   2.523   2.755   5.853 -0.0207 -0.4866  0.4724
  128OSM    C1313687   2.278   2.780   5.905  0.4474  0.4671 -0.0888
  128OSM   H13A13688   2.307   2.676   5.914 -0.0166  0.2915 -0.5243
  128OSM   H13B13689   2.247   2.805   5.804  0.1423 -0.6140 -0.2748
  128OSM   H13C13690   2.199   2.786   5.978  0.4236 -1.7140  0.1253
  128OSM    C1213691   2.327   3.028   5.913  0.3383  0.3517  0.0550
  128OSM   H12A13692   2.307   3.031   5.807  0.3695 -0.3781  0.0180
  128OSM   H12B13693   2.403   3.102   5.931 -1.9352  2.8088  0.2318
  128OSM    C1113694   2.199   3.064   5.989  0.3791 -0.9746  0.3507
  128OSM   H11A13695   2.118   2.988   5.980 -0.5163 -0.1018  0.8676
  128OSM   H11B13696   2.163   3.154   5.933 -1.2895 -1.4964  0.5223
  128OSM      P13697   2.210   3.234   6.181 -0.1343 -0.0736 -0.0349
  128OSM    O1313698   2.290   3.318   6.096 -1.0431 -0.2986  0.2803
  128OSM    O1413699   2.064   3.272   6.199 -0.0598 -0.3962  0.5246
  128OSM    O1113700   2.270   3.228   6.325 -0.6945 -0.4865  0.3539
  128OSM    O1213701   2.216   3.088   6.132 -0.1671 -0.3346 -0.2998
  128OSM    C1S13702   2.207   3.272   6.445  0.4483 -0.4091  0.5760
  128OSM    H1S13703   2.104   3.229   6.450  0.1984  0.2738  1.6532
  128OSM    H1T13704   2.203   3.383   6.439 -0.4729 -0.4303  0.6140
  128OSM     NF13705   2.223   3.281   6.687  0.5484 -0.3730  0.0299
  128OSM    HNF13706   2.274   3.355   6.731  2.0897 -0.9624 -0.6731
  128OSM    C2S13707   2.287   3.217   6.569  0.3674  0.0521  0.2441
  128OSM    H2S13708   2.275   3.107   6.575  1.7901 -0.1744 -0.5738
  128OSM    C3S13709   2.431   3.254   6.560 -0.2114  0.0159  0.0101
  128OSM    H3S13710   2.447   3.363   6.548 -1.6104  0.6242  2.7618
  128OSM     O313711   2.494   3.188   6.450  0.3092 -0.5335 -0.1614
  128OSM    HO313712   2.427   3.149   6.393  1.6497 -0.4419 -1.8607
  128OSM    C4S13713   2.509   3.223   6.682  0.0660 -0.2189 -0.0815
  128OSM    H4S13714   2.532   3.316   6.736 -1.8630  0.1259  0.2502
  128OSM    C5S13715   2.580   3.109   6.716  1.0150  0.4149  0.2430
  128OSM    H5S13716   2.577   3.019   6.653  1.0584  1.6771 -1.6560
  128OSM    C6S13717   2.661   3.087   6.837 -0.4444  0.6569 -0.4526
  128OSM    H6S13718   2.771   3.086   6.823 -0.2386 -2.9018  0.3320
  128OSM    H6T13719   2.643   2.983   6.872 -0.6087  0.4447 -1.1479
  128OSM    C7S13720   2.649   3.177   6.966  0.3061  0.4736  0.6288
  128OSM    H7S13721   2.642   3.285   6.941 -2.3232 -0.0667 -1.3993
  128OSM    H7T13722   2.738   3.160   7.031  2.3401 -0.0363 -2.1027
  128OSM    C8S13723   2.521   3.155   7.049 -0.6822 -0.2691 -0.4684
  128OSM    H8S13724   2.504   3.046   7.037 -0.2562 -0.4723  0.6962
  128OSM    H8T13725   2.434   3.200   6.996 -0.2722 -0.1453 -1.0435
  128OSM    C9S13726   2.548   3.195   7.194 -0.2350 -0.4522  0.0594
  128OSM    H9S13727   2.578   3.302   7.203  3.0733 -1.2691  0.2654
  128OSM    H9T13728   2.636   3.139   7.233 -0.7720 -0.1063  1.8815
  128OSM   C10S13729   2.423   3.167   7.286  0.3904 -0.0639  0.0097
  128OSM   H10S13730   2.386   3.063   7.285 -0.9189  0.3807  0.1282
  128OSM   H10T13731   2.331   3.216   7.247  0.6527 -0.0372 -0.5961
  128OSM   C11S13732   2.446   3.216   7.428 -0.6317  0.1368  0.4350
  128OSM   H11S13733   2.349   3.215   7.482 -1.5310 -1.2696 -1.1423
  128OSM   H11T13734   2.490   3.319   7.428  1.0249 -0.5365 -0.1998
  128OSM   C12S13735   2.540   3.127   7.515 -0.4078 -0.1757  0.2498
  128OSM   H12S13736   2.644   3.146   7.482 -0.1242 -0.7654  0.8006
  128OSM   H12T13737   2.508   3.025   7.483 -0.5356  0.7373 -2.8403
  128OSM   C13S13738   2.517   3.125   7.664 -0.3440 -0.4511 -0.1417
  128OSM   H13S13739   2.534   3.227   7.705  1.8299 -0.6534 -0.4121
  128OSM   H13T13740   2.592   3.058   7.712  2.5423  2.4569 -0.2487
  128OSM   C14S13741   2.371   3.088   7.717 -0.1554  0.2192  0.5796
  128OSM   H14S13742   2.355   2.980   7.701  0.3639 -0.0446  1.7810
  128OSM   H14T13743   2.292   3.152   7.672 -0.5054 -0.3681  0.3578
  128OSM   C15S13744   2.365   3.101   7.865 -0.1507  0.0066  0.0587
  128OSM   H15S13745   2.389   3.208   7.879 -0.0470 -0.2129  1.8903
  128OSM   H15T13746   2.447   3.047   7.918 -0.3151 -3.0636 -2.5113
  128OSM   C16S13747   2.234   3.058   7.933  0.1985 -0.2713  0.1589
  128OSM   H16S13748   2.239   3.077   8.042 -0.8655 -1.7148  0.5030
  128OSM   H16T13749   2.235   2.948   7.916 -0.5072 -0.2186 -0.2718
  128OSM   C17S13750   2.110   3.136   7.876  0.6080  0.6996  0.1927
  128OSM   H17S13751   2.020   3.086   7.917  0.2258  1.7592  0.6807
  128OSM   H17T13752   2.105   3.116   7.767 -1.1717 -0.9532  0.5333
  128OSM   C18S13753   2.113   3.283   7.918 -0.3859  0.3628 -0.7969
  128OSM   H18S13754   2.110   3.280   8.029 -1.5602  1.7463 -0.7685
  128OSM   H18T13755   2.014   3.322   7.887 -1.6936 -1.7578  0.4646
  128OSM   H18U13756   2.193   3.342   7.869 -0.2449  1.1006  0.2909
  128OSM    C1F13757   2.093   3.263   6.723 -0.0718 -0.0471 -0.4025
  128OSM     OF13758   2.030   3.171   6.673  0.3438  0.2387  0.5618
  128OSM    C2F13759   2.037   3.347   6.831  0.2804 -0.9362  0.0863
  128OSM    H2F13760   2.092   3.443   6.839  0.8825 -1.2741  0.0121
  128OSM    H2G13761   2.034   3.298   6.931 -2.4886 -0.2002  0.4647
  128OSM    C3F13762   1.891   3.391   6.794 -0.6464 -0.4128  0.1002
  128OSM    H3F13763   1.828   3.305   6.764 -2.9105  0.9981  0.5906
  128OSM    H3G13764   1.891   3.462   6.709 -2.4719 -0.8641 -0.3169
  128OSM    C4F13765   1.816   3.444   6.914 -0.1127 -0.2474  0.0719
  128OSM    H4F13766   1.816   3.374   7.000  1.3572  0.7565  0.9262
  128OSM    H4G13767   1.710   3.454   6.880  0.3822  0.9291 -1.2249
  128OSM    C5F13768   1.872   3.579   6.972  0.2736  0.1938  0.7641
  128OSM    H5F13769   1.882   3.659   6.895  2.5255 -0.7448 -0.0269
  128OSM    H5G13770   1.972   3.556   7.015 -0.8200  0.0215  3.3425
  128OSM    C6F13771   1.780   3.634   7.075 -0.3849 -0.1058 -0.2051
  128OSM    H6F13772   1.728   3.553   7.131 -1.0926  1.4252  1.4685
  128OSM    H6G13773   1.696   3.695   7.038 -1.2389  1.5589  3.9386
  128OSM    C7F13774   1.865   3.720   7.170 -1.3745 -0.8845  0.3046
  128OSM    H7F13775   1.915   3.791   7.101 -0.1185 -2.9546 -1.0358
  128OSM    H7G13776   1.954   3.660   7.202  0.2065 -1.3295 -4.2064
  128OSM    C8F13777   1.790   3.778   7.291 -0.1309 -0.2162  0.6293
  128OSM    H8F13778   1.699   3.810   7.235  1.0045  0.2341 -1.0340
  128OSM    H8G13779   1.839   3.862   7.344  0.1639  0.0437 -0.0423
  128OSM    C9F13780   1.765   3.690   7.402 -0.0326  0.4056  0.7302
  128OSM    H9F13781   1.855   3.638   7.439  0.9637  1.7558  0.3086
  128OSM   C10F13782   1.648   3.691   7.469 -0.3122  0.3700  0.2630
  128OSM   H10F13783   1.634   3.614   7.545  2.0496  0.5445  0.9740
  128OSM   C11F13784   1.526   3.778   7.446  0.4873 -0.0276  0.1424
  128OSM   H11F13785   1.563   3.881   7.426  2.2058 -0.7228 -0.4269
  128OSM   H11G13786   1.464   3.792   7.537 -0.5107  1.2123 -0.6986
  128OSM   C12F13787   1.421   3.734   7.340 -0.2309 -0.2297  0.0661
  128OSM   H12F13788   1.489   3.712   7.255  0.4632 -0.4651  0.6793
  128OSM   H12G13789   1.354   3.820   7.316 -0.8850  0.7538  4.5295
  128OSM   C13F13790   1.335   3.609   7.376  0.2088 -0.6619  0.0263
  128OSM   H13F13791   1.407   3.524   7.377  3.6252  1.9475 -1.4046
  128OSM   H13G13792   1.265   3.591   7.293 -0.8328  1.7166  0.3166
  128OSM   C14F13793   1.240   3.661   7.490 -0.2170  0.4458  0.2365
  128OSM   H14F13794   1.166   3.725   7.440 -0.6027  0.9890  1.4537
  128OSM   H14G13795   1.288   3.715   7.575 -0.5254  1.0569  0.0219
  128OSM   C15F13796   1.157   3.548   7.545 -0.2113  0.8665  0.1043
  128OSM   H15F13797   1.214   3.463   7.588  0.5214  1.8207  1.0592
  128OSM   H15G13798   1.096   3.504   7.463  1.7231  0.1397 -1.0013
  128OSM   C16F13799   1.052   3.592   7.652  0.6962  0.1956  0.3580
  128OSM   H16F13800   0.992   3.680   7.620 -0.8756  0.7181  4.1570
  128OSM   H16G13801   1.107   3.628   7.742  0.3112  0.7120  0.3925
  128OSM   C17F13802   0.952   3.484   7.704  0.2292  0.1420  0.0196
  128OSM   H17F13803   0.998   3.384   7.702 -0.2924 -0.0838 -1.1176
  128OSM   H17G13804   0.867   3.482   7.632  1.2301  0.4752 -1.2035
  128OSM   C18F13805   0.899   3.511   7.851 -0.0573 -0.1664  0.2785
  128OSM   H18F13806   0.828   3.429   7.873 -0.5453 -0.2152 -1.3782
  128OSM   H18G13807   0.847   3.609   7.859 -0.4193 -0.3468  0.1405
  128OSM   H18H13808   0.980   3.492   7.925  0.1030 -0.9767 -0.0969
  129OSM      N13809   4.231   0.157   6.022  0.3108  0.0459  0.5834
  129OSM    C1513810   4.163   0.272   6.088 -0.1403 -0.3542  0.3180
  129OSM   H15A13811   4.218   0.362   6.063  0.3131 -0.7805 -0.2543
  129OSM   H15B13812   4.170   0.261   6.195 -1.6479  0.9485  0.5911
  129OSM   H15C13813   4.057   0.281   6.069  0.0783  2.0532 -0.1211
  129OSM    C1413814   4.147   0.037   6.065  0.4014  0.1108  0.0154
  129OSM   H14A13815   4.167  -0.001   6.164  1.2773 -1.7443 -0.8220
  129OSM   H14B13816   4.177  -0.048   6.005  0.4143  1.1138 -1.4411
  129OSM   H14C13817   4.041   0.057   6.063  0.0965 -1.2954  0.6739
  129OSM    C1313818   4.224   0.175   5.876  0.3651 -0.3100 -0.9845
  129OSM   H13A13819   4.253   0.277   5.853  2.4451 -0.7879 -0.7211
  129OSM   H13B13820   4.130   0.156   5.826 -1.5032  1.5183  1.5604
  129OSM   H13C13821   4.303   0.123   5.824  1.4516  0.3867 -0.0766
  129OSM    C1213822   4.371   0.143   6.063 -0.5946  0.0982  0.6815
  129OSM   H12A13823   4.434   0.228   6.036  0.6862 -1.2474 -0.7699
  129OSM   H12B13824   4.412   0.067   5.999  2.3337 -0.1854  2.6782
  129OSM    C1113825   4.412   0.105   6.213  0.3343  0.7223 -0.4308
  129OSM   H11A13826   4.367   0.180   6.282  0.4828 -0.6467  1.2245
  129OSM   H11B13827   4.522   0.118   6.225  0.1406  0.1168  2.8052
  129OSM      P13828   4.443  -0.164   6.225  0.2116 -0.7115  0.6708
  129OSM    O1313829   4.343  -0.269   6.243  0.1998  0.6163 -0.2619
  129OSM    O1413830   4.514  -0.151   6.095  0.2615  0.0447 -0.3527
  129OSM    O1113831   4.558  -0.185   6.324 -0.4013 -0.0324 -0.5219
  129OSM    O1213832   4.371  -0.023   6.262  0.0868 -0.1083 -0.3604
  129OSM    C1S13833   4.564  -0.122   6.449  0.4778 -0.2457  0.3763
  129OSM    H1S13834   4.501  -0.032   6.466 -0.8692 -1.5084  2.4828
  129OSM    H1T13835   4.668  -0.090   6.470  2.2929 -3.5693 -2.3372
  129OSM     NF13836   4.547  -0.129   6.689 -0.8387 -0.2314 -0.1111
  129OSM    HNF13837   4.643  -0.110   6.708  0.1397 -2.5434 -2.2121
  129OSM    C2S13838   4.537  -0.221   6.574 -0.2068 -0.4590  0.2611
  129OSM    H2S13839   4.431  -0.252   6.560  0.2854 -2.6304  0.8649
  129OSM    C3S13840   4.625  -0.342   6.569 -0.1002  0.1985 -0.4486
  129OSM    H3S13841   4.732  -0.317   6.582 -0.8370  2.5974  1.7276
  129OSM     O313842   4.622  -0.420   6.449  0.2646 -0.1242 -0.1056
  129OSM    HO313843   4.560  -0.375   6.391  0.2603  0.5868  0.4298
  129OSM    C4S13844   4.591  -0.429   6.693 -1.2419  0.4699  0.0574
  129OSM    H4S13845   4.650  -0.391   6.778 -1.8361 -0.1806  0.7731
  129OSM    C5S13846   4.500  -0.528   6.712 -1.0663  0.0757 -0.2756
  129OSM    H5S13847   4.434  -0.545   6.625 -1.1311  1.9271 -0.6195
  129OSM    C6S13848   4.474  -0.609   6.837  0.4715  0.2036  0.2292
  129OSM    H6S13849   4.442  -0.715   6.822 -0.4188  0.6056 -0.8266
  129OSM    H6T13850   4.386  -0.573   6.893 -0.4279 -0.5151 -0.6907
  129OSM    C7S13851   4.602  -0.637   6.920 -0.3383  1.2017 -0.8692
  129OSM    H7S13852   4.675  -0.554   6.932  0.0595  0.6755  0.5510
  129OSM    H7T13853   4.662  -0.712   6.864  0.6324  1.4507 -0.1899
  129OSM    C8S13854   4.557  -0.693   7.065  0.5597  1.0126  0.2289
  129OSM    H8S13855   4.469  -0.759   7.052  1.0279  0.3653  0.2679
  129OSM    H8T13856   4.515  -0.600   7.109  1.9898  0.4749  2.9135
  129OSM    C9S13857   4.671  -0.756   7.157  0.2694 -0.7277  0.6931
  129OSM    H9S13858   4.770  -0.707   7.144 -1.1867  1.8329 -2.2688
  129OSM    H9T13859   4.698  -0.851   7.107 -0.0021  0.5677 -2.1182
  129OSM   C10S13860   4.632  -0.760   7.303  0.1229 -0.5564  0.0425
  129OSM   H10S13861   4.669  -0.856   7.346 -2.0829 -1.0736  0.8817
  129OSM   H10T13862   4.524  -0.782   7.308 -0.1889  0.8875 -0.0295
  129OSM   C11S13863   4.677  -0.632   7.378  0.1812 -0.0512 -0.2428
  129OSM   H11S13864   4.622  -0.546   7.334 -0.4963  1.0595  2.5811
  129OSM   H11T13865   4.788  -0.627   7.378  0.2022 -0.4061 -0.6099
  129OSM   C12S13866   4.630  -0.640   7.525 -0.0876 -0.1182 -0.7523
  129OSM   H12S13867   4.519  -0.643   7.525 -0.0628 -2.3524 -0.4877
  129OSM   H12T13868   4.651  -0.541   7.571  2.0738 -0.8397 -0.0815
  129OSM   C13S13869   4.683  -0.751   7.610  0.1163  0.3782  0.4672
  129OSM   H13S13870   4.794  -0.740   7.615  0.1793 -0.2476  0.4803
  129OSM   H13T13871   4.672  -0.852   7.567  1.4065 -0.1629  1.3612
  129OSM   C14S13872   4.636  -0.767   7.756  0.2104 -0.3555 -0.9508
  129OSM   H14S13873   4.677  -0.853   7.812  1.3496 -0.1663 -1.4705
  129OSM   H14T13874   4.526  -0.782   7.746 -0.6591  2.9725  1.7486
  129OSM   C15S13875   4.644  -0.641   7.840 -0.5260 -0.4052  0.1042
  129OSM   H15S13876   4.580  -0.570   7.784 -0.0115  0.3466  0.4650
  129OSM   H15T13877   4.748  -0.603   7.832  0.1923 -2.4691 -1.6855
  129OSM   C16S13878   4.600  -0.664   7.980 -0.2287  0.3260  0.1211
  129OSM   H16S13879   4.514  -0.735   7.986 -1.9546  2.2255 -0.6717
  129OSM   H16T13880   4.563  -0.572   8.031 -2.5244 -1.1276  1.2594
  129OSM   C17S13881   4.698  -0.709   8.093  0.0141  0.3187 -0.1024
  129OSM   H17S13882   4.785  -0.641   8.084  1.0375 -0.9792 -0.2977
  129OSM   H17T13883   4.725  -0.813   8.067 -0.6886  0.0084  0.3739
  129OSM   C18S13884   4.635  -0.710   8.229  0.4125 -0.5778  0.1155
  129OSM   H18S13885   4.710  -0.719   8.310 -1.0792 -1.4045  1.4667
  129OSM   H18T13886   4.549  -0.779   8.234 -3.0213  3.3370  0.9591
  129OSM   H18U13887   4.589  -0.609   8.243 -0.7327 -0.8760 -1.3187
  129OSM    C1F13888   4.455  -0.044   6.740  0.1051  0.8746  0.1196
  129OSM     OF13889   4.344  -0.046   6.692  0.8289 -0.0514 -0.3002
  129OSM    C2F13890   4.510   0.056   6.833 -0.5780  0.3992 -0.1264
  129OSM    H2F13891   4.440   0.142   6.842 -2.2167 -0.4018 -3.6745
  129OSM    H2G13892   4.597   0.111   6.791  0.4304 -0.2319  1.0585
  129OSM    C3F13893   4.535   0.001   6.974 -0.1297 -0.2286 -0.1660
  129OSM    H3F13894   4.592   0.074   7.036  1.2390 -1.6902  0.3729
  129OSM    H3G13895   4.613  -0.078   6.971  2.0431  1.7766  0.3951
  129OSM    C4F13896   4.407  -0.029   7.046 -0.6409  0.2530 -0.2727
  129OSM    H4F13897   4.344  -0.101   6.989 -1.0608  1.3232 -1.1966
  129OSM    H4G13898   4.349   0.066   7.052 -0.5453  0.3665 -1.1083
  129OSM    C5F13899   4.448  -0.073   7.191 -0.8354 -0.4710 -0.1235
  129OSM    H5F13900   4.368  -0.049   7.265 -0.3085  2.1629 -0.2960
  129OSM    H5G13901   4.537  -0.021   7.233 -1.6642 -0.6065  1.9364
  129OSM    C6F13902   4.466  -0.226   7.199 -0.3654 -0.8262 -0.2729
  129OSM    H6F13903   4.569  -0.259   7.170 -0.6097 -0.2406 -1.9470
  129OSM    H6G13904   4.405  -0.275   7.120  1.2966 -0.4502 -1.8758
  129OSM    C7F13905   4.438  -0.287   7.331  0.4853 -0.4727 -0.4983
  129OSM    H7F13906   4.456  -0.397   7.323  2.4751 -0.1922 -0.4388
  129OSM    H7G13907   4.331  -0.272   7.355  0.4207 -0.6097 -0.6953
  129OSM    C8F13908   4.525  -0.231   7.452  0.9555  0.4167 -0.9396
  129OSM    H8F13909   4.612  -0.173   7.414  2.3325 -0.0015  1.3266
  129OSM    H8G13910   4.554  -0.330   7.494 -1.7257  0.1886  0.5943
  129OSM    C9F13911   4.440  -0.149   7.546 -0.1313  0.3842  0.3150
  129OSM    H9F13912   4.403  -0.058   7.498 -2.4937 -0.8131 -0.2780
  129OSM   C10F13913   4.412  -0.168   7.677 -0.0451 -0.5465 -0.1670
  129OSM   H10F13914   4.349  -0.091   7.724 -0.1016  0.2720 -1.5256
  129OSM   C11F13915   4.454  -0.284   7.765 -0.2516 -0.7281  0.0754
  129OSM   H11F13916   4.484  -0.367   7.698  1.3934  0.2273 -0.4419
  129OSM   H11G13917   4.360  -0.313   7.816 -0.9540 -0.7633 -1.1794
  129OSM   C12F13918   4.568  -0.255   7.854 -0.1074 -0.0267 -0.0609
  129OSM   H12F13919   4.656  -0.218   7.797  0.2509 -0.6922  0.0362
  129OSM   H12G13920   4.614  -0.343   7.905  2.6991  1.5782  0.4126
  129OSM   C13F13921   4.546  -0.139   7.958  0.4311  0.5964  0.4555
  129OSM   H13F13922   4.543  -0.046   7.896  0.0107  0.1162 -0.2515
  129OSM   H13G13923   4.632  -0.123   8.027 -0.0601  4.0528  0.4674
  129OSM   C14F13924   4.413  -0.143   8.034 -0.7347 -0.1981 -0.5511
  129OSM   H14F13925   4.392  -0.250   8.058  2.5915 -0.8192  0.1473
  129OSM   H14G13926   4.335  -0.089   7.976 -1.9943 -1.1535  0.1854
  129OSM   C15F13927   4.426  -0.070   8.171 -0.2558 -0.9066 -0.3536
  129OSM   H15F13928   4.459   0.033   8.148  0.9027 -0.5163  2.5611
  129OSM   H15G13929   4.509  -0.129   8.216  0.2201  0.1443  0.1670
  129OSM   C16F13930   4.301  -0.083   8.252  0.3259 -0.6087  0.8855
  129OSM   H16F13931   4.266  -0.187   8.236  2.1623 -0.7693 -3.9827
  129OSM   H16G13932   4.218  -0.019   8.214  1.2846  0.6450  0.8348
  129OSM   C17F13933   4.301  -0.053   8.405 -0.2501 -0.1537 -0.3428
  129OSM   H17F13934   4.333   0.053   8.416  0.5123 -0.4729  0.6996
  129OSM   H17G13935   4.378  -0.117   8.454 -0.4456  0.6987  1.1414
  129OSM   C18F13936   4.171  -0.066   8.472  0.6013 -0.5205  0.1588
  129OSM   H18F13937   4.165  -0.018   8.573  0.4163  0.3508 -0.2540
  129OSM   H18G13938   4.147  -0.174   8.477 -0.3581 -0.2781  1.5173
  129OSM   H18H13939   4.089  -0.026   8.409  0.5560 -0.8248  0.0230
  130OSM      N13940   2.105   1.307   5.989 -0.5113  0.2036 -0.3800
  130OSM    C1513941   2.162   1.260   5.863  0.8064 -0.0603 -0.3439
  130OSM   H15A13942   2.155   1.339   5.790  1.0016  0.1837 -0.0980
  130OSM   H15B13943   2.114   1.169   5.828 -1.0746  0.7525  0.0014
  130OSM   H15C13944   2.269   1.251   5.869  0.7737 -0.0285  0.2779
  130OSM    C1413945   2.184   1.424   6.040 -0.4202 -0.1272  0.5567
  130OSM   H14A13946   2.185   1.432   6.148  2.5513  0.3383  0.5649
  130OSM   H14B13947   2.145   1.514   5.994 -0.9031 -1.1693 -1.1537
  130OSM   H14C13948   2.289   1.419   6.016 -0.7141  0.0544 -0.8148
  130OSM    C1313949   1.961   1.343   5.977  0.3090  0.0699  0.5083
  130OSM   H13A13950   1.937   1.414   5.899 -0.1252 -0.8298 -0.1924
  130OSM   H13B13951   1.912   1.367   6.071 -3.3215 -2.2907 -0.5594
  130OSM   H13C13952   1.900   1.261   5.942 -0.7699  1.8986 -2.2604
  130OSM    C1213953   2.112   1.193   6.089 -0.2379 -0.2040  0.0630
  130OSM   H12A13954   2.214   1.157   6.092  0.6439  2.1804  0.7380
  130OSM   H12B13955   2.036   1.121   6.063  0.5617 -1.1828  0.3646
  130OSM    C1113956   2.078   1.229   6.243  0.3096  0.1842 -0.6867
  130OSM   H11A13957   2.155   1.304   6.271  0.9744 -0.8996  0.5030
  130OSM   H11B13958   2.095   1.138   6.304 -1.0977  0.0616 -0.4389
  130OSM      P13959   1.819   1.188   6.254 -0.1926  0.2848  0.5127
  130OSM    O1313960   1.704   1.278   6.275 -0.2006  0.2666  0.6936
  130OSM    O1413961   1.818   1.102   6.133 -0.5537 -0.4216 -0.1174
  130OSM    O1113962   1.824   1.103   6.387 -0.3746  0.1327 -0.3479
  130OSM    O1213963   1.947   1.277   6.267  0.2730  0.1766 -0.2211
  130OSM    C1S13964   1.861   1.173   6.510  0.4297 -0.9110  0.3013
  130OSM    H1S13965   1.828   1.280   6.506  1.1703 -0.6951 -0.2326
  130OSM    H1T13966   1.968   1.159   6.535  0.8783  0.1991 -0.8525
  130OSM     NF13967   1.832   1.181   6.740 -0.3337 -0.7401 -0.0591
  130OSM    HNF13968   1.917   1.150   6.783 -0.7732 -0.6503  0.9082
  130OSM    C2S13969   1.796   1.099   6.632 -0.0814  0.5159  1.2100
  130OSM    H2S13970   1.685   1.088   6.631 -0.2697  2.0648 -0.5426
  130OSM    C3S13971   1.850   0.944   6.636 -0.2878  0.2937  0.6806
  130OSM    H3S13972   1.954   0.956   6.673 -1.6115  0.6399  4.8089
  130OSM     O313973   1.854   0.872   6.508  0.4078  0.4328  0.7859
  130OSM    HO313974   1.844   0.942   6.442  0.1350  0.3578  0.7483
  130OSM    C4S13975   1.774   0.865   6.739  0.1771  0.7965 -0.6075
  130OSM    H4S13976   1.666   0.883   6.733 -0.5074 -1.0475  3.1387
  130OSM    C5S13977   1.829   0.797   6.845 -0.0381  0.6334  0.8406
  130OSM    H5S13978   1.938   0.787   6.856  0.3816  0.6577 -2.2613
  130OSM    C6S13979   1.738   0.727   6.947 -0.7571  0.0513  0.0000
  130OSM    H6S13980   1.758   0.619   6.934  1.0885  0.3363  0.1317
  130OSM    H6T13981   1.634   0.755   6.922  0.2701  2.0532 -2.4482
  130OSM    C7S13982   1.774   0.771   7.091 -0.9040 -0.0312  0.1090
  130OSM    H7S13983   1.757   0.880   7.101  1.5467  0.3153  1.1900
  130OSM    H7T13984   1.882   0.756   7.110 -0.3675  0.5813 -2.2072
  130OSM    C8S13985   1.701   0.688   7.202 -0.1094 -0.1387  0.1765
  130OSM    H8S13986   1.746   0.586   7.203 -0.5765 -0.3592 -0.5989
  130OSM    H8T13987   1.596   0.684   7.166 -0.0774  0.2742  0.0399
  130OSM    C9S13988   1.709   0.755   7.339 -0.0316  0.1017 -0.1605
  130OSM    H9S13989   1.646   0.847   7.345 -3.3174 -2.0335  2.9512
  130OSM    H9T13990   1.817   0.775   7.357  0.8402 -1.8601 -2.7879
  130OSM   C10S13991   1.668   0.661   7.456 -0.0924  0.4040 -0.2461
  130OSM   H10S13992   1.726   0.567   7.450  0.5866  0.8937 -3.4750
  130OSM   H10T13993   1.561   0.643   7.432  0.5003 -1.7261 -1.5718
  130OSM   C11S13994   1.693   0.744   7.582 -0.0579  0.3618  0.1532
  130OSM   H11S13995   1.649   0.846   7.585  0.0405  0.3972  0.4525
  130OSM   H11T13996   1.803   0.750   7.596  0.2836 -1.2818 -1.5187
  130OSM   C12S13997   1.639   0.680   7.714 -0.1754  0.1245  0.9341
  130OSM   H12S13998   1.680   0.577   7.706 -0.0275  0.1931  0.7957
  130OSM   H12T13999   1.528   0.674   7.712 -0.1512 -2.3922 -2.2503
  130OSM   C13S14000   1.695   0.752   7.838 -0.3465  0.5552  0.0956
  130OSM   H13S14001   1.649   0.853   7.831 -2.6420 -0.3366  1.1255
  130OSM   H13T14002   1.805   0.762   7.841 -0.3797  2.3245 -2.1946
  130OSM   C14S14003   1.650   0.683   7.968 -0.5624  0.5217 -0.5206
  130OSM   H14S14004   1.693   0.582   7.985 -1.8096 -0.3574 -2.3186
  130OSM   H14T14005   1.542   0.660   7.956 -0.5274 -1.0076  1.5096
  130OSM   C15S14006   1.655   0.764   8.099 -0.6840 -0.0837 -0.1332
  130OSM   H15S14007   1.614   0.864   8.073  1.0134  1.3017  2.0840
  130OSM   H15T14008   1.764   0.777   8.115 -0.4745 -1.5157 -0.2886
  130OSM   C16S14009   1.589   0.700   8.219  0.7044  0.9659 -0.2298
  130OSM   H16S14010   1.633   0.600   8.239  0.9485  1.2312  0.5977
  130OSM   H16T14011   1.486   0.688   8.180  0.1345  0.6124  1.3210
  130OSM   C17S14012   1.608   0.778   8.350  0.1732 -0.1485  0.2432
  130OSM   H17S14013   1.557   0.874   8.331 -0.7483 -0.9890 -1.8464
  130OSM   H17T14014   1.717   0.801   8.353 -0.4615  3.2084  1.9561
  130OSM   C18S14015   1.555   0.719   8.482  0.0606  0.2817  0.7876
  130OSM   H18S14016   1.596   0.617   8.496 -1.7128 -0.6483 -0.3429
  130OSM   H18T14017   1.444   0.712   8.473  0.0840  2.0457 -2.2800
  130OSM   H18U14018   1.590   0.776   8.570 -0.3079  0.2181  0.9784
  130OSM    C1F14019   1.768   1.293   6.773 -0.7487  0.2121 -0.9302
  130OSM     OF14020   1.673   1.319   6.705 -0.6764 -0.0949  0.5947
  130OSM    C2F14021   1.821   1.378   6.881  0.3053 -0.6321  0.0599
  130OSM    H2F14022   1.898   1.435   6.825 -0.2169 -0.1743 -0.2028
  130OSM    H2G14023   1.861   1.312   6.961 -0.7273 -0.4329  0.7661
  130OSM    C3F14024   1.710   1.473   6.932  0.2809 -0.5736 -0.1007
  130OSM    H3F14025   1.680   1.539   6.847  0.8824  0.4983  0.4913
  130OSM    H3G14026   1.759   1.534   7.011 -1.2318 -0.6574  0.9304
  130OSM    C4F14027   1.596   1.413   6.999  0.4253 -0.0367  0.4702
  130OSM    H4F14028   1.539   1.343   6.935  0.9899 -1.4059  1.4156
  130OSM    H4G14029   1.518   1.484   7.035 -0.0107  0.1199 -0.7575
  130OSM    C5F14030   1.630   1.318   7.119 -0.1494  0.8585 -0.3750
  130OSM    H5F14031   1.698   1.244   7.070  0.2232  1.4697 -0.7864
  130OSM    H5G14032   1.538   1.259   7.140 -0.3510  1.1851 -0.3439
  130OSM    C6F14033   1.673   1.383   7.243  0.4069 -0.2742  0.0825
  130OSM    H6F14034   1.594   1.448   7.286  0.6584 -0.6478  1.1484
  130OSM    H6G14035   1.755   1.449   7.209  0.0570  0.6896  1.0756
  130OSM    C7F14036   1.731   1.294   7.352  0.3277  0.2273 -0.1058
  130OSM    H7F14037   1.804   1.225   7.304 -0.4329  0.1297 -1.1623
  130OSM    H7G14038   1.647   1.231   7.388 -0.8853  0.3440 -2.5824
  130OSM    C8F14039   1.792   1.365   7.480  0.1678 -0.2642 -0.5858
  130OSM    H8F14040   1.886   1.411   7.443  0.3233 -0.9527 -1.0755
  130OSM    H8G14041   1.823   1.293   7.560 -0.9388 -0.1649 -0.0499
  130OSM    C9F14042   1.698   1.469   7.549  0.1790 -0.3754  0.6093
  130OSM    H9F14043   1.697   1.562   7.489  3.7128 -2.5029 -3.3312
  130OSM   C10F14044   1.617   1.455   7.651  0.2752  0.2311 -0.1055
  130OSM   H10F14045   1.553   1.537   7.686 -1.1326 -1.2124  0.8965
  130OSM   C11F14046   1.594   1.326   7.730 -0.9645 -0.1343 -0.2966
  130OSM   H11F14047   1.624   1.243   7.663  1.9381  0.9271 -0.4759
  130OSM   H11G14048   1.487   1.314   7.758 -1.3362  0.4874 -1.3708
  130OSM   C12F14049   1.669   1.300   7.861  0.5209  0.0966  0.2649
  130OSM   H12F14050   1.780   1.311   7.853  0.6074 -0.2934  0.8493
  130OSM   H12G14051   1.644   1.194   7.886 -2.9895  0.8717  0.5191
  130OSM   C13F14052   1.615   1.393   7.971 -0.3811  0.7695 -0.3568
  130OSM   H13F14053   1.620   1.497   7.933  2.7809  0.7342 -0.2831
  130OSM   H13G14054   1.684   1.391   8.058 -1.0798 -1.6651  0.2230
  130OSM   C14F14055   1.482   1.356   8.037  0.0044 -0.0814  0.0850
  130OSM   H14F14056   1.478   1.246   8.052 -1.6314 -0.0312  0.1542
  130OSM   H14G14057   1.392   1.387   7.980 -0.6184  1.7718  1.9759
  130OSM   C15F14058   1.464   1.434   8.161 -0.1735 -0.0318 -0.5089
  130OSM   H15F14059   1.465   1.543   8.141  0.5812 -0.0303 -0.4887
  130OSM   H15G14060   1.545   1.404   8.231  2.0933 -2.1859 -3.7300
  130OSM   C16F14061   1.328   1.388   8.227 -0.0160  0.0704  0.0785
  130OSM   H16F14062   1.320   1.278   8.238 -0.7315  0.1372  0.3475
  130OSM   H16G14063   1.240   1.417   8.166 -0.3621 -1.9676 -0.4715
  130OSM   C17F14064   1.307   1.452   8.365 -0.4194 -0.3347  0.0493
  130OSM   H17F14065   1.324   1.560   8.344 -1.3336 -0.4670 -1.4680
  130OSM   H17G14066   1.387   1.417   8.434  2.1842 -0.1816 -2.7219
  130OSM   C18F14067   1.170   1.428   8.433 -0.6633 -0.6992  0.2150
  130OSM   H18F14068   1.088   1.467   8.369 -1.0548  0.4445  1.3613
  130OSM   H18G14069   1.180   1.499   8.518 -1.0322 -1.3772  0.8413
  130OSM   H18H14070   1.156   1.320   8.458  0.9473 -1.0112 -0.1334
  131OSM      N14071   0.227   5.599   5.995 -0.0811  0.0644  0.3283
  131OSM    C1514072   0.159   5.614   5.859 -0.3641 -0.3255 -0.1808
  131OSM   H15A14073   0.233   5.596   5.783 -0.6048  0.7427 -0.6820
  131OSM   H15B14074   0.103   5.706   5.857 -1.8747 -1.2242 -0.9635
  131OSM   H15C14075   0.091   5.530   5.851 -1.0949  0.2206  0.1904
  131OSM    C1414076   0.344   5.703   6.009  0.3030 -0.2466  0.2922
  131OSM   H14A14077   0.398   5.708   5.915  1.0403  0.6384  0.7498
  131OSM   H14B14078   0.402   5.665   6.091 -0.2736 -1.8449 -0.0080
  131OSM   H14C14079   0.308   5.803   6.033  0.4240  0.2319 -1.3885
  131OSM    C1314080   0.125   5.626   6.099  0.3406 -0.2277  0.3629
  131OSM   H13A14081   0.093   5.729   6.100  1.2445  0.0620  1.1660
  131OSM   H13B14082   0.165   5.623   6.199  0.5227  1.2782  0.3476
  131OSM   H13C14083   0.034   5.572   6.080 -0.1261  1.3339 -2.2605
  131OSM    C1214084   0.287   5.456   6.008 -0.2229  0.2539 -0.1183
  131OSM   H12A14085   0.353   5.434   5.925  1.2028 -0.7262  1.2127
  131OSM   H12B14086   0.211   5.379   5.998  2.5932 -2.9866  1.3528
  131OSM    C1114087   0.379   5.421   6.138  0.0781 -0.5524  0.1682
  131OSM   H11A14088   0.387   5.310   6.129  0.4391 -0.4112 -1.8503
  131OSM   H11B14089   0.317   5.443   6.227  0.1073 -1.3116  0.3806
  131OSM      P14090   0.639   5.425   6.117 -0.1604 -0.0368  0.3490
  131OSM    O1314091   0.628   5.337   5.996 -0.6628 -0.0512 -0.4857
  131OSM    O1414092   0.749   5.524   6.117 -0.3249  0.3653  0.6130
  131OSM    O1114093   0.652   5.329   6.241 -0.2190  0.7334  0.6202
  131OSM    O1214094   0.506   5.500   6.140 -0.3662  0.2319 -0.5359
  131OSM    C1S14095   0.609   5.369   6.369 -0.0108 -0.4991  0.3042
  131OSM    H1S14096   0.501   5.348   6.380  0.0599 -1.0758 -0.0531
  131OSM    H1T14097   0.629   5.474   6.399  0.3544 -0.9463  1.6935
  131OSM     NF14098   0.593   5.288   6.608 -0.7444 -0.0423  0.3025
  131OSM    HNF14099   0.628   5.358   6.670  1.1422 -1.3490  0.7886
  131OSM    C2S14100   0.665   5.271   6.480 -0.2992  0.0409 -0.1192
  131OSM    H2S14101   0.635   5.170   6.444  2.0116 -0.3978 -1.0058
  131OSM    C3S14102   0.819   5.274   6.491 -0.3414  0.1383  0.0781
  131OSM    H3S14103   0.852   5.373   6.530 -1.8428  0.5341  0.4183
  131OSM     O314104   0.886   5.258   6.367 -0.8594 -0.7859  0.1126
  131OSM    HO314105   0.811   5.247   6.309 -0.0327  0.0100 -1.1428
  131OSM    C4S14106   0.872   5.169   6.578 -0.0937  0.3958 -0.6269
  131OSM    H4S14107   0.837   5.067   6.559 -1.9958  1.0108 -0.5824
  131OSM    C5S14108   0.934   5.195   6.695  0.2162 -0.2217 -0.1019
  131OSM    H5S14109   0.949   5.297   6.731 -3.8805  0.5219 -0.0468
  131OSM    C6S14110   0.973   5.095   6.797  0.2157 -0.0457 -0.2155
  131OSM    H6S14111   1.083   5.077   6.807  0.1051 -0.5572  0.1575
  131OSM    H6T14112   0.938   4.992   6.773  0.8098  0.0084 -1.3932
  131OSM    C7S14113   0.925   5.128   6.933 -0.0574  0.2459  0.4928
  131OSM    H7S14114   0.814   5.129   6.922  0.1176 -0.6039 -2.0269
  131OSM    H7T14115   0.956   5.227   6.972  1.4311 -0.7247  1.9539
  131OSM    C8S14116   0.969   5.026   7.033 -0.2109 -0.2405  0.1635
  131OSM    H8S14117   1.079   5.024   7.019 -0.1326  2.3135 -0.1044
  131OSM    H8T14118   0.933   4.923   7.013  0.8040 -0.9776  1.9406
  131OSM    C9S14119   0.945   5.058   7.183 -0.4128 -0.7435 -0.2529
  131OSM    H9S14120   0.958   5.166   7.204  0.8195 -1.4073  2.8400
  131OSM    H9T14121   1.020   5.005   7.245 -0.4715 -0.9423 -0.3469
  131OSM   C10S14122   0.800   5.023   7.240 -0.1697 -0.1014 -0.5574
  131OSM   H10S14123   0.791   4.916   7.271 -0.2357 -0.0798 -0.4994
  131OSM   H10T14124   0.732   5.037   7.153 -0.5467  0.7529 -0.1381
  131OSM   C11S14125   0.757   5.105   7.365  0.2535  0.1413  0.3575
  131OSM   H11S14126   0.653   5.078   7.394  0.1294  1.2197  0.9607
  131OSM   H11T14127   0.771   5.213   7.341  1.3300  0.4621  2.2500
  131OSM   C12S14128   0.860   5.087   7.478  0.2494  0.1672  0.7430
  131OSM   H12S14129   0.962   5.114   7.444 -0.3652  0.7454 -0.7299
  131OSM   H12T14130   0.861   4.977   7.490  0.4444 -0.0022 -0.6334
  131OSM   C13S14131   0.809   5.156   7.600  0.1152 -0.4167 -0.1291
  131OSM   H13S14132   0.701   5.131   7.611  0.5820 -1.6552  2.3490
  131OSM   H13T14133   0.815   5.267   7.586  3.9915 -0.6761 -1.7687
  131OSM   C14S14134   0.893   5.121   7.729  0.1804 -0.1682  0.7452
  131OSM   H14S14135   0.991   5.171   7.713 -0.7911  1.3785 -0.7394
  131OSM   H14T14136   0.900   5.011   7.743  0.1402 -0.1195  1.1520
  131OSM   C15S14137   0.829   5.191   7.849 -0.1174  1.1635 -0.4379
  131OSM   H15S14138   0.721   5.164   7.850 -0.8568  3.6548  2.7931
  131OSM   H15T14139   0.824   5.300   7.827 -0.0446  1.5012  1.1170
  131OSM   C16S14140   0.888   5.154   7.988 -0.8001  0.8942 -0.2128
  131OSM   H16S14141   0.999   5.156   7.985 -0.7689  1.6595  0.8363
  131OSM   H16T14142   0.845   5.060   8.028 -1.0798  0.7388 -0.8752
  131OSM   C17S14143   0.837   5.245   8.100 -0.0263  0.1663  0.4019
  131OSM   H17S14144   0.726   5.256   8.094 -0.1417  0.7298  2.5416
  131OSM   H17T14145   0.879   5.345   8.075  1.6997 -0.7080 -0.3497
  131OSM   C18S14146   0.883   5.208   8.243 -0.3016 -0.5273 -0.0674
  131OSM   H18S14147   0.994   5.208   8.238 -0.2910 -0.3308  0.1253
  131OSM   H18T14148   0.862   5.105   8.278  1.1162 -0.2776  1.6411
  131OSM   H18U14149   0.849   5.281   8.320  1.6295  0.2298  0.1205
  131OSM    C1F14150   0.475   5.240   6.630 -0.3084 -0.6105  0.1580
  131OSM     OF14151   0.430   5.149   6.555 -0.2159 -0.0344 -0.2378
  131OSM    C2F14152   0.396   5.292   6.741 -0.8678 -0.6700 -0.2112
  131OSM    H2F14153   0.313   5.357   6.706  0.8003  1.1514 -0.9466
  131OSM    H2G14154   0.462   5.356   6.803  0.4139 -1.7380 -0.4089
  131OSM    C3F14155   0.343   5.168   6.824  0.2770  0.1508  0.4521
  131OSM    H3F14156   0.426   5.100   6.851 -0.0756  0.1778  1.6559
  131OSM    H3G14157   0.282   5.112   6.749  2.5891  0.5835 -1.8837
  131OSM    C4F14158   0.266   5.203   6.952  0.1183 -0.0760  0.3721
  131OSM    H4F14159   0.225   5.108   6.992  1.4091 -1.5813 -1.6694
  131OSM    H4G14160   0.185   5.271   6.917  0.1465 -1.0272 -1.6903
  131OSM    C5F14161   0.341   5.277   7.059  0.9915  0.4696 -0.3756
  131OSM    H5F14162   0.364   5.385   7.047 -0.0808  0.9652  1.5663
  131OSM    H5G14163   0.432   5.216   7.075 -1.2184 -2.4620  2.3218
  131OSM    C6F14164   0.262   5.283   7.199  0.5802 -0.0211  0.0269
  131OSM    H6F14165   0.226   5.181   7.222 -0.5915  0.5882  1.0156
  131OSM    H6G14166   0.184   5.362   7.200  2.2176  1.6766  0.0693
  131OSM    C7F14167   0.359   5.319   7.306 -0.5178  0.0912 -0.2409
  131OSM    H7F14168   0.376   5.428   7.316 -1.0553  0.1580 -0.0168
  131OSM    H7G14169   0.456   5.270   7.284 -2.2655 -2.4394 -3.0851
  131OSM    C8F14170   0.310   5.266   7.446  0.6729 -0.2641  0.4761
  131OSM    H8F14171   0.383   5.292   7.525  0.0921 -0.8482  1.2333
  131OSM    H8G14172   0.309   5.156   7.430  1.6006  0.0294 -2.1071
  131OSM    C9F14173   0.174   5.314   7.496  0.1562 -0.0625 -0.0268
  131OSM    H9F14174   0.089   5.307   7.427  1.1558 -0.0545 -1.2895
  131OSM   C10F14175   0.140   5.366   7.616  0.0030  0.0592  0.3679
  131OSM   H10F14176   0.036   5.399   7.629  0.7450  2.7289  0.0118
  131OSM   C11F14177   0.237   5.396   7.731  0.1508 -0.0221 -0.5574
  131OSM   H11F14178   0.308   5.481   7.719 -1.7026  1.8235  0.8807
  131OSM   H11G14179   0.309   5.313   7.749 -0.8721 -0.5090  1.5458
  131OSM   C12F14180   0.165   5.408   7.861  0.2207 -0.7626 -0.3669
  131OSM   H12F14181   0.127   5.306   7.884 -1.5107 -1.0460 -3.7867
  131OSM   H12G14182   0.071   5.466   7.844  0.8863  0.2253 -0.7863
  131OSM   C13F14183   0.252   5.472   7.973  0.2016 -0.2307  0.4739
  131OSM   H13F14184   0.288   5.572   7.938  1.0429  0.3690  2.8557
  131OSM   H13G14185   0.345   5.413   7.988  2.4564  2.6599 -0.9132
  131OSM   C14F14186   0.171   5.498   8.097 -0.3769  0.4757 -0.4622
  131OSM   H14F14187   0.100   5.414   8.107 -1.6272  1.3311 -1.7394
  131OSM   H14G14188   0.115   5.592   8.078 -0.1418  0.5005 -1.0326
  131OSM   C15F14189   0.265   5.500   8.222  0.5412  0.1595  0.9462
  131OSM   H15F14190   0.202   5.532   8.308  1.1879  0.0686  1.4575
  131OSM   H15G14191   0.348   5.573   8.210  0.2810  0.5769  1.6487
  131OSM   C16F14192   0.320   5.361   8.249 -0.4483 -0.2925 -0.1187
  131OSM   H16F14193   0.383   5.328   8.163  1.0764  1.0449  0.4314
  131OSM   H16G14194   0.236   5.290   8.258  0.3711 -1.5574 -1.7936
  131OSM   C17F14195   0.411   5.357   8.375 -0.4185 -0.1803  0.1967
  131OSM   H17F14196   0.357   5.417   8.451 -0.5909  1.0155 -0.8380
  131OSM   H17G14197   0.500   5.421   8.354 -0.2976 -0.1795  0.6980
  131OSM   C18F14198   0.463   5.218   8.414 -0.1876  0.5534 -0.3455
  131OSM   H18F14199   0.485   5.155   8.326  0.8861  1.4993 -0.7811
  131OSM   H18G14200   0.383   5.162   8.468 -1.3024  0.9596 -1.5199
  131OSM   H18H14201   0.562   5.229   8.463  0.2091  2.0380 -1.4443
  132OSM      N14202   4.119   5.397   5.951 -0.0767  0.2347 -0.3466
  132OSM    C1514203   4.169   5.335   6.075  0.0688  0.3142 -0.5139
  132OSM   H15A14204   4.185   5.228   6.075  0.8097  0.4169  0.2244
  132OSM   H15B14205   4.091   5.353   6.147 -1.1670  0.6065 -1.8567
  132OSM   H15C14206   4.251   5.385   6.123 -1.1571  1.5509  0.3768
  132OSM    C1414207   4.235   5.405   5.848  0.1382  0.6869  0.5988
  132OSM   H14A14208   4.306   5.481   5.875  2.8257 -1.1648 -0.8547
  132OSM   H14B14209   4.202   5.409   5.745 -1.0380 -3.5285  0.6018
  132OSM   H14C14210   4.285   5.309   5.851 -0.6881  0.1599 -0.9671
  132OSM    C1314211   4.017   5.306   5.886 -0.0086  0.4286 -0.4256
  132OSM   H13A14212   3.984   5.357   5.797 -1.7394  0.5542  0.2420
  132OSM   H13B14213   3.933   5.274   5.947  0.9265  0.2527  0.8000
  132OSM   H13C14214   4.070   5.216   5.860  1.6118  0.3423  2.6363
  132OSM    C1214215   4.068   5.534   5.985 -0.4771  0.1928 -0.1638
  132OSM   H12A14216   4.036   5.591   5.899 -1.9123  1.8500  1.3701
  132OSM   H12B14217   4.147   5.589   6.034  1.6488 -1.4729 -1.5268
  132OSM    C1114218   3.940   5.542   6.064 -0.4939  0.1373 -0.1919
  132OSM   H11A14219   3.859   5.496   6.004 -1.5545  0.4481  0.9610
  132OSM   H11B14220   3.917   5.650   6.077 -1.3646  0.3558 -2.8532
  132OSM      P14221   3.827   5.374   6.235  0.2883  0.1815  0.2033
  132OSM    O1314222   3.707   5.388   6.148  0.0715  0.1350 -0.3823
  132OSM    O1414223   3.890   5.241   6.236 -0.1974  0.5376  0.1259
  132OSM    O1114224   3.793   5.415   6.384  0.2722  0.2875  0.2880
  132OSM    O1214225   3.945   5.483   6.192 -0.0574 -0.4105  0.1846
  132OSM    C1S14226   3.852   5.342   6.488  0.4198  0.0704 -0.5781
  132OSM    H1S14227   3.962   5.353   6.476  0.2185  1.0652 -1.5819
  132OSM    H1T14228   3.822   5.236   6.472 -1.9038  0.6274 -0.2881
  132OSM     NF14229   3.887   5.297   6.718 -1.1073  0.1962 -0.4075
  132OSM    HNF14230   3.840   5.215   6.753 -0.0443 -1.7526 -3.2310
  132OSM    C2S14231   3.814   5.380   6.632  0.6844 -0.6298  0.7501
  132OSM    H2S14232   3.855   5.482   6.646 -0.0662 -0.4509  1.7693
  132OSM    C3S14233   3.657   5.379   6.644  0.2622 -0.1150 -0.7412
  132OSM    H3S14234   3.614   5.280   6.616 -0.3575 -0.1019  0.0989
  132OSM     O314235   3.595   5.463   6.551 -0.1301 -0.1473  0.2700
  132OSM    HO314236   3.663   5.493   6.491 -0.1419 -0.2128  0.2239
  132OSM    C4S14237   3.621   5.416   6.787 -0.0161 -0.1315  0.4061
  132OSM    H4S14238   3.608   5.523   6.809  1.6103  0.4388 -1.1486
  132OSM    C5S14239   3.581   5.324   6.882 -0.4661  0.3614  0.6178
  132OSM    H5S14240   3.571   5.216   6.862  0.3426  0.4556 -0.3760
  132OSM    C6S14241   3.524   5.355   7.017 -0.5346  0.5772  0.0116
  132OSM    H6S14242   3.596   5.341   7.100 -0.5997 -0.2332 -0.0593
  132OSM    H6T14243   3.438   5.287   7.032  0.3677 -0.8838 -1.1086
  132OSM    C7S14244   3.470   5.501   7.033 -0.0420 -0.1134 -0.1508
  132OSM    H7S14245   3.395   5.519   6.953  0.4286  1.3675 -0.2929
  132OSM    H7T14246   3.564   5.557   7.017 -0.3704  0.4283 -0.2263
  132OSM    C8S14247   3.412   5.546   7.171 -0.0019 -0.4106  0.0729
  132OSM    H8S14248   3.307   5.513   7.187  0.6575 -2.6533  0.0592
  132OSM    H8T14249   3.403   5.654   7.149 -1.1204 -0.2916  0.9989
  132OSM    C9S14250   3.493   5.516   7.300 -0.4002 -0.4947  0.0346
  132OSM    H9S14251   3.589   5.567   7.282 -0.6984  0.6606  1.4684
  132OSM    H9T14252   3.507   5.408   7.319  1.2684 -0.0221  1.8142
  132OSM   C10S14253   3.419   5.572   7.420  0.4085  0.6580  0.4365
  132OSM   H10S14254   3.325   5.514   7.430  0.9554 -0.7415 -1.7843
  132OSM   H10T14255   3.397   5.678   7.393 -0.9564  0.4603  0.7144
  132OSM   C11S14256   3.493   5.559   7.547 -0.8821  0.3421 -0.2321
  132OSM   H11S14257   3.600   5.590   7.539 -0.8668  0.2690 -0.3192
  132OSM   H11T14258   3.501   5.450   7.564  0.6480  0.3645 -0.5976
  132OSM   C12S14259   3.406   5.625   7.658 -0.2033 -0.3489  0.2685
  132OSM   H12S14260   3.303   5.585   7.663  0.6447 -2.5520  1.8125
  132OSM   H12T14261   3.414   5.734   7.642 -0.9208 -0.5540 -1.7840
  132OSM   C13S14262   3.468   5.585   7.793  0.2514 -0.0248 -0.0165
  132OSM   H13S14263   3.572   5.624   7.795  1.7245 -3.3789 -2.6311
  132OSM   H13T14264   3.479   5.475   7.805 -1.5062 -0.2182  0.0795
  132OSM   C14S14265   3.380   5.641   7.911 -0.1018 -0.9516 -0.1523
  132OSM   H14S14266   3.286   5.583   7.898 -1.8558  2.2555 -3.6643
  132OSM   H14T14267   3.340   5.744   7.907  1.4332 -0.1999  2.0798
  132OSM   C15S14268   3.452   5.614   8.042 -0.1307 -0.7668 -0.1884
  132OSM   H15S14269   3.541   5.680   8.031  0.1288 -1.0093  0.4206
  132OSM   H15T14270   3.468   5.504   8.041 -0.4197 -0.8249  0.6043
  132OSM   C16S14271   3.390   5.678   8.168  0.0959  0.7200 -0.4162
  132OSM   H16S14272   3.283   5.651   8.175  0.2775  0.0900  0.0815
  132OSM   H16T14273   3.405   5.787   8.154 -0.4792  0.5443 -2.6876
  132OSM   C17S14274   3.459   5.615   8.291 -0.0761  0.4933  0.5513
  132OSM   H17S14275   3.570   5.627   8.289  0.0720 -0.7680 -0.6064
  132OSM   H17T14276   3.457   5.504   8.293 -1.1843  0.3121 -2.9737
  132OSM   C18S14277   3.404   5.659   8.427  0.0455  0.0854  0.2521
  132OSM   H18S14278   3.371   5.765   8.425 -0.8329 -0.1873 -1.1808
  132OSM   H18T14279   3.481   5.637   8.504  1.7009 -0.5616 -1.5187
  132OSM   H18U14280   3.312   5.602   8.451  0.0354 -1.0535 -2.2074
  132OSM    C1F14281   4.013   5.326   6.761 -0.0656  0.4868 -0.1165
  132OSM     OF14282   4.063   5.439   6.750 -0.0634  0.7094  0.2059
  132OSM    C2F14283   4.077   5.220   6.842 -0.2090  0.3227  0.6235
  132OSM    H2F14284   4.172   5.177   6.803 -0.8981  0.8418 -1.8239
  132OSM    H2G14285   4.004   5.137   6.851 -0.9807  1.0529  1.2110
  132OSM    C3F14286   4.107   5.279   6.981 -0.4086 -0.4343 -0.7464
  132OSM    H3F14287   4.012   5.308   7.032  0.2845 -2.8674  2.2071
  132OSM    H3G14288   4.172   5.369   6.973 -1.7458  0.6334 -0.0626
  132OSM    C4F14289   4.181   5.182   7.083  0.4577 -0.7782 -0.6157
  132OSM    H4F14290   4.282   5.147   7.054  1.3631  0.4041  0.9604
  132OSM    H4G14291   4.119   5.090   7.082 -2.6082  1.1237 -1.9873
  132OSM    C5F14292   4.178   5.249   7.221 -0.5181  0.3223 -0.2676
  132OSM    H5F14293   4.084   5.308   7.231  1.0291  2.9545 -0.2561
  132OSM    H5G14294   4.242   5.339   7.223  1.0133 -0.7299  0.7296
  132OSM    C6F14295   4.191   5.148   7.335 -0.0090  0.1822 -0.4072
  132OSM    H6F14296   4.288   5.097   7.355  0.2184  0.7599 -0.0038
  132OSM    H6G14297   4.114   5.070   7.320 -1.1815  1.4173 -0.9612
  132OSM    C7F14298   4.170   5.213   7.475  0.5802 -0.1596  0.1052
  132OSM    H7F14299   4.068   5.257   7.474  0.8050  0.3831  0.5159
  132OSM    H7G14300   4.252   5.285   7.493  0.7066 -0.5731  1.2897
  132OSM    C8F14301   4.175   5.128   7.606 -0.4506  0.6684  0.2661
  132OSM    H8F14302   4.279   5.092   7.617 -1.3184 -3.5363 -2.8210
  132OSM    H8G14303   4.113   5.038   7.588 -1.4445  1.4226 -0.1980
  132OSM    C9F14304   4.120   5.204   7.726  1.0451 -0.6165 -0.3429
  132OSM    H9F14305   4.020   5.242   7.701  0.2789 -0.3236  2.7585
  132OSM   C10F14306   4.172   5.221   7.851 -0.3682  0.0453  1.1597
  132OSM   H10F14307   4.126   5.284   7.928  0.6890  0.0900  1.7815
  132OSM   C11F14308   4.302   5.170   7.889 -0.1990  0.2803  0.2808
  132OSM   H11F14309   4.381   5.248   7.884  0.9336 -0.8151  0.3301
  132OSM   H11G14310   4.333   5.090   7.818 -1.1706 -0.2947  0.4982
  132OSM   C12F14311   4.313   5.105   8.026 -0.2324  0.2156 -0.3399
  132OSM   H12F14312   4.232   5.029   8.033 -0.5611  0.6058  0.1892
  132OSM   H12G14313   4.293   5.179   8.107  1.0250 -0.1284  0.3019
  132OSM   C13F14314   4.450   5.046   8.070  0.5760  0.5142 -0.0046
  132OSM   H13F14315   4.530   5.118   8.042  1.8057 -0.9200 -0.3575
  132OSM   H13G14316   4.469   4.948   8.021  0.6329  0.6326 -0.2222
  132OSM   C14F14317   4.463   5.006   8.227 -0.2117  0.4469  0.2962
  132OSM   H14F14318   4.550   4.937   8.232 -0.6787 -0.3121 -1.3796
  132OSM   H14G14319   4.376   4.940   8.249 -0.7617  0.8435 -0.5895
  132OSM   C15F14320   4.462   5.113   8.330 -0.3399 -0.3514  0.0964
  132OSM   H15F14321   4.491   5.079   8.432 -0.3538 -1.8905 -0.3968
  132OSM   H15G14322   4.357   5.146   8.347 -0.7164 -0.5051 -1.7109
  132OSM   C16F14323   4.546   5.236   8.305 -0.2464  0.2180  0.1690
  132OSM   H16F14324   4.520   5.280   8.206 -1.1531 -1.0538 -0.1890
  132OSM   H16G14325   4.647   5.190   8.304 -0.0168  0.7033 -1.2358
  132OSM   C17F14326   4.533   5.345   8.413 -0.1813  0.4515  0.3954
  132OSM   H17F14327   4.597   5.417   8.357 -1.3005  0.5772 -0.7657
  132OSM   H17G14328   4.586   5.307   8.503  0.4029 -1.7054 -0.8062
  132OSM   C18F14329   4.390   5.382   8.440  0.5638 -0.2817  0.3949
  132OSM   H18F14330   4.338   5.298   8.490 -0.9687 -0.7842 -1.8722
  132OSM   H18G14331   4.327   5.410   8.352 -0.6208  0.8929  1.5715
  132OSM   H18H14332   4.386   5.471   8.506 -0.7155  0.4568 -0.6111
  133OSM      N14333   3.145   5.456   5.878 -0.2354  0.6963 -0.0832
  133OSM    C1514334   3.244   5.395   5.980 -0.3227 -0.3158  0.1347
  133OSM   H15A14335   3.317   5.328   5.936 -0.6387 -0.5699 -0.0076
  133OSM   H15B14336   3.188   5.343   6.056  0.6915 -1.1928  0.3053
  133OSM   H15C14337   3.298   5.473   6.032  0.4965  0.1762 -1.4129
  133OSM    C1414338   3.226   5.508   5.761  0.8548  0.5788  0.3627
  133OSM   H14A14339   3.273   5.423   5.715 -0.6061  0.2592 -0.6066
  133OSM   H14B14340   3.306   5.568   5.802  0.6401  0.9654  0.2234
  133OSM   H14C14341   3.170   5.579   5.703 -0.3824 -1.3811 -0.9645
  133OSM    C1314342   3.044   5.355   5.821  0.1001 -1.4674 -0.5391
  133OSM   H13A14343   3.093   5.271   5.775 -2.2080 -2.6328 -0.9665
  133OSM   H13B14344   2.971   5.405   5.759  1.1449  2.2384  0.9423
  133OSM   H13C14345   2.983   5.326   5.905  0.2777 -0.4700 -0.0433
  133OSM    C1214346   3.062   5.560   5.946 -0.0953  0.6995 -0.3756
  133OSM   H12A14347   2.979   5.586   5.882 -0.9370  1.3875  0.9714
  133OSM   H12B14348   3.126   5.645   5.966  0.3699  0.7245 -1.8231
  133OSM    C1114349   2.993   5.538   6.083 -0.2925 -0.2285 -0.1452
  133OSM   H11A14350   2.938   5.632   6.108 -0.8502 -0.0013 -2.0777
  133OSM   H11B14351   3.079   5.518   6.151  0.4274 -0.5086 -1.1170
  133OSM      P14352   2.763   5.435   6.046  0.2442  0.0969  0.3192
  133OSM    O1314353   2.751   5.537   5.937  0.1054 -0.4168  0.8443
  133OSM    O1414354   2.723   5.295   6.018 -0.6907 -0.1094  0.0603
  133OSM    O1114355   2.696   5.502   6.178  0.0374 -0.0775 -0.1390
  133OSM    O1214356   2.914   5.426   6.095  0.2973  0.5664  0.1134
  133OSM    C1S14357   2.708   5.422   6.301 -0.5400  0.9221  0.1466
  133OSM    H1S14358   2.786   5.343   6.296 -0.1183  1.2594  1.1060
  133OSM    H1T14359   2.613   5.367   6.319 -0.0987 -0.1756 -0.7660
  133OSM     NF14360   2.761   5.430   6.544 -0.1575  0.1948 -0.3481
  133OSM    HNF14361   2.695   5.433   6.618  0.3199  0.9224  0.0519
  133OSM    C2S14362   2.734   5.512   6.429  0.1760  0.1810  0.8180
  133OSM    H2S14363   2.831   5.565   6.416  0.4163 -0.2987  0.6269
  133OSM    C3S14364   2.611   5.603   6.449 -0.4089 -0.8520  0.0695
  133OSM    H3S14365   2.529   5.528   6.452 -2.6414  1.3523 -1.2710
  133OSM     O314366   2.591   5.690   6.341  0.6584 -0.5162 -0.2587
  133OSM    HO314367   2.662   5.673   6.278  2.7970  1.8247  1.3620
  133OSM    C4S14368   2.609   5.678   6.579 -0.2560 -0.7811  0.2281
  133OSM    H4S14369   2.704   5.733   6.582 -2.0172  2.5149 -0.3776
  133OSM    C5S14370   2.519   5.681   6.678  0.0799 -0.1131  0.4089
  133OSM    H5S14371   2.428   5.619   6.671  0.1893 -0.3297  0.8811
  133OSM    C6S14372   2.533   5.774   6.793 -0.1245  1.0532  0.3159
  133OSM    H6S14373   2.502   5.716   6.883  0.0477 -0.4027 -0.5357
  133OSM    H6T14374   2.460   5.857   6.781 -2.4940 -1.2368 -2.1446
  133OSM    C7S14375   2.673   5.831   6.829 -0.1525  0.3605  0.0189
  133OSM    H7S14376   2.711   5.874   6.734 -1.0339 -3.4071 -2.2314
  133OSM    H7T14377   2.743   5.746   6.845  0.9110  0.8211 -1.8893
  133OSM    C8S14378   2.698   5.921   6.954 -0.2467 -0.0997  0.3024
  133OSM    H8S14379   2.638   6.015   6.948 -0.1310 -0.0976 -1.4338
  133OSM    H8T14380   2.803   5.954   6.968 -0.6091  1.8835 -1.1618
  133OSM    C9S14381   2.652   5.858   7.089 -0.4431  0.3750  0.2945
  133OSM    H9S14382   2.703   5.762   7.112 -2.0189 -0.4027  0.6719
  133OSM    H9T14383   2.550   5.817   7.068 -0.7195  1.7169 -1.1053
  133OSM   C10S14384   2.667   5.959   7.205 -0.3258 -0.4922 -0.1750
  133OSM   H10S14385   2.590   6.038   7.187 -0.5308  0.0700  2.6452
  133OSM   H10T14386   2.769   6.003   7.205 -0.0959 -0.8246 -3.2278
  133OSM   C11S14387   2.629   5.909   7.349  0.4645 -0.9179  0.6850
  133OSM   H11S14388   2.694   5.821   7.368 -0.1267 -1.9101 -1.5109
  133OSM   H11T14389   2.529   5.860   7.340 -0.4289  1.1409 -1.7782
  133OSM   C12S14390   2.647   6.011   7.465 -0.4035  0.0695 -0.8016
  133OSM   H12S14391   2.604   6.111   7.443 -2.5350 -0.7999 -0.8627
  133OSM   H12T14392   2.753   6.024   7.496 -0.4684 -2.4558  0.7417
  133OSM   C13S14393   2.580   5.959   7.591 -0.6344 -0.0692 -0.3216
  133OSM   H13S14394   2.624   5.861   7.620 -0.6474  0.0626  0.1459
  133OSM   H13T14395   2.472   5.947   7.568 -0.8476  0.6029  0.3183
  133OSM   C14S14396   2.606   6.059   7.713  0.0424  0.1639 -0.0005
  133OSM   H14S14397   2.528   6.138   7.713  0.5104  0.6583  1.7617
  133OSM   H14T14398   2.701   6.116   7.705  0.7559 -1.1751 -1.5602
  133OSM   C15S14399   2.595   5.981   7.841  0.3068  0.2913 -0.3547
  133OSM   H15S14400   2.684   5.915   7.844  2.7002  3.2691 -0.7391
  133OSM   H15T14401   2.500   5.923   7.842 -0.3329  1.1040  3.5452
  133OSM   C16S14402   2.607   6.070   7.965 -0.2219 -0.4139 -0.3114
  133OSM   H16S14403   2.514   6.130   7.971 -0.2024 -0.5191  2.0208
  133OSM   H16T14404   2.697   6.134   7.974 -0.2239 -0.5478  0.8807
  133OSM   C17S14405   2.614   6.001   8.100  0.0339 -0.7354 -0.0613
  133OSM   H17S14406   2.718   5.966   8.117  1.7106  3.0432 -1.5479
  133OSM   H17T14407   2.543   5.915   8.107 -2.7386  1.5194  1.2220
  133OSM   C18S14408   2.577   6.099   8.216  0.4405  0.3627  0.0467
  133OSM   H18S14409   2.652   6.182   8.218 -0.3979  1.1931 -1.4002
  133OSM   H18T14410   2.579   6.035   8.307  0.1102 -0.4365 -0.4958
  133OSM   H18U14411   2.472   6.132   8.203 -0.1155 -1.1801  0.4605
  133OSM    C1F14412   2.865   5.351   6.556 -0.3615 -0.0256  0.8827
  133OSM     OF14413   2.959   5.357   6.474  0.6863  0.5769  0.2362
  133OSM    C2F14414   2.863   5.251   6.666 -0.0261 -0.3679 -0.8467
  133OSM    H2F14415   2.947   5.181   6.647  0.1107 -0.3573 -0.3029
  133OSM    H2G14416   2.761   5.207   6.661 -1.5838  2.8643 -0.5235
  133OSM    C3F14417   2.879   5.306   6.809  0.2979 -0.0105 -0.6365
  133OSM    H3F14418   2.864   5.224   6.884  1.9177  0.8368  0.6817
  133OSM    H3G14419   2.805   5.386   6.829 -0.0447 -0.1167 -1.4325
  133OSM    C4F14420   3.013   5.382   6.830  1.0610 -0.2244 -0.3569
  133OSM    H4F14421   3.008   5.473   6.766 -1.3059 -0.1564 -0.1924
  133OSM    H4G14422   3.093   5.315   6.793  0.0591 -2.5543  1.4430
  133OSM    C5F14423   3.053   5.414   6.977  0.0541  0.0336  0.3653
  133OSM    H5F14424   2.982   5.489   7.017 -0.4539 -0.9647  1.4011
  133OSM    H5G14425   3.153   5.461   6.983  1.3781 -2.5664  0.1985
  133OSM    C6F14426   3.034   5.296   7.073  0.7273  0.0183 -0.1602
  133OSM    H6F14427   3.043   5.195   7.027 -0.8731 -0.3557  0.3103
  133OSM    H6G14428   2.928   5.294   7.105  0.4738  0.9966 -0.8807
  133OSM    C7F14429   3.126   5.300   7.202  0.5105 -0.3037 -0.2623
  133OSM    H7F14430   3.123   5.402   7.245  2.4386 -0.0402 -0.6664
  133OSM    H7G14431   3.224   5.262   7.166 -0.5900 -2.8425 -0.8146
  133OSM    C8F14432   3.087   5.200   7.319  1.0550 -0.5877 -0.0602
  133OSM    H8F14433   3.103   5.101   7.271 -1.7601 -0.0901 -2.3892
  133OSM    H8G14434   2.978   5.207   7.342  0.3664 -3.2552 -1.9021
  133OSM    C9F14435   3.175   5.217   7.439 -0.3242  0.7781 -0.7573
  133OSM    H9F14436   3.279   5.192   7.414 -0.0567 -0.8719  1.6639
  133OSM   C10F14437   3.147   5.246   7.569  0.0922 -0.1880  0.1056
  133OSM   H10F14438   3.226   5.259   7.644 -0.1084 -2.3545  0.7765
  133OSM   C11F14439   3.006   5.270   7.624  0.1803  0.1411 -0.3323
  133OSM   H11F14440   2.931   5.201   7.580  1.6653 -0.7821 -1.5321
  133OSM   H11G14441   2.982   5.378   7.613 -1.4548  0.0731  2.0532
  133OSM   C12F14442   2.993   5.256   7.779  0.1525 -0.1385  0.3370
  133OSM   H12F14443   3.036   5.158   7.810  3.6057  1.6905  1.9188
  133OSM   H12G14444   2.888   5.258   7.815 -0.6989 -0.1625 -1.9530
  133OSM   C13F14445   3.078   5.368   7.856  0.1107 -0.3849  0.2199
  133OSM   H13F14446   3.053   5.461   7.800  1.8222 -2.0779 -3.7663
  133OSM   H13G14447   3.186   5.346   7.846  0.1198  0.0524 -0.8340
  133OSM   C14F14448   3.043   5.391   8.004  0.0317  0.1057  0.0009
  133OSM   H14F14449   2.934   5.397   8.024 -0.0300 -2.2007  0.5930
  133OSM   H14G14450   3.088   5.487   8.038 -0.3231  1.0259 -1.9773
  133OSM   C15F14451   3.086   5.283   8.089  0.0733 -0.1119 -0.3573
  133OSM   H15F14452   3.197   5.274   8.082 -0.0551 -2.4969 -0.0506
  133OSM   H15G14453   3.049   5.185   8.054 -1.8253  0.6273 -0.5210
  133OSM   C16F14454   3.032   5.285   8.231 -0.8418 -0.2009  0.2615
  133OSM   H16F14455   3.031   5.181   8.271  0.4467 -1.4831 -2.6969
  133OSM   H16G14456   2.930   5.327   8.225 -0.7444  0.7223  3.3197
  133OSM   C17F14457   3.122   5.369   8.320 -0.3573  0.5840 -0.6600
  133OSM   H17F14458   3.111   5.469   8.274  3.8298  1.8985  0.7443
  133OSM   H17G14459   3.228   5.338   8.309  0.2859  2.2014  0.6118
  133OSM   C18F14460   3.084   5.378   8.463 -0.2066  0.3275 -0.2012
  133OSM   H18F14461   2.987   5.431   8.471 -0.8975 -0.8162 -0.6907
  133OSM   H18G14462   3.162   5.428   8.525  1.5399 -1.7620 -0.6006
  133OSM   H18H14463   3.073   5.273   8.499 -0.2860 -0.4363 -2.3541
  134OSM      N14464   2.649   0.713   6.232  0.4674  0.1104 -0.7306
  134OSM    C1514465   2.535   0.805   6.249  0.3467  0.2648 -0.0416
  134OSM   H15A14466   2.504   0.852   6.157 -0.0064 -1.7249 -1.0053
  134OSM   H15B14467   2.566   0.885   6.314 -0.6304  0.0804  0.6829
  134OSM   H15C14468   2.463   0.735   6.290 -0.4691  0.2998 -1.3704
  134OSM    C1414469   2.615   0.590   6.152 -0.4135 -0.4288  0.3408
  134OSM   H14A14470   2.697   0.521   6.137 -0.4184 -0.3420 -0.1004
  134OSM   H14B14471   2.565   0.607   6.058 -1.3294 -2.2128  0.4430
  134OSM   H14C14472   2.551   0.526   6.212  0.5698 -1.2219  0.5626
  134OSM    C1314473   2.755   0.796   6.172  0.7548  0.1909 -0.2077
  134OSM   H13A14474   2.741   0.826   6.069  0.8665  1.7865  0.2063
  134OSM   H13B14475   2.848   0.742   6.179 -0.1269 -1.4790 -0.9525
  134OSM   H13C14476   2.766   0.885   6.233 -1.7986  0.4583 -0.0005
  134OSM    C1214477   2.696   0.665   6.371  0.3166 -0.1278 -0.3419
  134OSM   H12A14478   2.775   0.594   6.354 -1.8261 -1.9789 -3.3271
  134OSM   H12B14479   2.607   0.622   6.414  0.3646  0.4108  0.3140
  134OSM    C1114480   2.749   0.768   6.471 -0.2778  0.0650 -0.1298
  134OSM   H11A14481   2.740   0.723   6.572  1.1688 -3.0059 -1.2364
  134OSM   H11B14482   2.682   0.857   6.467 -0.8589 -0.4082 -2.2568
  134OSM      P14483   2.996   0.697   6.444 -0.2301 -0.1049  0.6593
  134OSM    O1314484   2.997   0.616   6.319 -0.3984 -0.5936 -0.2315
  134OSM    O1414485   3.128   0.757   6.486  0.2277 -0.9888 -0.5956
  134OSM    O1114486   2.935   0.604   6.558 -0.0787 -0.8581 -0.2653
  134OSM    O1214487   2.887   0.810   6.438  0.3179  0.4148  0.5188
  134OSM    C1S14488   3.013   0.537   6.655 -0.5853  0.0332  0.2153
  134OSM    H1S14489   3.048   0.609   6.732 -2.7135 -0.2147  1.5031
  134OSM    H1T14490   3.106   0.491   6.616  1.1275  3.4132 -0.0767
  134OSM     NF14491   2.993   0.391   6.857 -0.3696 -0.3473 -0.1300
  134OSM    HNF14492   3.077   0.338   6.847  0.6937  1.1077  0.7927
  134OSM    C2S14493   2.933   0.424   6.724  0.2818  0.6317  0.0912
  134OSM    H2S14494   2.826   0.452   6.736  0.4140  0.6027  1.5326
  134OSM    C3S14495   2.936   0.297   6.623 -0.7888  0.2051  0.3653
  134OSM    H3S14496   3.044   0.274   6.622 -0.8932 -0.7119  2.7752
  134OSM     O314497   2.900   0.327   6.489  0.7810  0.1785  0.2004
  134OSM    HO314498   2.897   0.423   6.483 -1.9786  0.1315 -0.4881
  134OSM    C4S14499   2.852   0.192   6.678  0.1286 -0.5090 -0.0162
  134OSM    H4S14500   2.744   0.213   6.671  0.2824 -0.2139 -2.1588
  134OSM    C5S14501   2.908   0.084   6.721  0.2860  0.4996 -0.0782
  134OSM    H5S14502   3.014   0.067   6.696 -0.1952 -0.4198 -1.6810
  134OSM    C6S14503   2.830  -0.030   6.783 -0.0086 -0.3075 -0.3256
  134OSM    H6S14504   2.837  -0.120   6.718 -0.2266 -0.7917  0.3101
  134OSM    H6T14505   2.722  -0.003   6.788 -0.0475 -0.6435  0.8621
  134OSM    C7S14506   2.879  -0.063   6.925 -0.2201 -0.0791  0.3368
  134OSM    H7S14507   2.985  -0.095   6.916 -0.7347 -1.5484 -0.7994
  134OSM    H7T14508   2.821  -0.142   6.977 -2.8200  2.0167  0.9025
  134OSM    C8S14509   2.869   0.060   7.022 -0.4238  0.5229 -0.4204
  134OSM    H8S14510   2.763   0.091   7.037 -0.4200  0.6124 -0.5783
  134OSM    H8T14511   2.928   0.145   6.982  2.2934 -0.5614  1.0584
  134OSM    C9S14512   2.925   0.021   7.165 -0.3513  0.0717 -0.6050
  134OSM    H9S14513   3.013  -0.044   7.147 -0.8743  0.1022 -3.8138
  134OSM    H9T14514   2.840  -0.030   7.217 -0.0407 -0.3434 -0.4953
  134OSM   C10S14515   2.957   0.138   7.258 -1.2355  0.2957  0.2031
  134OSM   H10S14516   2.867   0.194   7.292 -0.4708 -0.2538  3.4105
  134OSM   H10T14517   3.016   0.213   7.201 -0.4080  0.8882  1.7644
  134OSM   C11S14518   3.013   0.103   7.395  0.6532 -0.0788  0.0479
  134OSM   H11S14519   3.024   0.186   7.467  0.6285 -1.7175  2.0500
  134OSM   H11T14520   3.116   0.065   7.381  0.5972  0.0712 -0.7909
  134OSM   C12S14521   2.935  -0.002   7.478 -0.2165  0.5901  0.0274
  134OSM   H12S14522   2.939  -0.102   7.428  1.4634  0.3838  0.5024
  134OSM   H12T14523   2.830   0.030   7.493 -0.6465 -0.8144  0.1974
  134OSM   C13S14524   2.980  -0.022   7.625 -0.3291 -0.3449  0.1840
  134OSM   H13S14525   3.090  -0.030   7.612 -0.4709 -0.3343 -1.1998
  134OSM   H13T14526   2.943  -0.119   7.666  3.9933 -3.1098 -1.7454
  134OSM   C14S14527   2.943   0.096   7.712 -0.3508  0.0656 -0.0715
  134OSM   H14S14528   2.836   0.119   7.693 -0.5981 -1.7608 -1.1511
  134OSM   H14T14529   3.009   0.181   7.688  0.4119 -0.1010  1.3397
  134OSM   C15S14530   2.961   0.066   7.862 -0.6220  0.3506  0.0073
  134OSM   H15S14531   3.061   0.026   7.891 -0.1449  0.9292 -0.8049
  134OSM   H15T14532   2.888  -0.013   7.888 -0.2717  0.4337  1.3486
  134OSM   C16S14533   2.943   0.190   7.955  0.4932  0.4117  0.1439
  134OSM   H16S14534   2.835   0.215   7.958  0.2773 -0.3752 -0.7153
  134OSM   H16T14535   3.003   0.279   7.926 -0.6634  1.4817  0.9129
  134OSM   C17S14536   2.979   0.161   8.101  0.3578  0.0827 -0.6382
  134OSM   H17S14537   2.942   0.254   8.149  2.2263  0.8116 -0.5343
  134OSM   H17T14538   3.087   0.166   8.126 -0.4317 -0.1578  3.5076
  134OSM   C18S14539   2.908   0.049   8.167 -0.1352  0.0855  0.4769
  134OSM   H18S14540   2.931   0.042   8.275 -0.1258  3.1118  0.7402
  134OSM   H18T14541   2.937  -0.047   8.119 -0.4681  0.2684 -0.0972
  134OSM   H18U14542   2.798   0.052   8.158 -0.3074 -1.2236  1.8941
  134OSM    C1F14543   2.979   0.473   6.962  0.0384  0.7892 -0.0251
  134OSM     OF14544   2.880   0.542   6.964  0.1404  0.1931 -0.0980
  134OSM    C2F14545   3.085   0.468   7.065 -0.0413  0.2326 -0.6620
  134OSM    H2F14546   3.164   0.540   7.034 -0.7520  1.6629  0.6827
  134OSM    H2G14547   3.111   0.361   7.078 -1.9766 -0.1335  0.4479
  134OSM    C3F14548   3.037   0.527   7.199 -0.6813  0.2480 -0.0011
  134OSM    H3F14549   2.932   0.493   7.213 -0.1841 -1.0947  0.7079
  134OSM    H3G14550   3.041   0.636   7.182  1.7236  0.4034  1.1330
  134OSM    C4F14551   3.114   0.489   7.331 -0.5081  0.0537  0.6381
  134OSM    H4F14552   3.220   0.524   7.327 -1.4811  3.1699 -0.9642
  134OSM    H4G14553   3.125   0.378   7.337 -0.0052 -0.0176 -1.0094
  134OSM    C5F14554   3.043   0.546   7.447 -0.0635  0.5025 -0.0221
  134OSM    H5F14555   2.943   0.497   7.439  0.8308 -1.1933 -1.2975
  134OSM    H5G14556   3.031   0.657   7.440 -0.9865  0.3481 -1.1866
  134OSM    C6F14557   3.103   0.521   7.584 -0.6362 -0.5617  0.0781
  134OSM    H6F14558   3.214   0.526   7.580 -0.5518 -2.4529 -1.6397
  134OSM    H6G14559   3.070   0.419   7.614 -1.9866  0.6020  2.9139
  134OSM    C7F14560   3.049   0.626   7.689  0.1566  0.2127 -0.2298
  134OSM    H7F14561   2.939   0.613   7.696  0.1340 -0.3986 -1.3804
  134OSM    H7G14562   3.066   0.727   7.648  1.7937 -0.5801 -1.6264
  134OSM    C8F14563   3.120   0.603   7.823  0.2776 -0.6495  0.4247
  134OSM    H8F14564   3.229   0.621   7.814 -0.2674  2.9899 -0.4859
  134OSM    H8G14565   3.102   0.498   7.854  0.0743 -1.2473 -1.5648
  134OSM    C9F14566   3.062   0.701   7.923 -0.0794 -0.4122 -1.4367
  134OSM    H9F14567   3.075   0.804   7.887  3.7142 -0.4674 -0.6112
  134OSM   C10F14568   3.019   0.678   8.046 -0.1707  0.3688 -0.3236
  134OSM   H10F14569   2.970   0.761   8.098 -0.9281 -1.0997  1.4205
  134OSM   C11F14570   3.011   0.554   8.124 -0.3747  0.6522 -0.3904
  134OSM   H11F14571   3.070   0.466   8.088  0.5422  0.6396  1.0369
  134OSM   H11G14572   2.904   0.526   8.131 -0.0421 -1.1654 -1.7000
  134OSM   C12F14573   3.071   0.580   8.261 -0.3263  0.3415  0.0303
  134OSM   H12F14574   3.021   0.668   8.306  0.7811  0.0023  2.0320
  134OSM   H12G14575   3.179   0.605   8.256 -0.1600 -0.2455  0.5985
  134OSM   C13F14576   3.068   0.449   8.351  0.3261  0.2191 -0.3211
  134OSM   H13F14577   3.133   0.479   8.437 -1.3536  1.5995  0.5208
  134OSM   H13G14578   3.128   0.367   8.305 -1.8977 -1.2271 -0.7815
  134OSM   C14F14579   2.941   0.396   8.407 -0.2094  0.3461 -0.1729
  134OSM   H14F14580   2.870   0.389   8.322 -0.0009  2.3942 -0.5744
  134OSM   H14G14581   2.901   0.476   8.472 -0.4623 -0.0392  0.1513
  134OSM   C15F14582   2.952   0.273   8.492 -0.2488  0.2747 -0.4186
  134OSM   H15F14583   3.007   0.298   8.586 -0.5658  1.8225 -0.6119
  134OSM   H15G14584   3.019   0.208   8.431  1.7711 -1.1729  3.0486
  134OSM   C16F14585   2.813   0.222   8.519  0.0754  0.2229 -0.0325
  134OSM   H16F14586   2.783   0.183   8.420  0.1555 -1.9907  0.7502
  134OSM   H16G14587   2.743   0.299   8.558  1.4931  0.9996  1.0840
  134OSM   C17F14588   2.816   0.093   8.601 -0.0199  0.4395  0.2981
  134OSM   H17F14589   2.900   0.036   8.554 -0.8854  2.1006 -3.7102
  134OSM   H17G14590   2.730   0.026   8.579  1.2716 -1.3921  0.5690
  134OSM   C18F14591   2.834   0.105   8.749  0.1935 -0.1004 -0.3720
  134OSM   H18F14592   2.755   0.171   8.791  0.9776 -0.7507  2.3410
  134OSM   H18G14593   2.936   0.142   8.773  0.1011 -1.1167  1.9226
  134OSM   H18H14594   2.823   0.007   8.801 -0.9915 -0.5713 -1.4641
  135OSM      N14595   2.579   0.140   6.176  0.2728 -0.3161 -0.1318
  135OSM    C1514596   2.554  -0.008   6.155 -0.7793  0.9738  0.2920
  135OSM   H15A14597   2.459  -0.045   6.190 -1.1502  0.7305 -0.9047
  135OSM   H15B14598   2.632  -0.064   6.202 -0.4823  1.9392  0.9844
  135OSM   H15C14599   2.548  -0.024   6.048 -1.1104 -1.5234  0.6354
  135OSM    C1414600   2.717   0.171   6.119  0.8318 -0.3038 -0.7910
  135OSM   H14A14601   2.713   0.142   6.015 -0.8879 -1.5092 -0.4350
  135OSM   H14B14602   2.803   0.123   6.163 -0.5101 -1.0249  1.1840
  135OSM   H14C14603   2.735   0.277   6.114 -1.1477  0.0288 -2.3899
  135OSM    C1314604   2.481   0.223   6.096 -0.0649  0.6449  0.5019
  135OSM   H13A14605   2.380   0.186   6.106  0.7626 -1.0978  3.8035
  135OSM   H13B14606   2.513   0.223   5.993 -2.7302  0.7063 -0.4226
  135OSM   H13C14607   2.467   0.325   6.128 -0.9596  0.3464  1.1236
  135OSM    C1214608   2.564   0.164   6.324 -0.3852 -0.3656  0.2687
  135OSM   H12A14609   2.621   0.088   6.376 -0.6444  0.3308  1.6123
  135OSM   H12B14610   2.463   0.138   6.352 -0.5328 -0.3701 -0.2629
  135OSM    C1114611   2.610   0.303   6.377  0.0860  0.2187 -0.4787
  135OSM   H11A14612   2.703   0.341   6.329  0.6459 -1.4735 -0.8160
  135OSM   H11B14613   2.634   0.309   6.485 -0.3007 -3.7254  0.0057
  135OSM      P14614   2.379   0.418   6.418  0.4389 -0.0044 -0.5184
  135OSM    O1314615   2.336   0.553   6.382  0.5219 -0.0434 -0.8223
  135OSM    O1414616   2.280   0.309   6.406  0.2874 -0.1506  0.2967
  135OSM    O1114617   2.425   0.423   6.571 -0.4986  0.0658 -0.1908
  135OSM    O1214618   2.503   0.384   6.330 -0.1371  0.2044 -0.2765
  135OSM    C1S14619   2.506   0.529   6.619 -0.2113  0.0107  0.1720
  135OSM    H1S14620   2.475   0.628   6.578 -2.5652 -1.3405 -1.5914
  135OSM    H1T14621   2.611   0.520   6.585 -0.4842  0.5667 -0.8890
  135OSM     NF14622   2.601   0.635   6.824 -0.2429 -0.0546 -0.9466
  135OSM    HNF14623   2.678   0.600   6.876 -0.2574 -2.3484 -2.3418
  135OSM    C2S14624   2.504   0.539   6.778  0.6727 -0.4713  0.7270
  135OSM    H2S14625   2.400   0.567   6.806  1.0464  1.8377  0.0606
  135OSM    C3S14626   2.527   0.397   6.843  0.1534 -0.3580  0.1991
  135OSM    H3S14627   2.634   0.371   6.824  0.4754  1.7949 -1.4451
  135OSM     O314628   2.458   0.289   6.775  0.4611 -0.8955 -0.2857
  135OSM    HO314629   2.421   0.333   6.698  0.0600 -0.8350 -0.0610
  135OSM    C4S14630   2.490   0.395   6.985 -0.2048  0.5215 -0.0265
  135OSM    H4S14631   2.382   0.407   7.001 -0.4016  0.0628 -0.9664
  135OSM    C5S14632   2.574   0.373   7.090  0.6766  0.4934  0.1251
  135OSM    H5S14633   2.682   0.355   7.078  0.4437 -1.4182  0.5775
  135OSM    C6S14634   2.517   0.369   7.231 -0.4739  1.1723  0.6978
  135OSM    H6S14635   2.472   0.267   7.236  1.7614  0.0987  0.0847
  135OSM    H6T14636   2.443   0.449   7.251 -2.2352  0.7356 -3.1045
  135OSM    C7S14637   2.635   0.379   7.335  0.4477  0.1269  0.3334
  135OSM    H7S14638   2.706   0.463   7.325 -0.8960  1.1363 -1.2829
  135OSM    H7T14639   2.693   0.285   7.325 -0.0752 -0.1591 -0.0808
  135OSM    C8S14640   2.582   0.361   7.478  0.0425 -0.0744  0.1405
  135OSM    H8S14641   2.524   0.268   7.496  0.2787 -0.6392 -1.7742
  135OSM    H8T14642   2.516   0.449   7.495 -0.8029 -0.9589  1.7494
  135OSM    C9S14643   2.684   0.361   7.595  0.2159  0.0556  0.0797
  135OSM    H9S14644   2.741   0.456   7.590  0.4624 -0.1421 -1.5098
  135OSM    H9T14645   2.759   0.281   7.577 -1.2178 -0.8686 -2.4675
  135OSM   C10S14646   2.623   0.359   7.730  0.1615 -0.0545  0.0205
  135OSM   H10S14647   2.554   0.446   7.725 -0.3089 -0.4798 -3.4144
  135OSM   H10T14648   2.699   0.382   7.807 -1.7247 -1.0314  2.3023
  135OSM   C11S14649   2.548   0.228   7.783 -1.0182  0.2558 -0.8906
  135OSM   H11S14650   2.618   0.143   7.797  0.6527  1.2662 -2.6567
  135OSM   H11T14651   2.472   0.189   7.713 -2.2200  0.6610  0.1427
  135OSM   C12S14652   2.474   0.255   7.911 -0.1651 -0.8604 -0.1661
  135OSM   H12S14653   2.405   0.340   7.893 -0.9268 -1.0320  1.7359
  135OSM   H12T14654   2.549   0.288   7.986 -1.9702  1.8345  0.6089
  135OSM   C13S14655   2.397   0.135   7.965 -0.2079 -0.0446 -0.4677
  135OSM   H13S14656   2.465   0.048   7.981  0.3474  0.7549  1.9503
  135OSM   H13T14657   2.330   0.101   7.883  0.1762  1.0521 -1.2471
  135OSM   C14S14658   2.312   0.149   8.101 -0.1036 -0.4664  0.3208
  135OSM   H14S14659   2.266   0.052   8.127  0.8760 -0.3876  2.5269
  135OSM   H14T14660   2.231   0.217   8.065  1.3984  0.9465 -0.5577
  135OSM   C15S14661   2.388   0.195   8.220 -0.0093 -0.8394 -0.2242
  135OSM   H15S14662   2.459   0.277   8.195  0.5298 -0.8318  1.2503
  135OSM   H15T14663   2.440   0.113   8.273  1.3504 -1.7202 -2.7983
  135OSM   C16S14664   2.285   0.250   8.321  0.0810 -0.4217 -0.0004
  135OSM   H16S14665   2.214   0.170   8.352 -0.0484  0.4339  2.0643
  135OSM   H16T14666   2.233   0.324   8.255 -0.8523 -1.6156 -0.6366
  135OSM   C17S14667   2.348   0.320   8.440 -0.1426  0.0013 -0.1315
  135OSM   H17S14668   2.404   0.407   8.400 -1.7732  1.2675  0.2653
  135OSM   H17T14669   2.419   0.252   8.492  0.7497  1.2170  0.2879
  135OSM   C18S14670   2.240   0.378   8.529 -0.2818  0.4597  0.2341
  135OSM   H18S14671   2.163   0.424   8.464 -1.2085 -3.4982 -1.7607
  135OSM   H18T14672   2.283   0.462   8.588 -1.5373  0.2964  1.4563
  135OSM   H18U14673   2.190   0.301   8.593  1.2891 -1.0995 -0.3361
  135OSM    C1F14674   2.586   0.763   6.814 -0.1421 -0.4784 -0.1475
  135OSM     OF14675   2.479   0.809   6.781  0.1793 -0.0258  0.0365
  135OSM    C2F14676   2.704   0.855   6.840 -0.8328 -0.6184  0.1678
  135OSM    H2F14677   2.748   0.875   6.740  0.1041 -2.2194  0.2164
  135OSM    H2G14678   2.782   0.796   6.893 -0.5818 -0.1068  0.3779
  135OSM    C3F14679   2.675   0.983   6.925  0.0709 -0.2217 -0.1712
  135OSM    H3F14680   2.618   1.060   6.869  0.3485  1.0494  1.2282
  135OSM    H3G14681   2.776   1.024   6.945  0.3485 -1.0726  0.1850
  135OSM    C4F14682   2.619   0.969   7.066 -0.7059 -0.0409  0.5657
  135OSM    H4F14683   2.530   0.904   7.060 -1.9915  1.7051 -0.1015
  135OSM    H4G14684   2.585   1.068   7.105  0.7397 -0.6464  3.6815
  135OSM    C5F14685   2.715   0.893   7.161 -0.3931 -0.1432 -0.2486
  135OSM    H5F14686   2.808   0.952   7.143  0.3649 -0.7962  1.3892
  135OSM    H5G14687   2.727   0.790   7.121 -0.2638  0.1618 -1.0157
  135OSM    C6F14688   2.665   0.889   7.303  0.1962 -0.6461  0.4082
  135OSM    H6F14689   2.568   0.836   7.311 -0.4564  0.3246 -0.8116
  135OSM    H6G14690   2.642   0.994   7.330  1.5542 -0.0914 -0.4995
  135OSM    C7F14691   2.771   0.845   7.406 -0.6543 -0.2816  0.4209
  135OSM    H7F14692   2.854   0.915   7.383 -0.4995 -0.1580  1.3354
  135OSM    H7G14693   2.796   0.737   7.393  0.4239 -0.0014 -0.0062
  135OSM    C8F14694   2.735   0.869   7.554 -0.2100 -0.1130 -0.1882
  135OSM    H8F14695   2.713   0.978   7.552  1.2588  0.1996 -2.0849
  135OSM    H8G14696   2.827   0.850   7.614  0.1594  3.1886  0.4796
  135OSM    C9F14697   2.617   0.788   7.600 -0.5372  0.3134  0.1583
  135OSM    H9F14698   2.572   0.724   7.523  0.2462  0.6693 -0.6164
  135OSM   C10F14699   2.556   0.797   7.720  0.0968  0.6489 -0.0936
  135OSM   H10F14700   2.466   0.736   7.738  2.2907 -2.8504 -0.1196
  135OSM   C11F14701   2.604   0.886   7.829  0.3896  0.3301  0.1120
  135OSM   H11F14702   2.553   0.984   7.823 -1.2080 -0.5059 -1.0795
  135OSM   H11G14703   2.711   0.909   7.811  0.0872 -0.0354 -2.6877
  135OSM   C12F14704   2.571   0.834   7.972  0.1494  0.6697  0.1903
  135OSM   H12F14705   2.467   0.840   8.009  0.0474  0.6231 -0.0856
  135OSM   H12G14706   2.631   0.901   8.038  0.0836 -0.2502  1.2204
  135OSM   C13F14707   2.628   0.693   8.000  0.6624 -0.0545  0.1120
  135OSM   H13F14708   2.738   0.706   7.985  0.6665  1.9024  1.4573
  135OSM   H13G14709   2.593   0.613   7.931 -2.6111  1.8049 -0.5796
  135OSM   C14F14710   2.606   0.636   8.143 -0.4767  0.0914  0.1976
  135OSM   H14F14711   2.641   0.531   8.134  0.0130  0.4031 -2.3902
  135OSM   H14G14712   2.498   0.643   8.168 -0.8525 -0.5429 -1.1367
  135OSM   C15F14713   2.678   0.713   8.251 -1.2760 -0.1954  1.1579
  135OSM   H15F14714   2.644   0.818   8.236  2.9667  1.0182 -1.9633
  135OSM   H15G14715   2.789   0.712   8.242 -1.2902 -0.8458  1.0408
  135OSM   C16F14716   2.644   0.668   8.396 -0.6457 -0.1581  0.8487
  135OSM   H16F14717   2.691   0.571   8.424  0.6932  0.7418  1.8903
  135OSM   H16G14718   2.533   0.670   8.405 -0.6803 -0.5726  0.5706
  135OSM   C17F14719   2.680   0.772   8.509  0.4489 -0.2914  0.1636
  135OSM   H17F14720   2.640   0.735   8.606  1.2146 -0.4358  0.4361
  135OSM   H17G14721   2.623   0.865   8.487  0.5773 -0.9376 -3.4248
  135OSM   C18F14722   2.832   0.812   8.536  0.6118 -0.3578  0.4260
  135OSM   H18F14723   2.901   0.728   8.560  0.2730 -0.3992  1.2878
  135OSM   H18G14724   2.838   0.892   8.612  0.4064 -0.2760  0.3568
  135OSM   H18H14725   2.873   0.869   8.449  0.3065  0.3611  0.7465
  136OSM      N14726   0.062   4.043   6.149 -0.1291 -0.1679 -0.4539
  136OSM    C1514727   0.059   4.153   6.056 -0.1197 -1.2166 -0.4431
  136OSM   H15A14728   0.157   4.196   6.042 -1.0013  0.8141 -0.7838
  136OSM   H15B14729  -0.020   4.226   6.067 -1.2171 -2.4826  0.3901
  136OSM   H15C14730   0.023   4.113   5.962  1.5297 -2.3351 -0.6448
  136OSM    C1414731  -0.081   3.999   6.163  1.2665  0.2858  0.3417
  136OSM   H14A14732  -0.123   3.984   6.065  4.7001 -1.4261 -0.9880
  136OSM   H14B14733  -0.137   4.074   6.218 -1.6685 -2.1059  0.9209
  136OSM   H14C14734  -0.093   3.911   6.224 -0.0761 -0.8975 -1.5350
  136OSM    C1314735   0.136   3.929   6.078  0.1029  0.7686  0.0341
  136OSM   H13A14736   0.115   3.834   6.124 -1.2840  0.2326 -1.5969
  136OSM   H13B14737   0.240   3.936   6.106  0.5747  2.1915 -1.8630
  136OSM   H13C14738   0.126   3.926   5.970 -0.6958  0.1547  0.1162
  136OSM    C1214739   0.128   4.076   6.278  0.2890  0.4516 -0.1573
  136OSM   H12A14740   0.131   3.995   6.349  0.7432  0.9434  0.3917
  136OSM   H12B14741   0.060   4.142   6.330 -1.2017 -1.8858  0.9957
  136OSM    C1114742   0.269   4.127   6.260 -0.3979 -0.7965 -0.7501
  136OSM   H11A14743   0.309   4.163   6.357 -1.1156  0.2157 -0.8087
  136OSM   H11B14744   0.272   4.213   6.190  2.9216 -0.1066  0.0908
  136OSM      P14745   0.498   3.999   6.289 -0.4038 -0.3409 -0.1566
  136OSM    O1314746   0.542   3.864   6.252  0.1451  0.3455 -0.5235
  136OSM    O1414747   0.591   4.109   6.268 -0.1561  0.0131 -0.3976
  136OSM    O1114748   0.454   3.999   6.442  0.1306  0.1267 -0.1170
  136OSM    O1214749   0.364   4.032   6.212 -0.1765 -0.1274  0.4154
  136OSM    C1S14750   0.541   3.978   6.555  1.1037  0.3164  0.2344
  136OSM    H1S14751   0.647   4.006   6.537  1.9613 -1.2252  2.3656
  136OSM    H1T14752   0.549   3.869   6.575 -2.5373 -0.2914 -0.8997
  136OSM     NF14753   0.579   4.054   6.793 -0.0928 -0.2579 -0.5614
  136OSM    HNF14754   0.592   3.983   6.862  0.8416 -0.1022 -0.5621
  136OSM    C2S14755   0.481   4.041   6.688 -0.2698 -0.6463 -0.6804
  136OSM    H2S14756   0.446   4.141   6.656 -2.4061 -0.9825  0.3918
  136OSM    C3S14757   0.356   3.959   6.733  0.2136 -0.2923  0.0386
  136OSM    H3S14758   0.378   3.850   6.739 -1.2920 -0.6587 -0.7463
  136OSM     O314759   0.254   3.960   6.631  0.0236 -0.4053 -0.4806
  136OSM    HO314760   0.299   3.982   6.550 -2.2397  1.4972 -1.3253
  136OSM    C4S14761   0.299   4.015   6.866 -0.4391 -0.5488  0.1946
  136OSM    H4S14762   0.347   3.972   6.956 -0.2615 -0.8710 -0.0506
  136OSM    C5S14763   0.205   4.113   6.887  0.1437  0.3423 -0.1470
  136OSM    H5S14764   0.168   4.162   6.796 -0.2293 -0.0391 -0.2009
  136OSM    C6S14765   0.151   4.152   7.019 -0.3547 -0.6063 -0.3391
  136OSM    H6S14766   0.219   4.101   7.091  1.0382  0.0449 -1.1556
  136OSM    H6T14767   0.046   4.116   7.025 -1.2405  1.7965 -0.5164
  136OSM    C7S14768   0.148   4.303   7.049 -0.0193  0.9526  0.0829
  136OSM    H7S14769   0.113   4.346   6.952  1.4214  0.7702 -0.5493
  136OSM    H7T14770   0.255   4.331   7.054  0.2937 -0.1869  0.0386
  136OSM    C8S14771   0.071   4.352   7.174  0.0662  0.5710  0.5189
  136OSM    H8S14772  -0.033   4.312   7.173  0.5744 -0.8864 -1.2743
  136OSM    H8T14773   0.067   4.462   7.181 -0.7831  0.5009  1.4452
  136OSM    C9S14774   0.134   4.305   7.310  0.1814 -0.8869 -0.1840
  136OSM    H9S14775   0.243   4.284   7.302  0.3865  0.4728 -1.4381
  136OSM    H9T14776   0.080   4.211   7.338 -0.4707 -0.5149 -0.1735
  136OSM   C10S14777   0.128   4.410   7.418 -0.3652 -0.7347  0.4096
  136OSM   H10S14778   0.174   4.509   7.394 -1.6456 -0.4884 -1.1312
  136OSM   H10T14779   0.176   4.379   7.513  1.9144  0.2871 -0.3153
  136OSM   C11S14780  -0.011   4.451   7.453 -0.2357  0.6527  0.2642
  136OSM   H11S14781  -0.073   4.361   7.432 -0.2208  0.9517 -1.1487
  136OSM   H11T14782  -0.056   4.530   7.390 -0.2114  2.5932  2.5501
  136OSM   C12S14783  -0.035   4.509   7.597  0.2611  0.5733  1.2406
  136OSM   H12S14784  -0.140   4.540   7.611 -0.7682 -2.1092  0.1719
  136OSM   H12T14785   0.032   4.598   7.600 -2.1140  2.6388 -1.5601
  136OSM   C13S14786  -0.006   4.413   7.714  0.0040  0.2204  0.8948
  136OSM   H13S14787   0.103   4.406   7.734 -0.4075 -1.1093  2.9245
  136OSM   H13T14788  -0.053   4.318   7.680 -0.6074  0.8432 -0.0460
  136OSM   C14S14789  -0.084   4.452   7.835 -0.2867 -0.8937 -0.2976
  136OSM   H14S14790  -0.104   4.365   7.901  4.0002 -0.5067  1.8734
  136OSM   H14T14791  -0.183   4.482   7.793 -0.4349 -0.3869  0.3884
  136OSM   C15S14792  -0.019   4.562   7.927  0.5802 -0.3185  0.4421
  136OSM   H15S14793  -0.091   4.610   7.996  1.3420 -0.1334  1.1328
  136OSM   H15T14794   0.005   4.646   7.857 -1.0917  0.1294  0.3807
  136OSM   C16S14795   0.102   4.504   8.009  0.1295 -0.3220 -0.4500
  136OSM   H16S14796   0.168   4.587   8.041 -0.3921  0.3086 -0.9975
  136OSM   H16T14797   0.163   4.445   7.936 -1.6235  1.0789 -3.2410
  136OSM   C17S14798   0.072   4.421   8.132 -0.0139  0.1575  0.7280
  136OSM   H17S14799   0.047   4.317   8.101 -0.7393  1.0403 -1.9303
  136OSM   H17T14800  -0.005   4.472   8.193  0.7994  2.1080  0.1992
  136OSM   C18S14801   0.198   4.421   8.206 -0.0735  0.3184 -0.3982
  136OSM   H18S14802   0.209   4.325   8.261 -1.0158  0.1909 -0.4268
  136OSM   H18T14803   0.184   4.498   8.284 -0.3490  0.1689 -0.2998
  136OSM   H18U14804   0.293   4.437   8.150  0.3347 -2.7161 -0.7710
  136OSM    C1F14805   0.660   4.162   6.808  0.2344 -0.0568 -0.1377
  136OSM     OF14806   0.651   4.252   6.726 -0.5361 -0.1807 -0.3866
  136OSM    C2F14807   0.755   4.161   6.919  0.2675 -0.0898 -0.5382
  136OSM    H2F14808   0.776   4.269   6.936 -1.5148  0.4985 -1.6953
  136OSM    H2G14809   0.844   4.099   6.896  0.4333 -1.2062  2.6355
  136OSM    C3F14810   0.691   4.115   7.050  0.2118 -0.1763 -0.2307
  136OSM    H3F14811   0.661   4.009   7.036  1.3041 -0.4716 -0.4500
  136OSM    H3G14812   0.603   4.173   7.086  0.5696  1.1753 -1.4591
  136OSM    C4F14813   0.794   4.109   7.165  0.1891 -0.3050 -0.5561
  136OSM    H4F14814   0.825   4.210   7.200  0.4940 -0.6447  0.1810
  136OSM    H4G14815   0.883   4.044   7.145  0.2170 -0.9870  1.4990
  136OSM    C5F14816   0.736   4.039   7.288 -0.2930  0.0218  0.2873
  136OSM    H5F14817   0.717   3.939   7.244  1.2331  0.0991 -0.6206
  136OSM    H5G14818   0.638   4.075   7.325 -0.1895 -0.9808  1.5750
  136OSM    C6F14819   0.834   4.046   7.407 -0.9866 -0.0638 -0.3123
  136OSM    H6F14820   0.814   4.150   7.440 -3.3775 -0.3955 -0.5540
  136OSM    H6G14821   0.934   4.030   7.361 -1.1363 -1.0294 -0.3175
  136OSM    C7F14822   0.810   3.951   7.527  0.0731  0.2522 -0.0838
  136OSM    H7F14823   0.795   3.844   7.500  1.9955  0.1941 -1.1228
  136OSM    H7G14824   0.714   3.990   7.565 -1.3980 -0.1394 -3.0751
  136OSM    C8F14825   0.911   3.986   7.637 -0.8918  0.2877  0.1430
  136OSM    H8F14826   0.926   4.096   7.636  1.9145 -0.0428 -1.0387
  136OSM    H8G14827   1.012   3.947   7.615 -0.6122  0.8953  0.3329
  136OSM    C9F14828   0.879   3.924   7.766  0.4489  0.0098  0.0987
  136OSM    H9F14829   0.908   3.818   7.774 -2.3185 -0.7407  1.5538
  136OSM   C10F14830   0.832   3.993   7.873  0.5006 -0.2410  0.2024
  136OSM   H10F14831   0.811   3.935   7.964  0.0477  0.0003  0.2579
  136OSM   C11F14832   0.792   4.141   7.897 -0.1124  0.6516  0.0464
  136OSM   H11F14833   0.701   4.170   7.841 -0.3656 -1.4122 -0.6926
  136OSM   H11G14834   0.872   4.211   7.863  1.3849 -1.1185 -0.2252
  136OSM   C12F14835   0.773   4.176   8.039 -0.0669 -0.5828  0.6801
  136OSM   H12F14836   0.876   4.178   8.081  0.1848 -2.8925  0.2723
  136OSM   H12G14837   0.715   4.095   8.087 -0.9553  0.1580  0.8811
  136OSM   C13F14838   0.705   4.310   8.054  0.0902  0.0096 -0.4519
  136OSM   H13F14839   0.615   4.312   7.989 -0.4236 -0.6602  0.2134
  136OSM   H13G14840   0.772   4.385   8.009  2.7174 -1.4911  0.7350
  136OSM   C14F14841   0.679   4.371   8.194 -0.4144 -0.0039  0.0734
  136OSM   H14F14842   0.782   4.390   8.231  0.0738 -0.1658 -1.1820
  136OSM   H14G14843   0.627   4.300   8.262 -0.6906 -0.9559 -1.0946
  136OSM   C15F14844   0.602   4.501   8.182  0.0728  0.0943 -0.0216
  136OSM   H15F14845   0.502   4.475   8.142 -0.5595  0.7727  1.0915
  136OSM   H15G14846   0.635   4.573   8.104 -0.4760  0.8910  0.4632
  136OSM   C16F14847   0.572   4.581   8.309 -0.4969 -0.5160 -0.6232
  136OSM   H16F14848   0.671   4.616   8.346  0.0834 -0.8275 -1.8068
  136OSM   H16G14849   0.532   4.508   8.383  1.5301 -1.7702 -0.6676
  136OSM   C17F14850   0.478   4.700   8.284 -0.2038  0.5968  0.1510
  136OSM   H17F14851   0.470   4.729   8.391 -0.1577 -2.5386  1.0801
  136OSM   H17G14852   0.391   4.653   8.234 -0.5771 -0.2767  1.5623
  136OSM   C18F14853   0.536   4.811   8.193  0.8183  0.3701 -1.0431
  136OSM   H18F14854   0.623   4.862   8.240  1.8188 -1.2999 -0.9932
  136OSM   H18G14855   0.451   4.875   8.161  1.0129  1.7033  0.9609
  136OSM   H18H14856   0.569   4.766   8.097 -1.0652 -1.1743 -1.0280
  137OSM      N14857   3.536   5.895   6.229  0.2955 -0.0370 -1.0789
  137OSM    C1514858   3.637   6.001   6.198 -0.3666 -0.4126 -0.1433
  137OSM   H15A14859   3.619   6.077   6.272  0.7388  0.1419 -0.4253
  137OSM   H15B14860   3.611   6.057   6.109 -0.1301 -1.7307 -1.0691
  137OSM   H15C14861   3.734   5.956   6.208 -1.1866 -2.2491  0.1441
  137OSM    C1414862   3.404   5.948   6.193  0.0617  0.6592  0.9952
  137OSM   H14A14863   3.413   5.982   6.091 -3.1407  1.7704  0.9817
  137OSM   H14B14864   3.363   6.027   6.254 -0.4158 -0.0369  1.5860
  137OSM   H14C14865   3.328   5.873   6.177  0.9191  0.3119 -1.9512
  137OSM    C1314866   3.560   5.784   6.129 -0.5942 -0.0290  0.2695
  137OSM   H13A14867   3.558   5.826   6.030  1.0687 -2.2992 -0.8051
  137OSM   H13B14868   3.478   5.715   6.135 -0.7135  0.1628  1.0531
  137OSM   H13C14869   3.659   5.743   6.147  0.2050  0.7010 -2.0480
  137OSM    C1214870   3.532   5.844   6.374  0.2898 -0.3077  0.1715
  137OSM   H12A14871   3.452   5.772   6.366  0.5746 -0.6289  0.1665
  137OSM   H12B14872   3.501   5.928   6.434  2.1932 -0.1025  0.9337
  137OSM    C1114873   3.658   5.779   6.439  0.0748  0.3146 -0.2080
  137OSM   H11A14874   3.701   5.688   6.391  0.1913  0.1333  0.2260
  137OSM   H11B14875   3.632   5.744   6.541 -0.3970 -0.9536 -0.7463
  137OSM      P14876   3.747   5.998   6.560  0.4229  0.1277  0.0989
  137OSM    O1314877   3.827   6.111   6.507  0.2238 -0.6506  0.1361
  137OSM    O1414878   3.603   6.018   6.594  0.7737  0.3693  0.3421
  137OSM    O1114879   3.817   5.935   6.684 -0.1679  0.1973 -0.0453
  137OSM    O1214880   3.757   5.876   6.453 -0.0740  0.1235  0.0858
  137OSM    C1S14881   3.912   5.824   6.676  0.2928  0.0243 -0.3851
  137OSM    H1S14882   4.004   5.855   6.620  0.1841  1.2728  0.0948
  137OSM    H1T14883   3.867   5.736   6.626  1.5917 -0.6810 -0.3583
  137OSM     NF14884   4.080   5.705   6.822 -0.4394  0.3705 -0.1969
  137OSM    HNF14885   4.067   5.608   6.806  0.2967  0.3586 -0.7639
  137OSM    C2S14886   3.960   5.793   6.821  0.1376  0.3615  0.3796
  137OSM    H2S14887   3.986   5.886   6.875 -0.2062  0.8813 -0.3411
  137OSM    C3S14888   3.848   5.723   6.892 -0.3064  0.1255 -0.3215
  137OSM    H3S14889   3.822   5.631   6.834  1.6436 -0.5847 -0.1566
  137OSM     O314890   3.713   5.787   6.890 -0.0415 -0.5416  0.3486
  137OSM    HO314891   3.715   5.823   6.801  1.6338 -0.8441  0.2227
  137OSM    C4S14892   3.884   5.697   7.035  0.5550 -0.9502  0.3994
  137OSM    H4S14893   3.860   5.779   7.104 -1.7584 -1.5626  0.4183
  137OSM    C5S14894   3.906   5.573   7.082  0.2489 -0.1445 -0.5572
  137OSM    H5S14895   3.882   5.485   7.020 -2.4644 -0.5205  0.8792
  137OSM    C6S14896   3.933   5.527   7.225 -0.0994 -0.5815  0.1226
  137OSM    H6S14897   4.038   5.492   7.235 -0.4484 -2.5160 -2.1911
  137OSM    H6T14898   3.870   5.437   7.241 -0.6506 -1.4736 -5.3116
  137OSM    C7S14899   3.903   5.624   7.336  0.2543 -0.2512  0.6068
  137OSM    H7S14900   3.796   5.649   7.319 -0.1801 -2.9043 -1.2667
  137OSM    H7T14901   3.952   5.723   7.322 -1.6623  0.5582 -1.0396
  137OSM    C8S14902   3.918   5.561   7.472  0.2851 -0.2022 -0.5939
  137OSM    H8S14903   4.025   5.536   7.482  0.2181  0.0243  0.9608
  137OSM    H8T14904   3.863   5.465   7.469 -0.8861  0.4735 -1.7059
  137OSM    C9S14905   3.885   5.662   7.588 -0.2872 -0.0153  0.6405
  137OSM    H9S14906   3.785   5.703   7.563  0.1324  0.8797  0.3840
  137OSM    H9T14907   3.957   5.746   7.592  1.6863 -1.6442  1.8601
  137OSM   C10S14908   3.870   5.598   7.724 -0.6245  0.8019 -0.8160
  137OSM   H10S14909   3.818   5.500   7.720  0.4602  0.1991 -0.5241
  137OSM   H10T14910   3.817   5.660   7.799  0.1521 -0.2216  0.6292
  137OSM   C11S14911   4.010   5.568   7.784 -0.2360 -0.0619 -0.1127
  137OSM   H11S14912   4.080   5.645   7.745  0.4163 -0.7574 -0.3476
  137OSM   H11T14913   4.057   5.470   7.761  2.4668  0.7585  1.4617
  137OSM   C12S14914   4.022   5.597   7.931 -0.0481 -0.4653 -0.2376
  137OSM   H12S14915   3.993   5.704   7.943 -1.1104 -0.4572 -2.4054
  137OSM   H12T14916   4.127   5.575   7.963  1.2708  2.0320 -2.4683
  137OSM   C13S14917   3.925   5.511   8.015 -0.0838 -0.5391 -0.3104
  137OSM   H13S14918   3.925   5.408   7.975 -1.5826  0.1900 -2.3641
  137OSM   H13T14919   3.822   5.550   7.998 -1.0659 -3.2506 -1.0452
  137OSM   C14S14920   3.945   5.521   8.168 -0.2564 -0.6196  0.0978
  137OSM   H14S14921   4.056   5.532   8.172 -0.2558 -0.0126 -1.0901
  137OSM   H14T14922   3.919   5.426   8.220  0.7277 -0.6233  0.6090
  137OSM   C15S14923   3.878   5.652   8.222 -0.1399 -0.5184  0.3526
  137OSM   H15S14924   3.781   5.667   8.169  1.3042 -1.0316 -2.6671
  137OSM   H15T14925   3.962   5.716   8.185 -0.0030 -0.5414  0.6271
  137OSM   C16S14926   3.866   5.659   8.378 -0.4806  0.3500 -0.2268
  137OSM   H16S14927   3.826   5.566   8.425  0.6554  0.4591  1.0181
  137OSM   H16T14928   3.796   5.744   8.394  0.0099  0.7285 -0.0608
  137OSM   C17S14929   3.999   5.678   8.444 -0.2283 -0.0061  0.1615
  137OSM   H17S14930   4.052   5.766   8.403  0.0497  0.0146  0.5565
  137OSM   H17T14931   4.067   5.597   8.411 -0.4513 -0.0328 -0.2392
  137OSM   C18S14932   3.992   5.679   8.595  0.1349  0.3444 -0.3916
  137OSM   H18S14933   3.948   5.777   8.626 -4.0994 -1.8633  1.4212
  137OSM   H18T14934   4.091   5.668   8.643 -0.8825 -1.5099  1.4152
  137OSM   H18U14935   3.929   5.592   8.623  0.9210  0.3987  1.6975
  137OSM    C1F14936   4.207   5.749   6.810  0.2458  0.5784  0.9883
  137OSM     OF14937   4.226   5.866   6.781  0.6711 -0.1574 -0.7213
  137OSM    C2F14938   4.324   5.656   6.837 -0.4791  0.9176  0.4917
  137OSM    H2F14939   4.384   5.655   6.743 -0.7328 -0.6821  0.3300
  137OSM    H2G14940   4.289   5.552   6.851 -1.3415  1.2830  1.1110
  137OSM    C3F14941   4.419   5.699   6.957  0.2680 -0.3483 -0.2479
  137OSM    H3F14942   4.438   5.808   6.947  0.0400 -0.2029  0.7847
  137OSM    H3G14943   4.514   5.641   6.956  2.2065  2.6052  0.3787
  137OSM    C4F14944   4.339   5.668   7.083 -0.1911  0.2823 -0.4632
  137OSM    H4F14945   4.324   5.558   7.095 -1.4012  0.4114 -0.6471
  137OSM    H4G14946   4.239   5.716   7.077  0.1437  0.9008 -1.2194
  137OSM    C5F14947   4.419   5.716   7.208  1.2390  0.5167 -0.1788
  137OSM    H5F14948   4.422   5.827   7.213  0.1642  0.5877 -0.8454
  137OSM    H5G14949   4.522   5.676   7.203  0.9432 -0.1428 -1.2083
  137OSM    C6F14950   4.365   5.676   7.350  0.6995  0.0394 -0.2292
  137OSM    H6F14951   4.397   5.569   7.347 -0.3407 -0.2629 -0.8047
  137OSM    H6G14952   4.255   5.663   7.352  0.7868 -2.0444 -2.6071
  137OSM    C7F14953   4.418   5.751   7.471 -0.0439  0.5722 -0.4508
  137OSM    H7F14954   4.416   5.861   7.458  3.1420  0.8498  0.6623
  137OSM    H7G14955   4.526   5.726   7.470  0.2527  1.6160  1.4749
  137OSM    C8F14956   4.347   5.706   7.601  0.1150  0.5518 -0.7473
  137OSM    H8F14957   4.242   5.741   7.598 -0.3642 -0.8646 -1.9171
  137OSM    H8G14958   4.393   5.765   7.683 -3.2774  1.0433  0.9967
  137OSM    C9F14959   4.353   5.558   7.621 -0.1148  0.0958 -0.0364
  137OSM    H9F14960   4.281   5.496   7.565  0.1622 -1.6201  1.4163
  137OSM   C10F14961   4.451   5.497   7.687 -0.2019  0.4389 -0.2345
  137OSM   H10F14962   4.449   5.387   7.697  1.3455  0.4411  0.2817
  137OSM   C11F14963   4.573   5.548   7.762  1.0494 -0.4362 -0.2039
  137OSM   H11F14964   4.616   5.650   7.750  0.7042 -0.4610 -1.9458
  137OSM   H11G14965   4.666   5.489   7.748  0.8776 -0.4987 -1.1941
  137OSM   C12F14966   4.547   5.547   7.909 -0.4265  0.0696  0.2039
  137OSM   H12F14967   4.645   5.562   7.959 -0.8166 -1.1192  1.4008
  137OSM   H12G14968   4.505   5.451   7.946 -0.0529 -0.4403 -0.6471
  137OSM   C13F14969   4.456   5.670   7.965 -0.2838 -0.3316  0.0461
  137OSM   H13F14970   4.349   5.650   7.941  0.3013 -2.2361 -1.2393
  137OSM   H13G14971   4.492   5.766   7.921  0.5393 -0.6679 -0.0366
  137OSM   C14F14972   4.456   5.677   8.121 -0.1539  0.5163  0.6812
  137OSM   H14F14973   4.556   5.703   8.163  0.2526  1.3481 -0.7631
  137OSM   H14G14974   4.425   5.578   8.160  2.9772 -0.1236  1.8283
  137OSM   C15F14975   4.358   5.774   8.183 -0.0945  0.6584  0.9830
  137OSM   H15F14976   4.254   5.747   8.155  0.1468 -0.6759  1.2948
  137OSM   H15G14977   4.386   5.876   8.148  1.2079  0.1534  0.4775
  137OSM   C16F14978   4.355   5.772   8.339 -0.5421  0.0883  0.0667
  137OSM   H16F14979   4.319   5.671   8.370 -1.2080  0.4236  0.4134
  137OSM   H16G14980   4.287   5.850   8.380 -1.1632 -0.9862  1.1500
  137OSM   C17F14981   4.487   5.786   8.411 -0.6283  0.3463 -0.2788
  137OSM   H17F14982   4.573   5.830   8.357  0.2179 -0.8809  0.0357
  137OSM   H17G14983   4.526   5.687   8.442 -0.7747  0.6540  0.9452
  137OSM   C18F14984   4.480   5.871   8.541 -0.0301 -0.3591  0.7111
  137OSM   H18F14985   4.580   5.902   8.577 -0.0183  1.0957 -0.4593
  137OSM   H18G14986   4.420   5.816   8.617 -0.0543  0.1951  1.0943
  137OSM   H18H14987   4.438   5.973   8.527 -2.9797 -1.6310 -0.5125
  138OSM      N14988   4.187   2.939   6.013 -0.2450 -0.1764  0.0292
  138OSM    C1514989   4.294   2.878   5.933 -0.1423 -0.0679  0.7561
  138OSM   H15A14990   4.277   2.771   5.927  0.5967 -0.5167  4.3777
  138OSM   H15B14991   4.392   2.893   5.975  0.3326  0.6535 -0.5337
  138OSM   H15C14992   4.304   2.912   5.831  3.5430  0.7084  1.2235
  138OSM    C1414993   4.239   3.068   6.079  0.3609  0.8281 -0.5362
  138OSM   H14A14994   4.263   3.142   6.004  2.4682  2.7284  1.8491
  138OSM   H14B14995   4.324   3.063   6.146  2.3520 -0.3780 -2.9390
  138OSM   H14C14996   4.161   3.124   6.126  0.4704  1.3450 -0.9562
  138OSM    C1314997   4.073   2.980   5.926  1.1255 -0.4144  0.9141
  138OSM   H13A14998   4.020   2.899   5.878  1.3972  0.7615 -1.5097
  138OSM   H13B14999   4.098   3.058   5.856  2.3451 -0.6923  1.0160
  138OSM   H13C15000   3.999   3.041   5.974  2.8529  1.0547  1.8170
  138OSM    C1215001   4.142   2.838   6.116 -0.4439  0.1162 -0.2522
  138OSM   H12A15002   4.116   2.755   6.053  1.4899  1.4294 -2.9904
  138OSM   H12B15003   4.051   2.872   6.163  0.4214  2.6774 -0.2761
  138OSM    C1115004   4.243   2.794   6.234  0.2906 -1.0803 -0.0938
  138OSM   H11A15005   4.197   2.711   6.292 -0.5834 -0.6862 -0.2170
  138OSM   H11B15006   4.245   2.880   6.303 -0.1038 -0.7767 -0.4576
  138OSM      P15007   4.381   2.607   6.122 -0.1837 -0.3262  0.4956
  138OSM    O1315008   4.258   2.575   6.049  0.1413  0.2771 -0.0439
  138OSM    O1415009   4.499   2.594   6.039 -0.2564 -0.0583  0.5440
  138OSM    O1115010   4.397   2.518   6.248 -0.2245  0.1222 -0.5016
  138OSM    O1215011   4.375   2.754   6.176 -0.3404 -0.2800 -0.4542
  138OSM    C1S15012   4.505   2.535   6.338 -0.2651 -0.0506 -0.0979
  138OSM    H1S15013   4.603   2.572   6.302 -0.8781 -0.4339 -2.3072
  138OSM    H1T15014   4.515   2.435   6.387 -3.7941  0.5374  2.2342
  138OSM     NF15015   4.581   2.662   6.534 -0.1160  0.0008  0.4285
  138OSM    HNF15016   4.604   2.602   6.610  0.0741 -0.8998 -0.3222
  138OSM    C2S15017   4.462   2.618   6.463  0.0683 -0.4373 -0.5507
  138OSM    H2S15018   4.413   2.707   6.417  0.3549 -1.1979 -2.3913
  138OSM    C3S15019   4.360   2.542   6.550  0.4356 -0.4409 -0.7438
  138OSM    H3S15020   4.403   2.446   6.586 -0.6008  0.0053  1.8761
  138OSM     O315021   4.253   2.485   6.476  0.1573 -0.1452  0.1473
  138OSM    HO315022   4.280   2.476   6.385 -0.4782  1.5289 -0.2470
  138OSM    C4S15023   4.310   2.616   6.675 -0.3081  0.6355  1.0358
  138OSM    H4S15024   4.360   2.591   6.769 -0.8907 -0.9278  0.9709
  138OSM    C5S15025   4.208   2.701   6.672  0.1955 -1.3647  0.2755
  138OSM    H5S15026   4.149   2.717   6.581 -1.0088 -3.8949  0.5313
  138OSM    C6S15027   4.141   2.761   6.791 -0.0615  0.1563  1.3628
  138OSM    H6S15028   4.036   2.730   6.773  0.6667 -0.9598 -1.6220
  138OSM    H6T15029   4.146   2.872   6.791 -3.2774  0.3901  0.8871
  138OSM    C7S15030   4.190   2.708   6.920  0.7576  0.9356 -0.1608
  138OSM    H7S15031   4.281   2.766   6.946 -0.1843  2.2719  0.2691
  138OSM    H7T15032   4.195   2.597   6.926  0.8855  0.9486 -0.0322
  138OSM    C8S15033   4.104   2.749   7.042 -0.2989 -0.8743  0.8084
  138OSM    H8S15034   4.006   2.698   7.033  0.4326 -2.3175  0.7706
  138OSM    H8T15035   4.092   2.859   7.032 -1.9579 -1.0492  0.4572
  138OSM    C9S15036   4.157   2.704   7.177  0.4313 -0.0170  0.0843
  138OSM    H9S15037   4.251   2.760   7.197  0.3365  0.5628 -1.0087
  138OSM    H9T15038   4.169   2.594   7.168 -0.5940 -0.5157  3.3181
  138OSM   C10S15039   4.074   2.705   7.300  0.6005  0.4142 -0.6684
  138OSM   H10S15040   3.970   2.673   7.278  0.6409 -0.1751 -0.0505
  138OSM   H10T15041   4.063   2.814   7.319 -0.2178 -0.1461  3.0348
  138OSM   C11S15042   4.136   2.632   7.422 -0.0142 -0.2137 -0.0406
  138OSM   H11S15043   4.165   2.527   7.397  1.8149 -0.1991  1.7400
  138OSM   H11T15044   4.056   2.630   7.498 -0.8939 -3.3044 -0.9088
  138OSM   C12S15045   4.257   2.702   7.491 -0.5388 -0.1223 -0.0360
  138OSM   H12S15046   4.225   2.802   7.528 -1.3521 -1.1515  2.2769
  138OSM   H12T15047   4.331   2.720   7.411 -0.2301  2.8375  0.8069
  138OSM   C13S15048   4.326   2.625   7.613 -0.5055  0.1842  0.2722
  138OSM   H13S15049   4.415   2.676   7.656  0.6765 -1.9738  0.5298
  138OSM   H13T15050   4.366   2.531   7.569  1.4328  0.7274  0.7644
  138OSM   C14S15051   4.230   2.588   7.732  0.5460  0.1830 -0.3441
  138OSM   H14S15052   4.289   2.538   7.811 -0.9645 -0.4377  0.4265
  138OSM   H14T15053   4.158   2.512   7.694  0.5071 -0.6881  1.3733
  138OSM   C15S15054   4.159   2.714   7.789  0.3872  0.6071  0.8079
  138OSM   H15S15055   4.075   2.745   7.724  2.1316  0.0408 -1.8581
  138OSM   H15T15056   4.229   2.800   7.797 -1.1019  1.9697 -0.2607
  138OSM   C16S15057   4.106   2.715   7.932 -0.2441 -0.0400 -0.3911
  138OSM   H16S15058   4.181   2.720   8.013 -1.7163 -2.2774  1.2261
  138OSM   H16T15059   4.075   2.610   7.949  2.8100 -0.9267  0.2343
  138OSM   C17S15060   3.988   2.815   7.959  0.2248  0.0083 -0.3069
  138OSM   H17S15061   3.897   2.795   7.899 -0.3198  1.8417 -0.1496
  138OSM   H17T15062   4.032   2.913   7.930 -1.3713  1.0997  0.7233
  138OSM   C18S15063   3.936   2.825   8.100  0.1320 -0.6820  0.1590
  138OSM   H18S15064   3.852   2.897   8.110  0.9424  0.1505  1.3032
  138OSM   H18T15065   4.015   2.860   8.170  0.4886 -0.8448 -0.1561
  138OSM   H18U15066   3.907   2.724   8.138 -2.7911 -0.1562 -0.4802
  138OSM    C1F15067   4.668   2.752   6.480  0.3637 -0.7066  0.2729
  138OSM     OF15068   4.643   2.811   6.373  0.1443  0.1288 -0.1980
  138OSM    C2F15069   4.788   2.774   6.559  0.3518  0.4966  0.0263
  138OSM    H2F15070   4.858   2.689   6.546  1.2237  1.3047 -0.7406
  138OSM    H2G15071   4.769   2.777   6.668  0.1908 -1.9027  0.1088
  138OSM    C3F15072   4.867   2.905   6.509  0.1798 -0.8523  0.5283
  138OSM    H3F15073   4.797   2.991   6.507 -0.5371 -1.4090 -2.0684
  138OSM    H3G15074   4.906   2.885   6.407  2.9361 -1.3174  1.5885
  138OSM    C4F15075   4.979   2.955   6.607  0.4340 -1.0295  0.3615
  138OSM    H4F15076   5.026   3.039   6.551 -0.2896 -0.2032  0.9764
  138OSM    H4G15077   5.053   2.872   6.616 -0.4882 -2.0533 -0.9602
  138OSM    C5F15078   4.939   3.015   6.739  0.1299  0.3322  0.0264
  138OSM    H5F15079   4.862   2.956   6.792  1.9855  0.3842  3.0054
  138OSM    H5G15080   4.892   3.115   6.726  1.9845  1.0904 -1.2512
  138OSM    C6F15081   5.055   3.026   6.834  0.0835  0.1982 -0.1389
  138OSM    H6F15082   5.126   3.090   6.778 -0.4867  1.7354  0.8273
  138OSM    H6G15083   5.093   2.922   6.842 -2.0872 -0.6012  0.4329
  138OSM    C7F15084   5.028   3.094   6.970  0.5306 -0.2960 -0.1289
  138OSM    H7F15085   4.983   3.190   6.939  1.3210  0.0649 -0.1852
  138OSM    H7G15086   5.130   3.111   7.010  0.0168 -0.8504  1.4734
  138OSM    C8F15087   4.940   3.022   7.073  0.4119  0.3035 -0.6729
  138OSM    H8F15088   4.836   3.005   7.039  0.1595 -0.0345  0.2402
  138OSM    H8G15089   4.932   3.091   7.160 -2.6943  1.4336 -1.7365
  138OSM    C9F15090   4.995   2.889   7.118  0.0074  0.4307 -0.7467
  138OSM    H9F15091   4.988   2.816   7.036 -1.1224 -0.9384  0.5113
  138OSM   C10F15092   5.050   2.861   7.242  0.6210  0.0665 -0.0608
  138OSM   H10F15093   5.091   2.761   7.261 -0.2209 -0.4338 -0.7753
  138OSM   C11F15094   5.071   2.949   7.359 -0.4117 -0.0950  0.4880
  138OSM   H11F15095   5.018   3.045   7.341  1.6387  0.9383 -0.4064
  138OSM   H11G15096   5.179   2.973   7.374 -0.3395  0.1628 -0.3744
  138OSM   C12F15097   5.026   2.891   7.497  0.7154 -0.5696  0.0673
  138OSM   H12F15098   5.076   2.793   7.511  3.3045  0.7487  0.8454
  138OSM   H12G15099   4.916   2.883   7.496  0.4924  1.7113  0.2182
  138OSM   C13F15100   5.069   2.976   7.617  0.1027  0.3219 -0.0578
  138OSM   H13F15101   5.032   3.079   7.599  2.4188  1.0393 -1.1945
  138OSM   H13G15102   5.180   2.981   7.620  0.1074  0.5102 -0.4940
  138OSM   C14F15103   5.030   2.903   7.749 -0.2393 -0.0959 -0.0784
  138OSM   H14F15104   5.101   2.820   7.768  1.4959  1.5410  0.8921
  138OSM   H14G15105   4.937   2.844   7.731  1.4532 -2.1912 -2.6613
  138OSM   C15F15106   5.034   2.986   7.872  0.2561 -0.9503 -1.3975
  138OSM   H15F15107   4.999   3.089   7.850  2.3971  0.1960  0.2170
  138OSM   H15G15108   5.139   2.998   7.906 -0.2074  0.9869 -0.5239
  138OSM   C16F15109   4.952   2.920   7.989  0.1746  0.0837 -0.2127
  138OSM   H16F15110   5.004   2.824   8.011 -1.9156 -0.8786  0.8496
  138OSM   H16G15111   4.846   2.897   7.968  0.6523 -0.1666 -2.6768
  138OSM   C17F15112   4.955   3.005   8.117 -1.0363 -0.2530  0.3907
  138OSM   H17F15113   5.044   3.071   8.112 -2.8464  2.4341  1.4542
  138OSM   H17G15114   4.965   2.933   8.202  1.2496  0.8193  1.0828
  138OSM   C18F15115   4.826   3.087   8.134  0.0349  0.3121  1.4260
  138OSM   H18F15116   4.801   3.161   8.055 -0.9507 -1.5512 -0.0928
  138OSM   H18G15117   4.834   3.139   8.232  0.2626  0.3643  1.3810
  138OSM   H18H15118   4.738   3.019   8.132 -0.2127  0.5929 -1.7058
  139OSM      N15119   2.872   2.751   6.103  0.2617  0.5109  0.0553
  139OSM    C1515120   2.730   2.766   6.147 -0.5263 -0.1174  0.8915
  139OSM   H15A15121   2.671   2.678   6.129 -2.7217  1.8260 -2.7772
  139OSM   H15B15122   2.682   2.826   6.071 -0.1848 -0.9618 -0.0224
  139OSM   H15C15123   2.719   2.817   6.241 -0.3650  1.7662 -0.0510
  139OSM    C1415124   2.873   2.720   5.952  0.3019 -0.2602  0.2479
  139OSM   H14A15125   2.821   2.793   5.891  0.2021 -0.0813  0.5441
  139OSM   H14B15126   2.840   2.621   5.922  0.0580 -0.4001  0.9669
  139OSM   H14C15127   2.974   2.722   5.914  0.8753  0.3558  1.7513
  139OSM    C1315128   2.947   2.877   6.135 -0.0477 -0.3869  0.1277
  139OSM   H13A15129   3.051   2.864   6.108  0.0766  0.2951  0.2522
  139OSM   H13B15130   2.936   2.885   6.243  0.5506 -2.2055  0.3652
  139OSM   H13C15131   2.908   2.964   6.086 -3.8955 -0.5407  2.4605
  139OSM    C1215132   2.930   2.628   6.171  0.1284  0.3362 -0.3534
  139OSM   H12A15133   3.031   2.627   6.131 -0.7134 -0.0212 -2.6223
  139OSM   H12B15134   2.866   2.543   6.151  0.5309  0.1867 -1.0650
  139OSM    C1115135   2.956   2.630   6.323 -1.0885  0.3480 -0.8345
  139OSM   H11A15136   2.980   2.523   6.340  0.0123  0.1598 -3.1633
  139OSM   H11B15137   2.860   2.647   6.376 -0.1931  0.5860  0.7828
  139OSM      P15138   3.066   2.777   6.500 -0.2462 -0.1187  0.0650
  139OSM    O1315139   3.203   2.794   6.546  0.1450 -0.4785  0.1013
  139OSM    O1415140   2.985   2.899   6.489 -0.5650 -0.2082 -0.0431
  139OSM    O1115141   2.985   2.675   6.588  0.7265  0.8435  0.0480
  139OSM    O1215142   3.070   2.701   6.361 -0.3754 -0.1120  0.0101
  139OSM    C1S15143   3.036   2.544   6.622  0.3630  0.0616  0.7572
  139OSM    H1S15144   3.136   2.521   6.580  0.3710  0.5869  0.4833
  139OSM    H1T15145   2.966   2.466   6.586 -0.9565  2.9745 -3.8000
  139OSM     NF15146   3.114   2.410   6.826 -0.1606  0.3084 -0.2180
  139OSM    HNF15147   3.086   2.333   6.882  2.1077  0.3769  1.1366
  139OSM    C2S15148   3.040   2.529   6.779  0.0359 -0.6100 -0.0705
  139OSM    H2S15149   3.097   2.616   6.819  3.1768 -2.2699 -0.6379
  139OSM    C3S15150   2.887   2.544   6.820 -0.1748  0.0415 -0.1866
  139OSM    H3S15151   2.826   2.476   6.757  0.5240 -2.0407  1.2450
  139OSM     O315152   2.822   2.671   6.804 -0.1860 -0.2911 -0.1480
  139OSM    HO315153   2.879   2.711   6.738  1.5795 -2.9491 -0.3959
  139OSM    C4S15154   2.873   2.507   6.958 -0.1205  0.5435 -0.1949
  139OSM    H4S15155   2.927   2.571   7.030 -1.1420 -1.4186  2.5105
  139OSM    C5S15156   2.808   2.400   7.013  0.2433  0.0528  0.4763
  139OSM    H5S15157   2.763   2.326   6.946 -0.9333 -0.2902  1.5968
  139OSM    C6S15158   2.806   2.358   7.157  0.6998  0.1825 -0.4417
  139OSM    H6S15159   2.908   2.377   7.196 -0.3398  0.3964  2.4003
  139OSM    H6T15160   2.794   2.248   7.165  1.1115  0.1646 -0.0110
  139OSM    C7S15161   2.706   2.428   7.247 -0.2972 -0.5578 -0.5796
  139OSM    H7S15162   2.601   2.430   7.210 -1.9964  2.9132  3.4553
  139OSM    H7T15163   2.738   2.535   7.245 -0.6504 -0.4610 -1.9290
  139OSM    C8S15164   2.695   2.367   7.384 -0.2869 -0.9615  0.0100
  139OSM    H8S15165   2.668   2.259   7.379  0.8785 -1.3485  1.3081
  139OSM    H8T15166   2.623   2.425   7.445 -0.7795 -1.0160 -0.5176
  139OSM    C9S15167   2.819   2.387   7.468 -0.2855 -0.4816  0.0063
  139OSM    H9S15168   2.848   2.494   7.466 -0.1136 -0.5175  0.4862
  139OSM    H9T15169   2.904   2.320   7.444 -0.4068 -0.9338  0.7912
  139OSM   C10S15170   2.796   2.358   7.623 -0.3750 -0.8967 -0.3393
  139OSM   H10S15171   2.743   2.445   7.667  1.3888  0.6133 -1.0187
  139OSM   H10T15172   2.899   2.352   7.665 -0.2391 -0.7699 -0.6447
  139OSM   C11S15173   2.728   2.225   7.661  0.2862 -0.3714 -0.5611
  139OSM   H11S15174   2.776   2.147   7.599  1.8666 -0.6273  0.9019
  139OSM   H11T15175   2.619   2.236   7.643  0.4294 -1.7140 -2.5385
  139OSM   C12S15176   2.763   2.183   7.805 -0.7839  0.1919  0.0747
  139OSM   H12S15177   2.873   2.178   7.818 -0.9373  0.0436  1.4690
  139OSM   H12T15178   2.721   2.080   7.813 -1.1595  0.4081  0.9521
  139OSM   C13S15179   2.713   2.264   7.921  0.2056 -0.2535 -0.6027
  139OSM   H13S15180   2.604   2.285   7.915  0.1245  0.5935  2.2204
  139OSM   H13T15181   2.771   2.359   7.915  0.6190 -0.5434 -1.2026
  139OSM   C14S15182   2.741   2.201   8.057 -0.6828 -0.6379 -0.1352
  139OSM   H14S15183   2.851   2.184   8.056 -0.6480 -0.4463 -1.2789
  139OSM   H14T15184   2.690   2.104   8.076 -0.1258 -0.9823 -0.3659
  139OSM   C15S15185   2.710   2.293   8.180  0.6834  0.0845  0.5556
  139OSM   H15S15186   2.741   2.234   8.269  2.6970 -0.4390 -0.4213
  139OSM   H15T15187   2.600   2.300   8.182  0.6924  0.1877  0.7002
  139OSM   C16S15188   2.775   2.430   8.184  0.4167  0.1839 -0.2082
  139OSM   H16S15189   2.751   2.475   8.085 -1.5618 -0.7470 -0.1920
  139OSM   H16T15190   2.884   2.417   8.204  0.4911  2.6847  1.4902
  139OSM   C17S15191   2.720   2.506   8.306 -0.1805 -0.0165  0.0237
  139OSM   H17S15192   2.771   2.475   8.399 -1.6282  2.2691  1.6828
  139OSM   H17T15193   2.611   2.488   8.321 -0.5710  2.5173  0.7868
  139OSM   C18S15194   2.722   2.663   8.302  0.0876 -1.0579 -0.2430
  139OSM   H18S15195   2.687   2.715   8.394 -0.2846  1.8294 -1.9096
  139OSM   H18T15196   2.640   2.691   8.234 -0.4536  0.9219  1.1538
  139OSM   H18U15197   2.813   2.711   8.259 -0.3982  0.6854  0.5900
  139OSM    C1F15198   3.244   2.402   6.797 -0.0005 -0.4733 -0.1243
  139OSM     OF15199   3.305   2.496   6.752  0.7189 -0.0667  0.2358
  139OSM    C2F15200   3.303   2.270   6.836  0.5223  0.4739 -0.0220
  139OSM    H2F15201   3.243   2.200   6.774 -1.6771  0.8074  1.5827
  139OSM    H2G15202   3.296   2.251   6.945  0.4860 -2.8888 -0.5095
  139OSM    C3F15203   3.449   2.248   6.810 -1.0658 -0.0062  0.1795
  139OSM    H3F15204   3.512   2.318   6.868 -0.9290 -1.0570  1.3277
  139OSM    H3G15205   3.485   2.276   6.708  0.5313  0.7621  0.9304
  139OSM    C4F15206   3.498   2.098   6.833  0.0459 -0.4324  0.7406
  139OSM    H4F15207   3.605   2.082   6.812 -0.4451 -1.2521 -1.3572
  139OSM    H4G15208   3.450   2.030   6.760  1.9086 -0.7963 -0.2006
  139OSM    C5F15209   3.469   2.047   6.975 -0.2326  0.0236  1.0834
  139OSM    H5F15210   3.498   1.940   6.979  0.4596  0.0580 -1.5349
  139OSM    H5G15211   3.359   2.043   6.988 -0.0997  1.3092  3.0441
  139OSM    C6F15212   3.530   2.120   7.102  0.3211  0.4730  0.6600
  139OSM    H6F15213   3.473   2.214   7.111 -0.7915 -0.0962 -0.2280
  139OSM    H6G15214   3.637   2.143   7.085 -0.2633  1.7362 -1.7623
  139OSM    C7F15215   3.507   2.038   7.230  0.2132  0.9440 -0.1826
  139OSM    H7F15216   3.566   1.945   7.234 -0.2828  0.6206 -0.3039
  139OSM    H7G15217   3.400   2.008   7.235  0.6705 -0.5278  2.4415
  139OSM    C8F15218   3.525   2.109   7.369 -0.1878 -0.7707  0.5690
  139OSM    H8F15219   3.514   2.217   7.347  1.1583 -0.7210  0.0480
  139OSM    H8G15220   3.632   2.097   7.394  0.0207  1.3987  0.8374
  139OSM    C9F15221   3.428   2.077   7.480  0.2009  0.7186  0.1373
  139OSM    H9F15222   3.322   2.078   7.450  0.0869  2.2652  0.5307
  139OSM   C10F15223   3.460   2.043   7.602 -0.6453  0.1489  0.1285
  139OSM   H10F15224   3.380   2.026   7.676 -1.0641 -0.6647 -0.4876
  139OSM   C11F15225   3.596   2.022   7.666 -0.5980  0.2371  0.3559
  139OSM   H11F15226   3.673   2.061   7.597 -0.7991 -0.1107 -0.0726
  139OSM   H11G15227   3.610   1.912   7.681 -0.4788  0.2707  0.4958
  139OSM   C12F15228   3.614   2.090   7.796 -0.7990 -0.0520 -0.0496
  139OSM   H12F15229   3.606   2.199   7.778  1.1481  0.1571  0.1472
  139OSM   H12G15230   3.715   2.068   7.836 -0.2109  0.8843 -0.9887
  139OSM   C13F15231   3.527   2.039   7.915  0.2372 -0.5715 -0.1926
  139OSM   H13F15232   3.543   1.930   7.920 -0.3652 -0.8178 -2.5592
  139OSM   H13G15233   3.420   2.065   7.897 -0.0059 -0.2472  1.5059
  139OSM   C14F15234   3.581   2.091   8.051  0.2334 -0.3134 -0.2819
  139OSM   H14F15235   3.583   2.202   8.057  0.7291 -0.3622  0.5893
  139OSM   H14G15236   3.685   2.052   8.056 -0.4134 -2.2273 -0.9974
  139OSM   C15F15237   3.505   2.016   8.159  0.1059 -0.4239 -1.5196
  139OSM   H15F15238   3.504   1.907   8.140  0.0390 -0.7985  0.4108
  139OSM   H15G15239   3.395   2.033   8.148  0.1680  0.9491 -0.4021
  139OSM   C16F15240   3.560   2.059   8.295  0.5781 -0.1692  0.4966
  139OSM   H16F15241   3.584   2.167   8.286  0.0661 -0.0458  0.6201
  139OSM   H16G15242   3.657   2.005   8.304  0.5317 -0.3445 -0.0091
  139OSM   C17F15243   3.478   2.033   8.424  0.0685 -0.2348 -0.0066
  139OSM   H17F15244   3.389   2.101   8.420  0.1256 -0.0289  1.6491
  139OSM   H17G15245   3.541   2.066   8.509  0.0600 -1.0438  0.3155
  139OSM   C18F15246   3.434   1.894   8.447 -0.1413 -0.2618 -0.5276
  139OSM   H18F15247   3.385   1.883   8.546 -1.0808  0.3451 -0.9074
  139OSM   H18G15248   3.515   1.818   8.445  1.1414  1.0610 -2.3848
  139OSM   H18H15249   3.355   1.864   8.375 -0.1326 -0.3027 -0.5202
  140OSM      N15250   3.434   3.623   6.581 -0.0111 -0.4988 -0.4554
  140OSM    C1515251   3.321   3.699   6.509 -0.1423  0.6021 -0.2082
  140OSM   H15A15252   3.224   3.683   6.554 -0.6778  0.2045 -1.4811
  140OSM   H15B15253   3.323   3.674   6.404 -1.1162  3.7471 -1.0974
  140OSM   H15C15254   3.342   3.805   6.516  0.7967  0.5438 -1.8177
  140OSM    C1415255   3.429   3.659   6.723  0.2539 -0.5235  0.0859
  140OSM   H14A15256   3.435   3.766   6.738  0.5346 -0.7643  1.8566
  140OSM   H14B15257   3.502   3.612   6.787  1.1645  2.2549  1.2632
  140OSM   H14C15258   3.337   3.628   6.771 -0.8409  0.2545 -1.4329
  140OSM    C1315259   3.418   3.478   6.562  0.2247 -0.4547  0.3657
  140OSM   H13A15260   3.326   3.463   6.616  0.5205 -1.2791  0.6544
  140OSM   H13B15261   3.483   3.406   6.608 -0.1685 -1.9128 -1.2466
  140OSM   H13C15262   3.404   3.441   6.461 -0.3061 -1.4858  0.8087
  140OSM    C1215263   3.577   3.663   6.535  0.3602 -1.0647  1.0095
  140OSM   H12A15264   3.579   3.652   6.427 -1.9817 -1.0495  0.8924
  140OSM   H12B15265   3.647   3.597   6.583  1.0708  0.9540  2.8879
  140OSM    C1115266   3.631   3.814   6.558 -0.2627  0.4736 -0.0114
  140OSM   H11A15267   3.742   3.826   6.553 -0.3147  0.4372 -1.7457
  140OSM   H11B15268   3.624   3.819   6.669 -1.1554 -0.1097 -0.0326
  140OSM      P15269   3.591   4.072   6.533 -0.3026 -0.1554 -0.2472
  140OSM    O1315270   3.727   4.095   6.476  0.2483  0.3961  0.1461
  140OSM    O1415271   3.482   4.168   6.499 -0.3072  0.3749  0.1389
  140OSM    O1115272   3.595   4.070   6.689  0.7518 -0.2174  0.4415
  140OSM    O1215273   3.551   3.920   6.505  0.5562 -0.2908 -0.3759
  140OSM    C1S15274   3.642   4.184   6.760  0.6969 -0.7103  0.0631
  140OSM    H1S15275   3.578   4.273   6.740 -0.4053 -1.3421  0.7181
  140OSM    H1T15276   3.746   4.208   6.731  0.4413 -2.1810 -2.3761
  140OSM     NF15277   3.681   4.304   6.970 -0.9840  0.2106  0.0607
  140OSM    HNF15278   3.771   4.302   7.013  0.7769  4.0636 -2.8388
  140OSM    C2S15279   3.638   4.183   6.916  0.6639 -0.0583  0.7752
  140OSM    H2S15280   3.537   4.155   6.952 -0.0368 -0.2259 -1.2024
  140OSM    C3S15281   3.732   4.065   6.957  0.3669  0.4835  0.6878
  140OSM    H3S15282   3.837   4.097   6.939  0.4089  0.7661  1.3831
  140OSM     O315283   3.712   3.943   6.894  0.3908  0.8606  0.2937
  140OSM    HO315284   3.679   3.969   6.808 -0.6946  3.2917  1.3626
  140OSM    C4S15285   3.731   4.053   7.109 -0.4433  0.3538 -0.5578
  140OSM    H4S15286   3.627   4.061   7.143 -0.5070  1.8496 -1.0362
  140OSM    C5S15287   3.834   4.027   7.195  0.5202 -0.0997 -0.1619
  140OSM    H5S15288   3.938   4.012   7.161  1.0186  3.3503 -0.5208
  140OSM    C6S15289   3.813   4.026   7.347 -0.3065 -0.1064  0.6787
  140OSM    H6S15290   3.704   4.036   7.371 -1.5172 -1.5924 -3.3462
  140OSM    H6T15291   3.854   4.122   7.385 -0.7236  0.1524  0.4960
  140OSM    C7S15292   3.871   3.900   7.413 -0.8041  0.0568  0.3387
  140OSM    H7S15293   3.978   3.884   7.388 -1.2087  2.2819 -3.5746
  140OSM    H7T15294   3.814   3.810   7.382  1.3218 -0.2506 -3.2378
  140OSM    C8S15295   3.845   3.902   7.564  0.7363  0.0637  0.4034
  140OSM    H8S15296   3.736   3.892   7.582  0.6209 -1.0788 -0.7698
  140OSM    H8T15297   3.881   3.996   7.610  2.0456  1.1716 -2.6062
  140OSM    C9S15298   3.918   3.780   7.628 -0.2060  0.3156  0.2784
  140OSM    H9S15299   4.025   3.801   7.608 -0.7181  0.1690 -3.2244
  140OSM    H9T15300   3.893   3.691   7.568  1.2342  0.5629 -0.7424
  140OSM   C10S15301   3.888   3.751   7.776  0.0774 -0.2213 -0.4160
  140OSM   H10S15302   3.961   3.676   7.813  1.1452 -0.0969 -2.1479
  140OSM   H10T15303   3.790   3.701   7.786  0.9085 -1.7201  0.6987
  140OSM   C11S15304   3.878   3.871   7.876  0.3256  0.9081  0.4722
  140OSM   H11S15305   3.801   3.946   7.848  1.3111  1.4394 -0.9020
  140OSM   H11T15306   3.972   3.931   7.884 -1.5652  4.0064  1.5449
  140OSM   C12S15307   3.839   3.820   8.013  0.1689 -0.2328 -1.3667
  140OSM   H12S15308   3.907   3.750   8.065 -0.9250  1.1742  2.3237
  140OSM   H12T15309   3.738   3.775   7.999  0.2067 -1.1874  1.0181
  140OSM   C13S15310   3.838   3.947   8.110  1.2358  0.2827 -0.7793
  140OSM   H13S15311   3.776   4.023   8.058  2.0377 -0.7684 -3.4592
  140OSM   H13T15312   3.942   3.983   8.129  0.2499  1.7371  2.6204
  140OSM   C14S15313   3.786   3.916   8.252 -0.1791  0.1858  0.4224
  140OSM   H14S15314   3.845   3.830   8.288  2.5018  0.7669 -2.2711
  140OSM   H14T15315   3.679   3.886   8.244 -1.3673  4.3781 -3.0343
  140OSM   C15S15316   3.810   4.028   8.351  0.2757  0.7844 -0.0134
  140OSM   H15S15317   3.736   4.105   8.320  0.3160  0.4987 -0.8659
  140OSM   H15T15318   3.915   4.065   8.354  0.1364  1.1243  2.0941
  140OSM   C16S15319   3.773   3.981   8.490  0.2910 -0.3164 -0.3282
  140OSM   H16S15320   3.666   3.954   8.500  0.4820 -0.2874  3.5749
  140OSM   H16T15321   3.773   4.072   8.555 -0.1173 -1.5190  1.4169
  140OSM   C17S15322   3.870   3.897   8.566 -0.1200  0.7736 -0.5776
  140OSM   H17S15323   3.879   3.945   8.666 -1.8550  2.5253 -1.1991
  140OSM   H17T15324   3.976   3.892   8.531  0.3298  1.4704  0.6217
  140OSM   C18S15325   3.812   3.754   8.581 -0.5317 -0.0896 -0.4226
  140OSM   H18S15326   3.880   3.685   8.635  0.3718  0.7522 -0.4565
  140OSM   H18T15327   3.799   3.718   8.477 -1.2166  1.1573 -0.7934
  140OSM   H18U15328   3.711   3.762   8.626  0.1368  0.3286  1.0828
  140OSM    C1F15329   3.608   4.406   6.974 -0.8273  0.1418 -0.6657
  140OSM     OF15330   3.497   4.409   6.928  0.4044  0.4901 -0.2104
  140OSM    C2F15331   3.667   4.522   7.050 -0.3323  0.5173  0.0856
  140OSM    H2F15332   3.695   4.494   7.154  1.3796  0.5159 -0.3441
  140OSM    H2G15333   3.585   4.596   7.060 -1.3480 -0.6058  0.2373
  140OSM    C3F15334   3.794   4.600   6.988 -0.2558 -0.2189  0.0061
  140OSM    H3F15335   3.775   4.631   6.883  1.8082  0.5641 -0.1696
  140OSM    H3G15336   3.870   4.522   6.968 -2.0710 -2.6108  1.7939
  140OSM    C4F15337   3.838   4.733   7.068  0.0263 -0.5019  0.0106
  140OSM    H4F15338   3.937   4.770   7.032 -0.6999  2.2907  0.6662
  140OSM    H4G15339   3.854   4.705   7.174  0.3458 -1.0486 -0.1744
  140OSM    C5F15340   3.742   4.858   7.056 -0.1909  0.3147 -0.3796
  140OSM    H5F15341   3.644   4.840   7.105  0.6454 -1.3620  0.7686
  140OSM    H5G15342   3.716   4.881   6.950 -0.0009  0.6740 -0.3451
  140OSM    C6F15343   3.798   4.987   7.116  0.2580  0.1220  0.3179
  140OSM    H6F15344   3.716   5.058   7.091 -0.9399 -0.7159  1.7456
  140OSM    H6G15345   3.882   5.031   7.058 -0.7325  1.1888 -0.3651
  140OSM    C7F15346   3.846   5.001   7.261 -0.6292 -0.4102 -0.5312
  140OSM    H7F15347   3.956   4.999   7.249 -0.6392 -0.7033 -0.5925
  140OSM    H7G15348   3.814   4.914   7.321 -0.8465 -0.9668 -1.4263
  140OSM    C8F15349   3.802   5.133   7.340 -0.7249 -0.4525 -0.3943
  140OSM    H8F15350   3.809   5.211   7.261  1.4654  1.1336  1.2262
  140OSM    H8G15351   3.878   5.157   7.418 -0.1342 -0.6157 -0.9193
  140OSM    C9F15352   3.664   5.155   7.387  0.2322  0.0658 -0.5660
  140OSM    H9F15353   3.584   5.148   7.312  0.0584 -0.8651 -0.2987
  140OSM   C10F15354   3.627   5.176   7.520 -0.6416  0.3581  0.1952
  140OSM   H10F15355   3.526   5.212   7.540 -0.8156  1.9242 -2.8182
  140OSM   C11F15356   3.717   5.179   7.641  0.6124 -0.0793  0.3650
  140OSM   H11F15357   3.731   5.286   7.668  0.3724  0.3825 -1.2380
  140OSM   H11G15358   3.819   5.147   7.613  0.0834 -1.8291  0.3057
  140OSM   C12F15359   3.665   5.098   7.760  0.0973  0.0058  0.0879
  140OSM   H12F15360   3.654   4.994   7.722  1.4775  0.6602 -2.3313
  140OSM   H12G15361   3.574   5.144   7.803 -0.0620 -0.0409 -0.1952
  140OSM   C13F15362   3.765   5.106   7.877 -0.2155  0.0966 -0.4183
  140OSM   H13F15363   3.782   5.214   7.898  0.6380  0.0813 -0.9759
  140OSM   H13G15364   3.864   5.060   7.855 -0.8418 -0.6321 -1.7736
  140OSM   C14F15365   3.700   5.024   7.988 -0.2002  0.2286  0.0166
  140OSM   H14F15366   3.655   4.931   7.949  0.4804 -0.0281 -0.1691
  140OSM   H14G15367   3.619   5.086   8.032 -0.5858  0.0187 -0.3849
  140OSM   C15F15368   3.799   4.984   8.106 -0.3074 -0.3063 -0.3085
  140OSM   H15F15369   3.887   4.931   8.063 -1.1583 -0.2871 -2.1498
  140OSM   H15G15370   3.745   4.917   8.176  0.2898 -1.6667 -1.1082
  140OSM   C16F15371   3.856   5.116   8.169 -0.1108  0.7075 -0.0575
  140OSM   H16F15372   3.773   5.182   8.202  0.4285  1.3557  0.0369
  140OSM   H16G15373   3.921   5.160   8.090 -1.5338 -0.8247 -2.1948
  140OSM   C17F15374   3.935   5.072   8.292  0.7970  0.0800 -0.1046
  140OSM   H17F15375   4.010   5.002   8.250 -1.2952 -0.6586 -2.9016
  140OSM   H17G15376   3.860   5.018   8.354  1.1960 -2.2646 -1.5566
  140OSM   C18F15377   3.996   5.189   8.370  0.1726  0.1514 -0.1193
  140OSM   H18F15378   3.916   5.265   8.376  0.0283  0.1599 -1.6544
  140OSM   H18G15379   4.066   5.246   8.304 -0.7503  0.0288 -1.2386
  140OSM   H18H15380   4.034   5.161   8.470  1.5645 -0.5364 -0.8021
  141OSM      N15381   3.426   0.483   6.317 -0.1202 -0.6667  0.2787
  141OSM    C1515382   3.508   0.600   6.360 -0.1034 -0.2879  0.0586
  141OSM   H15A15383   3.562   0.576   6.450  0.0384  2.3574  0.7765
  141OSM   H15B15384   3.437   0.678   6.385 -0.3092 -0.0847 -1.0810
  141OSM   H15C15385   3.569   0.630   6.276 -0.9590 -2.2008 -1.3378
  141OSM    C1415386   3.325   0.533   6.224  0.1111 -0.4909  0.4516
  141OSM   H14A15387   3.257   0.593   6.284 -0.4316 -0.9685  0.3284
  141OSM   H14B15388   3.264   0.450   6.191 -2.6444  1.0905  1.2079
  141OSM   H14C15389   3.363   0.585   6.138  1.0603  0.2067  1.2771
  141OSM    C1315390   3.513   0.382   6.251 -0.8135 -0.1493  1.3566
  141OSM   H13A15391   3.560   0.420   6.162 -2.8831  0.7885  0.5867
  141OSM   H13B15392   3.450   0.297   6.226  0.5450 -0.7785 -0.0602
  141OSM   H13C15393   3.592   0.344   6.313 -0.5910 -0.0674  1.1223
  141OSM    C1215394   3.363   0.409   6.432 -0.0267 -0.5490 -0.2288
  141OSM   H12A15395   3.298   0.474   6.488 -2.0367 -1.9666 -0.7858
  141OSM   H12B15396   3.441   0.368   6.496  2.7969  2.3326 -1.5527
  141OSM    C1115397   3.263   0.297   6.400 -0.0529  0.5946  0.6593
  141OSM   H11A15398   3.190   0.323   6.320  0.4951  2.8958  0.8307
  141OSM   H11B15399   3.213   0.287   6.499  1.5526  1.8996  1.6508
  141OSM      P15400   3.276   0.055   6.386 -0.1664  0.0656  0.2927
  141OSM    O1315401   3.153   0.026   6.321  0.0715 -0.3471  0.4721
  141OSM    O1415402   3.380  -0.055   6.372  0.5103  0.2127 -0.6055
  141OSM    O1115403   3.246   0.056   6.545 -0.7449  0.8453 -0.3017
  141OSM    O1215404   3.340   0.187   6.347  0.0897 -0.1992  0.5191
  141OSM    C1S15405   3.353   0.101   6.634 -0.4787  0.0885  0.5850
  141OSM    H1S15406   3.355   0.212   6.633  1.8327  0.1035 -1.4285
  141OSM    H1T15407   3.455   0.085   6.592  0.3837  4.0876  0.8227
  141OSM     NF15408   3.404   0.108   6.873  0.2438 -0.1766  0.4453
  141OSM    HNF15409   3.485   0.074   6.921  1.2957  1.5319 -0.0399
  141OSM    C2S15410   3.343   0.031   6.768 -0.3568  0.0901 -0.4741
  141OSM    H2S15411   3.237   0.027   6.801 -0.3205  1.3888 -0.1575
  141OSM    C3S15412   3.412  -0.104   6.755 -0.7625  0.7755  0.5291
  141OSM    H3S15413   3.516  -0.097   6.718 -1.0498  0.0585 -0.4304
  141OSM     O315414   3.351  -0.183   6.651  0.0337 -0.6098  0.4198
  141OSM    HO315415   3.302  -0.116   6.603  1.5678 -0.3094 -0.8143
  141OSM    C4S15416   3.422  -0.181   6.887  0.0645 -0.1062  0.3361
  141OSM    H4S15417   3.525  -0.203   6.917 -0.3655 -1.2486  1.0844
  141OSM    C5S15418   3.320  -0.224   6.961  0.6915 -0.6910  0.2806
  141OSM    H5S15419   3.222  -0.195   6.918  0.1431 -0.5391  1.5816
  141OSM    C6S15420   3.318  -0.294   7.096 -0.0594 -0.6182  0.7473
  141OSM    H6S15421   3.412  -0.354   7.099  0.1070 -0.5541 -1.6339
  141OSM    H6T15422   3.236  -0.369   7.106  0.0423 -1.5344 -3.4695
  141OSM    C7S15423   3.321  -0.189   7.207 -0.5621  0.0087  0.3466
  141OSM    H7S15424   3.239  -0.115   7.204  0.9527  1.7659  0.6215
  141OSM    H7T15425   3.415  -0.130   7.200 -0.2688 -0.4731  0.1477
  141OSM    C8S15426   3.319  -0.249   7.348  0.4546  0.0702  0.1822
  141OSM    H8S15427   3.379  -0.342   7.341  0.2307  0.0419 -1.9201
  141OSM    H8T15428   3.215  -0.272   7.379 -0.4892  1.8699 -1.4234
  141OSM    C9S15429   3.359  -0.162   7.468  0.0678  0.8019  0.0064
  141OSM    H9S15430   3.309  -0.063   7.476  0.2240  0.8892 -0.0793
  141OSM    H9T15431   3.466  -0.142   7.445  0.0566 -0.7888 -1.6417
  141OSM   C10S15432   3.334  -0.235   7.608  0.0979 -0.4019 -0.0822
  141OSM   H10S15433   3.391  -0.329   7.613  0.4611 -0.1362  2.8563
  141OSM   H10T15434   3.225  -0.255   7.597 -0.4353  1.4239  1.2127
  141OSM   C11S15435   3.371  -0.157   7.730 -0.4199 -0.1648  0.2215
  141OSM   H11S15436   3.331  -0.054   7.713 -1.7885 -0.9259 -1.4041
  141OSM   H11T15437   3.481  -0.146   7.746 -0.6566  2.7998  0.5077
  141OSM   C12S15438   3.310  -0.191   7.867 -0.6488 -0.7769 -0.2711
  141OSM   H12S15439   3.353  -0.287   7.902  1.6139  0.7656  1.5020
  141OSM   H12T15440   3.200  -0.197   7.850 -0.3901  0.1253 -2.5810
  141OSM   C13S15441   3.348  -0.090   7.974 -0.3117 -0.2380  1.2056
  141OSM   H13S15442   3.317   0.011   7.941  0.3283 -0.0099  1.2893
  141OSM   H13T15443   3.458  -0.076   7.982  0.2118 -2.2532 -1.2100
  141OSM   C14S15444   3.295  -0.118   8.113  0.4246 -0.1294  0.0060
  141OSM   H14S15445   3.263  -0.223   8.126  0.9988 -0.1174  1.6716
  141OSM   H14T15446   3.200  -0.061   8.122  0.2473 -0.4701  0.2781
  141OSM   C15S15447   3.387  -0.077   8.231 -0.3442  0.5899 -0.5434
  141OSM   H15S15448   3.430   0.018   8.193 -2.9683  2.1003  0.0709
  141OSM   H15T15449   3.472  -0.149   8.238  1.2282  2.4751  0.6562
  141OSM   C16S15450   3.328  -0.072   8.370 -0.9688  0.4494 -0.5840
  141OSM   H16S15451   3.340  -0.175   8.409 -0.3046  0.7709  0.0790
  141OSM   H16T15452   3.222  -0.040   8.361 -0.3924  2.4739 -0.8683
  141OSM   C17S15453   3.389   0.032   8.460  0.5820 -0.9285  0.1430
  141OSM   H17S15454   3.369   0.130   8.413 -1.7858 -0.8042  1.2726
  141OSM   H17T15455   3.499   0.019   8.452  0.9950  2.5626 -1.7039
  141OSM   C18S15456   3.344   0.033   8.607  0.9971  0.2378  0.3813
  141OSM   H18S15457   3.368  -0.067   8.649  1.0457 -0.0935 -0.4163
  141OSM   H18T15458   3.235   0.052   8.601  1.0554  0.9438  1.3135
  141OSM   H18U15459   3.375   0.123   8.665 -3.9261  0.3088  3.5400
  141OSM    C1F15460   3.355   0.221   6.911 -0.3242 -0.6736 -0.0397
  141OSM     OF15461   3.259   0.280   6.857 -0.1001 -0.0921 -0.0701
  141OSM    C2F15462   3.428   0.292   7.022  0.3384 -0.3533  0.3625
  141OSM    H2F15463   3.388   0.395   7.034  2.6285  0.9365 -2.0395
  141OSM    H2G15464   3.537   0.304   7.009  0.4550  0.3912  1.8367
  141OSM    C3F15465   3.399   0.217   7.157  0.4303 -0.1418  0.2008
  141OSM    H3F15466   3.447   0.117   7.154  2.1561  0.6229 -2.8533
  141OSM    H3G15467   3.290   0.207   7.176  0.6941 -0.3659  1.7111
  141OSM    C4F15468   3.437   0.292   7.278  0.2991 -0.0673 -0.8578
  141OSM    H4F15469   3.378   0.383   7.302  0.3877 -0.3460  0.5061
  141OSM    H4G15470   3.538   0.338   7.280 -0.1946  1.2155  3.0519
  141OSM    C5F15471   3.428   0.207   7.406  0.1103 -0.2501  0.1335
  141OSM    H5F15472   3.501   0.126   7.385  1.0174  0.6505 -0.2714
  141OSM    H5G15473   3.326   0.165   7.417 -0.3285  0.4792 -0.9525
  141OSM    C6F15474   3.467   0.283   7.532 -0.2145  0.1879  0.1773
  141OSM    H6F15475   3.384   0.344   7.573  0.3796 -0.2072  2.0199
  141OSM    H6G15476   3.550   0.352   7.503 -0.2190  0.4959  0.8804
  141OSM    C7F15477   3.506   0.194   7.644 -0.1337 -0.0187 -0.4202
  141OSM    H7F15478   3.575   0.115   7.605 -1.9021 -1.0683 -1.5712
  141OSM    H7G15479   3.414   0.138   7.675 -0.3608  0.3795 -0.3755
  141OSM    C8F15480   3.570   0.265   7.762  0.2739  0.1737  0.2641
  141OSM    H8F15481   3.676   0.275   7.730  0.6015 -1.9927  0.5934
  141OSM    H8G15482   3.572   0.192   7.845 -2.8518  0.1320  0.4299
  141OSM    C9F15483   3.504   0.392   7.802  0.2287  0.0423 -0.0334
  141OSM    H9F15484   3.534   0.476   7.737  1.2730 -1.9307 -2.2317
  141OSM   C10F15485   3.415   0.406   7.900 -0.1095  1.5235 -0.0589
  141OSM   H10F15486   3.361   0.501   7.911 -1.8133  0.5525  0.3955
  141OSM   C11F15487   3.364   0.304   7.999  0.1303  0.3861 -0.6799
  141OSM   H11F15488   3.428   0.213   8.007 -0.7289 -0.1608  0.2993
  141OSM   H11G15489   3.256   0.284   7.979 -0.4501  1.0007  1.5792
  141OSM   C12F15490   3.371   0.362   8.141 -0.2850 -0.2291 -0.5586
  141OSM   H12F15491   3.322   0.289   8.209  0.8469 -0.5322 -0.0394
  141OSM   H12G15492   3.318   0.459   8.151 -0.2779 -0.1906 -0.8921
  141OSM   C13F15493   3.509   0.389   8.187 -0.4666 -0.2668  0.3613
  141OSM   H13F15494   3.514   0.414   8.295 -1.4858 -1.0176  0.6017
  141OSM   H13G15495   3.532   0.482   8.130  0.6777 -0.8613 -0.1748
  141OSM   C14F15496   3.623   0.293   8.150  0.2878 -0.0846 -0.2482
  141OSM   H14F15497   3.658   0.320   8.048  1.5258 -0.3703  0.0854
  141OSM   H14G15498   3.598   0.185   8.142  2.0635 -0.4203 -2.0846
  141OSM   C15F15499   3.755   0.316   8.234 -0.1501 -0.2213  1.6183
  141OSM   H15F15500   3.780   0.423   8.241 -0.2491 -0.0971  0.3496
  141OSM   H15G15501   3.837   0.269   8.175 -0.2506  0.1883  1.1468
  141OSM   C16F15502   3.736   0.251   8.369 -0.6735  0.3609 -0.3754
  141OSM   H16F15503   3.718   0.142   8.359  1.0321 -0.0770  0.8911
  141OSM   H16G15504   3.653   0.293   8.430 -0.4211 -1.4167  1.2663
  141OSM   C17F15505   3.868   0.259   8.447  0.6808 -0.1419 -0.5365
  141OSM   H17F15506   3.891   0.365   8.471  0.4664 -0.3476  0.6656
  141OSM   H17G15507   3.949   0.230   8.377  1.5264  1.6547 -0.3773
  141OSM   C18F15508   3.863   0.175   8.574  0.2433 -0.4366  0.4573
  141OSM   H18F15509   3.860   0.068   8.541  0.0623  0.4480 -2.7767
  141OSM   H18G15510   3.780   0.207   8.639 -1.2727 -0.4166 -1.3985
  141OSM   H18H15511   3.956   0.188   8.634  0.0222 -2.1730  1.2463
  142OSM      N15512   4.404   1.086   6.269  0.1248 -0.7264 -0.2625
  142OSM    C1515513   4.357   1.105   6.413 -0.2396 -0.1863 -0.1127
  142OSM   H15A15514   4.418   1.173   6.471 -0.1986 -0.0677 -0.2958
  142OSM   H15B15515   4.343   1.010   6.462 -0.2048 -0.7125 -1.1060
  142OSM   H15C15516   4.261   1.155   6.421  0.2290  0.6216  0.6986
  142OSM    C1415517   4.407   1.217   6.197  0.4123 -0.4001 -0.0181
  142OSM   H14A15518   4.494   1.272   6.228 -1.1866  1.4475  1.4613
  142OSM   H14B15519   4.326   1.283   6.227  0.7529 -0.1843  0.4418
  142OSM   H14C15520   4.419   1.210   6.090 -0.6884 -0.9260 -0.1242
  142OSM    C1315521   4.546   1.032   6.268  0.5202  0.0389 -0.6566
  142OSM   H13A15522   4.537   0.931   6.307  1.3295  0.7174  1.4665
  142OSM   H13B15523   4.609   1.096   6.327  0.3136  0.9118 -1.3661
  142OSM   H13C15524   4.576   1.022   6.165 -2.2503 -2.5911 -1.3537
  142OSM    C1215525   4.306   0.996   6.194 -0.2058  0.0749 -0.0875
  142OSM   H12A15526   4.311   1.009   6.086  1.6518  2.8471  0.2294
  142OSM   H12B15527   4.208   1.039   6.206 -0.5114 -0.3462 -0.9778
  142OSM    C1115528   4.313   0.854   6.250 -0.1907 -0.5842  0.0578
  142OSM   H11A15529   4.415   0.810   6.235  0.2684  1.0595 -2.2936
  142OSM   H11B15530   4.254   0.788   6.183 -1.2633  0.2456  0.1719
  142OSM      P15531   4.127   0.807   6.419 -0.3644 -0.3420 -0.0051
  142OSM    O1315532   4.028   0.894   6.358  0.1299 -0.0898  0.1094
  142OSM    O1415533   4.123   0.666   6.385  0.3446  0.5372 -0.1316
  142OSM    O1115534   4.110   0.811   6.580  0.1399 -0.1674 -0.0317
  142OSM    O1215535   4.273   0.848   6.386  0.4514  0.2710 -0.4000
  142OSM    C1S15536   4.154   0.926   6.661 -0.4300  0.5364 -0.5553
  142OSM    H1S15537   4.105   1.017   6.622 -0.4974  0.9921  0.5577
  142OSM    H1T15538   4.262   0.946   6.643  0.2841  1.0998  3.3010
  142OSM     NF15539   4.155   1.042   6.892 -0.5136  0.0479 -0.2132
  142OSM    HNF15540   4.240   1.040   6.945 -0.3274 -3.0584 -0.4490
  142OSM    C2S15541   4.123   0.920   6.817 -0.2381  0.8664 -0.6394
  142OSM    H2S15542   4.013   0.910   6.835  0.1747 -3.2216  0.3961
  142OSM    C3S15543   4.200   0.801   6.876  0.5565 -0.1744  0.4125
  142OSM    H3S15544   4.306   0.831   6.882 -0.0560  1.8930  1.8439
  142OSM     O315545   4.209   0.682   6.796  0.7957  0.0322 -0.3896
  142OSM    HO315546   4.173   0.704   6.710 -2.2556 -1.6600  0.2913
  142OSM    C4S15547   4.157   0.785   7.019 -0.6482  0.1039 -0.7039
  142OSM    H4S15548   4.057   0.746   7.044  0.1686 -1.8773 -0.3385
  142OSM    C5S15549   4.237   0.797   7.127 -0.0108  0.3467 -0.6439
  142OSM    H5S15550   4.345   0.820   7.116  0.0103  0.0134 -1.1859
  142OSM    C6S15551   4.183   0.791   7.263 -0.0442  0.6420 -0.6349
  142OSM    H6S15552   4.126   0.696   7.271 -0.1611  0.6517 -1.3194
  142OSM    H6T15553   4.107   0.871   7.279  0.4135  0.5935  2.4093
  142OSM    C7S15554   4.287   0.795   7.374  0.4794 -0.6133  0.0749
  142OSM    H7S15555   4.339   0.892   7.352 -0.9979 -0.0763 -1.2496
  142OSM    H7T15556   4.357   0.709   7.371  0.2527 -0.8549  1.3610
  142OSM    C8S15557   4.222   0.816   7.517 -0.6556  0.1235  0.5153
  142OSM    H8S15558   4.159   0.727   7.537 -0.2853 -0.3399 -0.3366
  142OSM    H8T15559   4.146   0.896   7.511  0.7453  1.4971  0.3988
  142OSM    C9S15560   4.329   0.836   7.625 -0.5833 -0.2439  0.3053
  142OSM    H9S15561   4.393   0.919   7.589  0.4043 -0.7719  0.8015
  142OSM    H9T15562   4.389   0.743   7.634  1.9540  1.2947  0.3702
  142OSM   C10S15563   4.262   0.864   7.759  0.1583 -0.1431  0.3598
  142OSM   H10S15564   4.194   0.778   7.776  0.6643 -1.8245 -4.5351
  142OSM   H10T15565   4.202   0.957   7.755 -1.2008 -0.9055  1.8756
  142OSM   C11S15566   4.358   0.874   7.884 -0.4662  0.0647  0.3075
  142OSM   H11S15567   4.398   0.978   7.885 -3.5463  1.4847 -2.9750
  142OSM   H11T15568   4.438   0.797   7.883 -1.4945 -1.0649  1.2776
  142OSM   C12S15569   4.273   0.856   8.014  0.1028 -0.2729  0.2326
  142OSM   H12S15570   4.228   0.754   8.010 -0.3859 -0.0940  1.0223
  142OSM   H12T15571   4.199   0.939   8.010 -0.1005 -0.3646  1.5244
  142OSM   C13S15572   4.358   0.865   8.139 -0.3434  1.0319 -0.1232
  142OSM   H13S15573   4.421   0.957   8.138  0.4454  0.5062  0.3331
  142OSM   H13T15574   4.429   0.780   8.134 -1.6474 -0.0190 -1.5345
  142OSM   C14S15575   4.278   0.852   8.275  0.6009 -0.2304 -0.3396
  142OSM   H14S15576   4.191   0.785   8.261 -1.0603  1.6764  0.4186
  142OSM   H14T15577   4.240   0.954   8.297 -0.1523 -0.5758 -0.0241
  142OSM   C15S15578   4.363   0.814   8.396 -0.2982 -0.4959 -0.5996
  142OSM   H15S15579   4.373   0.704   8.403  0.9463 -0.4005 -0.7569
  142OSM   H15T15580   4.301   0.838   8.485 -1.0643  1.3655 -1.5736
  142OSM   C16S15581   4.488   0.905   8.408  0.3102  0.3676  0.3575
  142OSM   H16S15582   4.557   0.885   8.324  2.6672 -1.6127  2.5808
  142OSM   H16T15583   4.541   0.874   8.501  1.4582  0.5329 -0.2273
  142OSM   C17S15584   4.457   1.057   8.415  0.2036 -0.4854 -0.3303
  142OSM   H17S15585   4.392   1.085   8.501  0.6404  4.6596 -1.3592
  142OSM   H17T15586   4.408   1.101   8.326  1.0410  0.3181 -0.4104
  142OSM   C18S15587   4.586   1.140   8.428 -0.0728  1.4760  0.1053
  142OSM   H18S15588   4.557   1.246   8.446 -3.7012  0.5291  0.5593
  142OSM   H18T15589   4.637   1.137   8.329  0.2315  0.5664  0.2837
  142OSM   H18U15590   4.650   1.097   8.507 -2.1537 -0.9681  0.5742
  142OSM    C1F15591   4.089   1.155   6.860 -0.3747  0.1794  0.6699
  142OSM     OF15592   3.994   1.166   6.785 -0.4475 -0.3209  0.2588
  142OSM    C2F15593   4.148   1.276   6.924  0.2628 -0.3596 -0.1254
  142OSM    H2F15594   4.178   1.353   6.850  2.1376 -1.2327 -0.3376
  142OSM    H2G15595   4.241   1.246   6.976  1.4284 -0.8917 -2.3958
  142OSM    C3F15596   4.053   1.361   7.021 -0.0075  0.5071  0.3741
  142OSM    H3F15597   3.966   1.381   6.954  0.4746 -0.6876 -0.6555
  142OSM    H3G15598   4.112   1.453   7.043 -0.2522  0.1159  2.9718
  142OSM    C4F15599   4.008   1.291   7.148 -0.3363  0.6603 -0.2558
  142OSM    H4F15600   3.945   1.200   7.141 -2.0456  1.7170  0.6480
  142OSM    H4G15601   3.944   1.350   7.217 -0.6065 -0.5991  0.6045
  142OSM    C5F15602   4.122   1.233   7.240 -0.4926  0.5458 -0.6466
  142OSM    H5F15603   4.181   1.324   7.261  0.3460  0.3381 -2.0016
  142OSM    H5G15604   4.186   1.174   7.171  0.4704  2.5248 -1.5310
  142OSM    C6F15605   4.076   1.165   7.372  0.3200 -0.1333 -0.6107
  142OSM    H6F15606   4.155   1.098   7.412  0.4199  1.3890  1.9353
  142OSM    H6G15607   3.996   1.092   7.345  0.8061 -0.4108 -1.3517
  142OSM    C7F15608   4.027   1.254   7.484  0.0285  0.4293  0.3464
  142OSM    H7F15609   3.944   1.314   7.440 -1.3611 -1.1079  0.7443
  142OSM    H7G15610   4.104   1.328   7.512  0.8271 -0.4020  0.3962
  142OSM    C8F15611   3.981   1.165   7.598  0.4091 -0.2692 -0.6688
  142OSM    H8F15612   4.059   1.095   7.633  0.0021 -0.2494  0.2982
  142OSM    H8G15613   3.893   1.107   7.563 -0.1777 -0.2622  0.7348
  142OSM    C9F15614   3.940   1.253   7.713  0.8092 -0.6750  0.1066
  142OSM    H9F15615   3.838   1.294   7.703  2.2021  2.4540 -2.9757
  142OSM   C10F15616   4.006   1.289   7.829  0.8778 -0.0131  0.1198
  142OSM   H10F15617   3.941   1.343   7.900 -0.7181  0.3085 -1.5133
  142OSM   C11F15618   4.147   1.246   7.864 -0.0183 -0.3783  0.7472
  142OSM   H11F15619   4.223   1.315   7.822 -1.2191 -0.3781 -1.6049
  142OSM   H11G15620   4.164   1.149   7.813 -0.8373  0.5515 -1.4290
  142OSM   C12F15621   4.174   1.243   8.014 -0.2819  0.1404  0.8340
  142OSM   H12F15622   4.282   1.219   8.023  0.3533  1.0005 -2.8714
  142OSM   H12G15623   4.111   1.160   8.052 -1.3501  1.0110  1.0441
  142OSM   C13F15624   4.153   1.377   8.084 -0.2121 -1.1341 -0.8010
  142OSM   H13F15625   4.043   1.391   8.094 -0.0697 -0.1087 -0.5185
  142OSM   H13G15626   4.193   1.463   8.027  2.4515 -0.6528  1.5701
  142OSM   C14F15627   4.228   1.387   8.223 -0.1963 -0.3649  0.0424
  142OSM   H14F15628   4.203   1.481   8.275  0.9632  0.2447 -0.4639
  142OSM   H14G15629   4.335   1.386   8.193 -0.2415  0.6800 -0.1770
  142OSM   C15F15630   4.206   1.273   8.325  0.6416  0.7767 -0.2082
  142OSM   H15F15631   4.265   1.286   8.419 -0.4823 -0.0153  0.6338
  142OSM   H15G15632   4.215   1.169   8.289  0.2742  0.4305  0.6566
  142OSM   C16F15633   4.057   1.277   8.374  0.2457 -0.4463  0.0297
  142OSM   H16F15634   3.994   1.278   8.283 -0.2816  1.8340  0.3437
  142OSM   H16G15635   4.036   1.367   8.437  0.8544  1.5885 -2.4910
  142OSM   C17F15636   4.014   1.148   8.443  0.7700 -0.4529  0.1963
  142OSM   H17F15637   4.041   1.056   8.386  0.7821  0.0289 -0.5949
  142OSM   H17G15638   3.903   1.151   8.454  0.7488 -0.4530 -0.0115
  142OSM   C18F15639   4.065   1.124   8.577  0.5275  0.3730 -0.0270
  142OSM   H18F15640   4.174   1.104   8.577  0.5075 -0.4280  3.3260
  142OSM   H18G15641   4.020   1.039   8.634 -0.0702 -0.1007 -1.1747
  142OSM   H18H15642   4.043   1.208   8.646 -0.0197 -1.5705  2.3016
  143OSM      N15643   4.560   5.227   6.653  0.1754 -0.6040  0.3652
  143OSM    C1515644   4.566   5.171   6.513  0.2817 -0.2470 -0.1123
  143OSM   H15A15645   4.467   5.152   6.474 -0.1281  0.1557  0.7015
  143OSM   H15B15646   4.626   5.081   6.511  0.5256 -0.1623  1.8390
  143OSM   H15C15647   4.599   5.253   6.451  0.4029  0.0440  0.3366
  143OSM    C1415648   4.518   5.363   6.649 -0.4706 -0.2337 -0.4206
  143OSM   H14A15649   4.583   5.434   6.600  1.1888 -1.1924  0.3326
  143OSM   H14B15650   4.508   5.403   6.749  0.2994 -0.8952 -0.0745
  143OSM   H14C15651   4.420   5.374   6.604 -0.4611 -0.1073 -0.4110
  143OSM    C1315652   4.466   5.154   6.736 -0.6753  0.0011  0.0276
  143OSM   H13A15653   4.469   5.183   6.840  2.6218 -2.1639  0.7121
  143OSM   H13B15654   4.489   5.048   6.735 -3.5200 -0.6971 -0.7829
  143OSM   H13C15655   4.369   5.155   6.688 -0.1707 -0.3481 -1.0425
  143OSM    C1215656   4.697   5.224   6.709  0.5081  0.3350 -0.7254
  143OSM   H12A15657   4.689   5.239   6.815 -2.4158 -1.2215 -0.6386
  143OSM   H12B15658   4.750   5.305   6.660  0.5386  0.5696 -0.3028
  143OSM    C1115659   4.779   5.093   6.686 -0.1180  0.0142 -0.7183
  143OSM   H11A15660   4.717   5.008   6.722 -1.0094  1.8225  2.4051
  143OSM   H11B15661   4.858   5.097   6.764  1.2279 -1.2694 -1.9644
  143OSM      P15662   4.947   5.160   6.493 -0.2264 -0.1512 -0.2273
  143OSM    O1315663   5.031   5.074   6.404 -0.4225  0.2462  0.4648
  143OSM    O1415664   4.902   5.288   6.439  0.8528  0.2521 -0.4553
  143OSM    O1115665   5.018   5.185   6.632 -0.2082 -0.6744  0.2165
  143OSM    O1215666   4.824   5.082   6.554 -0.6600  0.1165  0.4777
  143OSM    C1S15667   5.037   5.324   6.682 -0.1511 -0.0657 -0.1502
  143OSM    H1S15668   4.950   5.391   6.664  1.7830  3.0410  1.2776
  143OSM    H1T15669   5.118   5.379   6.629 -0.1546  0.0528 -0.0304
  143OSM     NF15670   5.026   5.459   6.886 -0.1738 -0.4721  0.2578
  143OSM    HNF15671   5.095   5.530   6.871 -1.7779  1.5785  2.0776
  143OSM    C2S15672   5.052   5.324   6.836 -0.5637  0.5110  0.3811
  143OSM    H2S15673   4.969   5.261   6.875 -1.0119  0.4696 -0.5975
  143OSM    C3S15674   5.191   5.262   6.873  0.1206  0.1258 -0.3401
  143OSM    H3S15675   5.272   5.308   6.812 -0.0040  0.2823 -0.3881
  143OSM     O315676   5.189   5.123   6.846 -0.1187 -0.1541  0.2470
  143OSM    HO315677   5.166   5.123   6.753 -1.8647  0.2158  0.6456
  143OSM    C4S15678   5.232   5.283   7.014 -0.2618 -0.8058  0.2166
  143OSM    H4S15679   5.273   5.385   7.020 -0.2683 -0.3785 -4.2572
  143OSM    C5S15680   5.224   5.203   7.122  0.7990 -0.0061  0.1741
  143OSM    H5S15681   5.184   5.103   7.102 -1.4244  0.7634  0.4551
  143OSM    C6S15682   5.257   5.231   7.267 -0.8361  0.7742  0.0856
  143OSM    H6S15683   5.323   5.149   7.303 -2.1796 -0.9912 -1.2426
  143OSM    H6T15684   5.177   5.213   7.343  0.5066 -1.5133  1.0741
  143OSM    C7S15685   5.324   5.365   7.296  0.6890  0.0003  0.6579
  143OSM    H7S15686   5.253   5.439   7.251 -1.4335 -3.1052 -1.5308
  143OSM    H7T15687   5.415   5.372   7.233 -0.4774  1.9532 -0.9448
  143OSM    C8S15688   5.356   5.371   7.445  0.3621  0.3395 -0.2858
  143OSM    H8S15689   5.420   5.286   7.477 -1.1176 -0.2994  1.0892
  143OSM    H8T15690   5.267   5.358   7.509  0.9091 -0.8098  0.2787
  143OSM    C9S15691   5.428   5.505   7.483 -0.0136 -0.4986 -0.0784
  143OSM    H9S15692   5.358   5.592   7.478 -0.3078 -0.6454  1.3092
  143OSM    H9T15693   5.498   5.529   7.400 -0.0455  0.2789  0.1136
  143OSM   C10S15694   5.523   5.505   7.604  0.1945 -0.0002 -0.4018
  143OSM   H10S15695   5.596   5.589   7.608  1.1617 -0.8409  0.5371
  143OSM   H10T15696   5.584   5.411   7.603  0.6124  0.2181  1.2047
  143OSM   C11S15697   5.449   5.503   7.738  0.6541  0.2336 -0.0085
  143OSM   H11S15698   5.418   5.400   7.768 -1.4148  0.3710 -1.4791
  143OSM   H11T15699   5.355   5.562   7.739 -0.5755 -1.4759  3.8681
  143OSM   C12S15700   5.533   5.552   7.856 -0.5419 -0.2241 -0.1993
  143OSM   H12S15701   5.549   5.661   7.837  0.3867 -0.5648 -1.6115
  143OSM   H12T15702   5.637   5.515   7.842  0.3047  2.3162 -1.3656
  143OSM   C13S15703   5.457   5.526   7.987 -0.3116 -0.0590 -1.1980
  143OSM   H13S15704   5.457   5.417   8.010 -1.4815 -0.5848 -3.3969
  143OSM   H13T15705   5.355   5.569   7.974 -0.2132 -0.2560 -2.7398
  143OSM   C14S15706   5.522   5.604   8.102 -0.1361  0.5482 -0.2879
  143OSM   H14S15707   5.628   5.573   8.100 -0.6179 -1.2414 -0.3009
  143OSM   H14T15708   5.478   5.565   8.197 -1.6532  2.1110 -0.2975
  143OSM   C15S15709   5.517   5.758   8.111  0.9711  0.2772  0.3082
  143OSM   H15S15710   5.412   5.789   8.095  1.1531  0.5452 -0.3898
  143OSM   H15T15711   5.571   5.801   8.024 -2.1754 -0.0695 -1.9897
  143OSM   C16S15712   5.577   5.821   8.241  0.1776  1.0414 -0.5404
  143OSM   H16S15713   5.687   5.833   8.230  0.7295 -1.5421  1.3026
  143OSM   H16T15714   5.563   5.743   8.318  2.4391  0.6675 -0.4281
  143OSM   C17S15715   5.508   5.947   8.281  0.8248 -0.3597 -0.1091
  143OSM   H17S15716   5.400   5.924   8.287  0.9486 -1.0955 -0.5828
  143OSM   H17T15717   5.533   6.032   8.214  1.0499 -0.9985 -0.8500
  143OSM   C18S15718   5.542   5.988   8.423 -0.4954  0.6326  0.8290
  143OSM   H18S15719   5.631   6.053   8.438 -1.5256  2.1244  0.6596
  143OSM   H18T15720   5.564   5.899   8.486  2.9892 -1.4160 -2.7598
  143OSM   H18U15721   5.455   6.036   8.471  0.2042 -0.1903  3.0414
  143OSM    C1F15722   4.903   5.489   6.921  0.0788  0.4122 -0.0643
  143OSM     OF15723   4.812   5.404   6.908  0.2212  0.1749  0.8322
  143OSM    C2F15724   4.871   5.624   6.971  0.2193 -0.3554 -1.2021
  143OSM    H2F15725   4.795   5.667   6.903 -0.6489 -2.4761 -1.6557
  143OSM    H2G15726   4.963   5.686   6.970  0.5683 -0.8149  0.1502
  143OSM    C3F15727   4.822   5.612   7.122 -0.0095  0.1454  0.1560
  143OSM    H3F15728   4.731   5.550   7.117  0.0853  0.0880 -1.1356
  143OSM    H3G15729   4.798   5.713   7.163 -1.2111 -0.2584  0.4725
  143OSM    C4F15730   4.913   5.543   7.229 -0.2020  0.2171 -0.5352
  143OSM    H4F15731   5.013   5.590   7.242  1.3588 -3.1313  0.7415
  143OSM    H4G15732   4.933   5.438   7.201 -0.3966  0.2700 -0.8824
  143OSM    C5F15733   4.857   5.556   7.375  0.2478  0.4305  0.5394
  143OSM    H5F15734   4.754   5.514   7.378 -0.9509  2.8937 -1.7554
  143OSM    H5G15735   4.852   5.666   7.383  0.2899  0.4202  0.6978
  143OSM    C6F15736   4.963   5.502   7.477  0.3596 -0.0734  0.5555
  143OSM    H6F15737   5.062   5.546   7.451 -2.2064  4.7062 -2.4305
  143OSM    H6G15738   4.971   5.391   7.476 -0.1754 -0.1101 -0.5334
  143OSM    C7F15739   4.933   5.553   7.617 -0.0132 -0.6629  0.3007
  143OSM    H7F15740   4.832   5.512   7.635 -0.5988 -0.3368 -1.9009
  143OSM    H7G15741   4.924   5.664   7.615 -0.8379 -0.7119  0.8001
  143OSM    C8F15742   5.041   5.517   7.728 -0.0203 -0.2039 -0.3045
  143OSM    H8F15743   5.024   5.571   7.824 -0.5758  0.8749 -1.0049
  143OSM    H8G15744   5.143   5.551   7.703 -0.3722  1.8739  0.8917
  143OSM    C9F15745   5.060   5.372   7.750  0.0410 -0.5024 -0.3095
  143OSM    H9F15746   5.120   5.326   7.671 -0.2460  0.0290 -0.8494
  143OSM   C10F15747   4.989   5.298   7.831  0.3328 -0.3182 -0.0879
  143OSM   H10F15748   5.004   5.189   7.821  1.3871  0.0315 -3.7231
  143OSM   C11F15749   4.880   5.346   7.922 -0.3949 -0.0824 -0.1996
  143OSM   H11F15750   4.783   5.293   7.905 -0.5276 -0.0537  0.4140
  143OSM   H11G15751   4.858   5.454   7.910 -1.1801  0.0536  1.8865
  143OSM   C12F15752   4.908   5.349   8.076  0.0955 -0.1529 -0.2084
  143OSM   H12F15753   4.944   5.248   8.105 -1.0799 -0.8112 -0.9645
  143OSM   H12G15754   4.811   5.377   8.122  0.0787 -1.1701  0.3995
  143OSM   C13F15755   5.020   5.445   8.119 -0.2677 -0.3117  0.2735
  143OSM   H13F15756   4.960   5.537   8.103  1.7840  1.0891  0.3002
  143OSM   H13G15757   5.114   5.449   8.059 -0.4574  1.0844  0.0328
  143OSM   C14F15758   5.048   5.435   8.269 -0.3893  0.1021  0.5893
  143OSM   H14F15759   5.095   5.336   8.284  2.2945  1.1721  0.0191
  143OSM   H14G15760   4.955   5.454   8.327  0.1111 -0.2922  1.5457
  143OSM   C15F15761   5.154   5.546   8.312 -0.4130  0.6358 -0.8366
  143OSM   H15F15762   5.129   5.638   8.254  0.3615  0.8360 -0.8767
  143OSM   H15G15763   5.254   5.518   8.272 -0.0846  2.7593 -1.6517
  143OSM   C16F15764   5.163   5.585   8.462 -0.0051 -0.5334 -0.3142
  143OSM   H16F15765   5.176   5.496   8.526 -1.6767  0.4556  1.4981
  143OSM   H16G15766   5.070   5.630   8.503 -1.3880 -3.1105 -0.4281
  143OSM   C17F15767   5.279   5.684   8.487 -0.0858  0.0629  0.2496
  143OSM   H17F15768   5.238   5.783   8.517 -1.0667 -0.2016 -0.2078
  143OSM   H17G15769   5.335   5.715   8.396  1.2099  0.1172  1.0324
  143OSM   C18F15770   5.361   5.637   8.600 -0.1325  0.1362  0.1200
  143OSM   H18F15771   5.298   5.641   8.691 -1.0612  0.0925 -0.5068
  143OSM   H18G15772   5.440   5.715   8.607  1.0364 -0.7902 -1.8423
  143OSM   H18H15773   5.412   5.539   8.603  2.9500  1.5126 -2.0981
  144OSM      N15774   3.490   2.606   6.390  0.6983  0.0799 -0.2968
  144OSM    C1515775   3.524   2.709   6.491 -0.1698 -0.2349  0.7225
  144OSM   H15A15776   3.602   2.667   6.553  1.6238 -1.1872 -2.0227
  144OSM   H15B15777   3.434   2.733   6.546 -0.7987 -1.7495  0.4001
  144OSM   H15C15778   3.565   2.791   6.435 -0.1549 -2.0241 -2.0530
  144OSM    C1415779   3.423   2.488   6.464  0.3897  0.2222 -0.8150
  144OSM   H14A15780   3.379   2.415   6.398  0.8743  0.9396 -1.9769
  144OSM   H14B15781   3.347   2.528   6.530  0.3865  3.1656 -2.4219
  144OSM   H14C15782   3.489   2.426   6.523  1.4417  0.9399 -1.2053
  144OSM    C1315783   3.387   2.655   6.292 -0.4294 -0.4429 -0.3834
  144OSM   H13A15784   3.362   2.580   6.218 -0.9834 -0.8694  0.2159
  144OSM   H13B15785   3.415   2.749   6.248  1.3277 -0.8673 -0.2711
  144OSM   H13C15786   3.301   2.681   6.352 -0.8915 -0.4357 -1.0325
  144OSM    C1215787   3.619   2.566   6.320  0.1142  0.4407 -0.3358
  144OSM   H12A15788   3.593   2.473   6.273 -3.9182  0.0801  2.1840
  144OSM   H12B15789   3.686   2.534   6.399 -1.5590 -2.4199  0.0217
  144OSM    C1115790   3.685   2.668   6.220 -0.3820 -0.0227 -0.3977
  144OSM   H11A15791   3.600   2.696   6.155 -1.9568 -0.7159  1.2704
  144OSM   H11B15792   3.772   2.625   6.164 -0.1564 -0.4032  0.2312
  144OSM      P15793   3.766   2.916   6.203  0.2833 -0.4782 -0.2304
  144OSM    O1315794   3.824   2.877   6.072 -0.3878 -0.0374 -0.1421
  144OSM    O1415795   3.654   3.007   6.217  0.7846 -0.0647 -0.3133
  144OSM    O1115796   3.889   2.963   6.293 -0.1936 -0.0381 -0.6028
  144OSM    O1215797   3.725   2.787   6.289  0.0985 -0.3332 -0.5121
  144OSM    C1S15798   3.864   3.029   6.421 -0.2922  0.1771  0.8054
  144OSM    H1S15799   3.775   2.982   6.468 -2.3324  1.2738 -1.6838
  144OSM    H1T15800   3.845   3.138   6.408  3.6835  0.9347  0.1480
  144OSM     NF15801   3.921   3.041   6.653 -0.1319  0.5167 -0.0498
  144OSM    HNF15802   3.933   3.136   6.682  1.8496  0.4196 -0.4292
  144OSM    C2S15803   3.978   3.018   6.525  0.4164  0.0826  0.2169
  144OSM    H2S15804   4.023   2.916   6.524  1.2293  0.3949  1.6492
  144OSM    C3S15805   4.094   3.117   6.496  0.4895  0.3258  0.2775
  144OSM    H3S15806   4.061   3.220   6.524  0.6639 -0.2392  2.8117
  144OSM     O315807   4.127   3.114   6.356 -0.2814 -0.5617  0.2199
  144OSM    HO315808   4.070   3.048   6.316  0.2560  0.2683 -2.0561
  144OSM    C4S15809   4.213   3.092   6.583  0.0095  0.3377  0.4996
  144OSM    H4S15810   4.190   3.105   6.690 -1.2504 -4.6612  1.0818
  144OSM    C5S15811   4.338   3.043   6.554  0.0330 -0.1882 -0.8430
  144OSM    H5S15812   4.365   3.033   6.448  0.2861  1.9071 -1.0215
  144OSM    C6S15813   4.446   3.010   6.651 -0.2371  0.0102  0.2121
  144OSM    H6S15814   4.535   3.048   6.596 -0.4451 -0.4894 -0.4846
  144OSM    H6T15815   4.482   2.905   6.657  0.4855  0.1808 -0.8463
  144OSM    C7S15816   4.433   3.056   6.795  0.3742  0.4182  0.5665
  144OSM    H7S15817   4.330   3.087   6.821  0.4064  4.0888 -2.7726
  144OSM    H7T15818   4.491   3.150   6.805 -3.4453  3.1527 -0.9028
  144OSM    C8S15819   4.490   2.948   6.885 -0.7983 -0.1765 -0.2297
  144OSM    H8S15820   4.598   2.942   6.863 -1.2524  0.1462 -2.8553
  144OSM    H8T15821   4.452   2.845   6.869  0.1783 -0.4731 -0.7303
  144OSM    C9S15822   4.473   2.998   7.028 -0.1712  0.1570  0.4173
  144OSM    H9S15823   4.363   3.008   7.039 -0.3516  1.1102 -1.7067
  144OSM    H9T15824   4.526   3.095   7.037  0.3580 -0.1928  1.1827
  144OSM   C10S15825   4.510   2.900   7.145  0.5155  0.2221 -0.1391
  144OSM   H10S15826   4.609   2.854   7.129 -0.1882 -0.9979 -1.2598
  144OSM   H10T15827   4.422   2.832   7.143  1.8570 -1.5370 -1.3965
  144OSM   C11S15828   4.507   2.969   7.287  0.7863  0.0474 -0.4983
  144OSM   H11S15829   4.404   2.953   7.326 -0.0119  1.3936 -1.9081
  144OSM   H11T15830   4.519   3.078   7.269  0.8188 -0.0523 -1.0964
  144OSM   C12S15831   4.621   2.936   7.381  0.3523  0.0108  0.0741
  144OSM   H12S15832   4.723   2.959   7.344  1.3606  1.0498  3.1868
  144OSM   H12T15833   4.617   2.829   7.411 -0.7876  0.3478  1.2149
  144OSM   C13S15834   4.628   3.021   7.517  0.5201 -0.0996  0.1877
  144OSM   H13S15835   4.623   3.128   7.486  1.5620 -0.3281 -0.8606
  144OSM   H13T15836   4.718   2.988   7.573  0.9359  3.5344  1.9992
  144OSM   C14S15837   4.504   2.997   7.618 -0.6627  1.0273  0.7080
  144OSM   H14S15838   4.490   2.887   7.617  1.8420  0.6212 -1.8444
  144OSM   H14T15839   4.416   3.058   7.589 -2.1843 -1.4437 -0.1326
  144OSM   C15S15840   4.530   3.056   7.762  0.7044 -0.4375 -0.0020
  144OSM   H15S15841   4.532   3.167   7.757  0.4874 -0.3397  1.6319
  144OSM   H15T15842   4.626   3.012   7.796 -0.0882 -0.8975  1.7530
  144OSM   C16S15843   4.413   3.016   7.854 -0.4204 -0.1324  0.3770
  144OSM   H16S15844   4.398   2.908   7.876 -0.4948 -0.2088 -0.0446
  144OSM   H16T15845   4.326   3.044   7.792 -0.4323 -1.1295 -0.0772
  144OSM   C17S15846   4.418   3.108   7.976  0.7072  0.4994 -0.1558
  144OSM   H17S15847   4.408   3.218   7.958  2.9138  0.2707 -4.0143
  144OSM   H17T15848   4.516   3.092   8.026  1.4240  3.0687 -0.5887
  144OSM   C18S15849   4.305   3.058   8.084  0.3709 -0.8797 -0.4707
  144OSM   H18S15850   4.327   3.100   8.185 -1.3422  0.7350 -0.7107
  144OSM   H18T15851   4.319   2.949   8.097  0.1329 -0.7716  0.7966
  144OSM   H18U15852   4.202   3.085   8.053  0.5530  0.4177 -0.0378
  144OSM    C1F15853   3.834   2.965   6.727 -0.0588  0.0757 -0.3480
  144OSM     OF15854   3.807   2.856   6.685  0.0867  0.3153 -0.2919
  144OSM    C2F15855   3.779   3.026   6.853  0.5173 -0.7234  0.2944
  144OSM    H2F15856   3.683   3.078   6.832 -0.5237 -1.7345  2.3114
  144OSM    H2G15857   3.844   3.108   6.889 -0.0790  0.4856 -1.2614
  144OSM    C3F15858   3.762   2.923   6.967 -0.0316  0.5346 -0.4726
  144OSM    H3F15859   3.869   2.899   6.985  0.6359  2.9175 -1.0064
  144OSM    H3G15860   3.704   2.831   6.940 -0.9853  1.0024 -0.0459
  144OSM    C4F15861   3.705   2.977   7.097 -0.2495  0.0817  0.3659
  144OSM    H4F15862   3.597   3.000   7.079  0.0272  1.1666 -0.0122
  144OSM    H4G15863   3.752   3.072   7.130 -1.4648  0.3332  1.5016
  144OSM    C5F15864   3.745   2.886   7.215  0.2682 -0.3676 -0.4372
  144OSM    H5F15865   3.713   2.934   7.310  1.7547 -0.3607  0.0918
  144OSM    H5G15866   3.856   2.885   7.228  0.0003  0.1300  3.0062
  144OSM    C6F15867   3.698   2.741   7.220  0.3712  0.1256  0.2164
  144OSM    H6F15868   3.709   2.692   7.319 -1.2977 -0.9035 -0.0702
  144OSM    H6G15869   3.758   2.686   7.144  0.9829 -0.0223  0.7978
  144OSM    C7F15870   3.548   2.726   7.201  0.2888  0.0837 -0.8702
  144OSM    H7F15871   3.506   2.784   7.116 -0.7582  0.8985  0.1626
  144OSM    H7G15872   3.500   2.778   7.286  2.2514 -1.4903  1.3255
  144OSM    C8F15873   3.490   2.579   7.183 -0.2272  0.3119 -0.3787
  144OSM    H8F15874   3.521   2.522   7.273  0.1906  0.2029 -0.5908
  144OSM    H8G15875   3.544   2.538   7.096  2.2164  0.2296  1.0776
  144OSM    C9F15876   3.343   2.568   7.142 -0.1795  0.8023 -0.1861
  144OSM    H9F15877   3.323   2.601   7.039  2.3358 -0.2048 -1.0924
  144OSM   C10F15878   3.243   2.516   7.210  0.3505 -0.0964  0.2093
  144OSM   H10F15879   3.142   2.524   7.167  0.1987  0.4748  0.6584
  144OSM   C11F15880   3.255   2.460   7.345  0.3202  0.4612 -0.4386
  144OSM   H11F15881   3.362   2.436   7.361 -0.0411 -0.6706  0.4004
  144OSM   H11G15882   3.191   2.372   7.367 -0.9358  1.9020  2.3453
  144OSM   C12F15883   3.223   2.563   7.453  0.2161  0.5138 -0.3214
  144OSM   H12F15884   3.117   2.597   7.455  0.4940  1.5087  2.1451
  144OSM   H12G15885   3.274   2.659   7.431 -0.4131  0.8861 -0.1525
  144OSM   C13F15886   3.265   2.510   7.587 -0.7474  0.7213 -0.1450
  144OSM   H13F15887   3.279   2.591   7.661 -1.1942  1.2480 -0.6268
  144OSM   H13G15888   3.361   2.457   7.570 -0.8453 -1.0330  3.6149
  144OSM   C14F15889   3.165   2.415   7.643  0.3675  0.2691 -0.1490
  144OSM   H14F15890   3.148   2.325   7.580  0.4159 -0.0816  0.3297
  144OSM   H14G15891   3.066   2.461   7.661  0.8106  1.0311  0.3949
  144OSM   C15F15892   3.214   2.352   7.786  0.2712 -0.5042 -0.3267
  144OSM   H15F15893   3.318   2.317   7.773 -0.4181 -2.1131 -1.7422
  144OSM   H15G15894   3.161   2.256   7.802  1.5211 -1.0007  1.0206
  144OSM   C16F15895   3.191   2.438   7.912 -0.0121  0.3201 -0.8021
  144OSM   H16F15896   3.082   2.459   7.911  0.0261  0.5860 -0.2461
  144OSM   H16G15897   3.229   2.542   7.899 -2.6882  1.5584  0.3511
  144OSM   C17F15898   3.245   2.366   8.038 -1.4811 -0.5234  0.3396
  144OSM   H17F15899   3.252   2.448   8.113  0.3222  0.4132 -0.7764
  144OSM   H17G15900   3.353   2.344   8.035 -1.8608 -2.5881  0.6371
  144OSM   C18F15901   3.172   2.240   8.093 -0.3569  0.2313  0.4023
  144OSM   H18F15902   3.160   2.156   8.022  2.2576 -0.5021  0.7145
  144OSM   H18G15903   3.080   2.266   8.149  0.3011  3.1422  0.3007
  144OSM   H18H15904   3.225   2.193   8.179  3.4949  3.1404 -0.0896
  145SAPE     N15905   4.790   6.490  10.797 -0.1081 -0.1039 -0.5443
  145SAPE   HN115906   4.840   6.581  10.809  1.1231 -0.6225 -1.5664
  145SAPE   HN215907   4.689   6.498  10.822 -0.4274 -0.1801 -1.7501
  145SAPE   HN315908   4.821   6.417  10.865  0.1616  1.4677  1.1085
  145SAPE   C1215909   4.800   6.449  10.647 -0.0811  0.3520  0.1182
  145SAPE  H12A15910   4.905   6.474  10.620  0.0338  0.8802  1.0130
  145SAPE  H12B15911   4.725   6.510  10.592 -0.0742 -0.6175 -0.9959
  145SAPE   C1115912   4.750   6.302  10.624 -0.3071  0.0769 -0.2487
  145SAPE  H11A15913   4.742   6.291  10.514  0.6869 -1.0043 -0.2336
  145SAPE  H11B15914   4.646   6.278  10.652 -0.7947 -0.4079 -2.3317
  145SAPE     P15915   4.826   6.064  10.625  0.1427  0.1443  0.2467
  145SAPE   O1315916   4.950   5.983  10.640 -0.2969 -0.1574 -0.0452
  145SAPE   O1415917   4.710   5.998  10.694  0.3610 -0.1991 -0.1025
  145SAPE   O1215918   4.841   6.210  10.678 -0.0214 -0.2665  0.0614
  145SAPE   O1115919   4.786   6.073  10.476 -0.8149 -0.0417  0.4910
  145SAPE    C115920   4.824   5.977  10.378  0.5646  0.0398  0.1354
  145SAPE    HA15921   4.853   6.034  10.288  0.8333 -0.7764 -0.3072
  145SAPE    HB15922   4.897   5.900  10.413  1.8506  0.6694 -1.0779
  145SAPE    C215923   4.695   5.902  10.324 -0.0526 -0.2512 -0.1863
  145SAPE    HS15924   4.662   5.845  10.414  0.9002 -1.0796 -0.3458
  145SAPE   O2115925   4.738   5.826  10.214  0.5493 -0.3163  0.5338
  145SAPE   C2115926   4.665   5.716  10.200 -0.1978  0.5576 -0.0264
  145SAPE   O2215927   4.569   5.678  10.262 -0.9437 -0.3752  0.0238
  145SAPE   C2215928   4.721   5.633  10.085  0.0662  0.1252 -0.0432
  145SAPE   H2R15929   4.645   5.610  10.008  0.2477 -0.6055 -0.0087
  145SAPE   H2S15930   4.797   5.700  10.039  0.4548 -0.0195  0.3753
  145SAPE    C315931   4.578   6.000  10.286 -1.3944 -0.0233 -0.1347
  145SAPE    HX15932   4.616   6.049  10.194  1.4424  1.2016  1.5411
  145SAPE    HY15933   4.564   6.076  10.366  1.1210  2.1496 -1.5989
  145SAPE   O3115934   4.454   5.942  10.248  0.0027 -0.4231  0.2653
  145SAPE   C3115935   4.386   5.880  10.343 -0.4874  0.4032  0.5147
  145SAPE   O3215936   4.408   5.887  10.464  0.1364  0.0345  0.1216
  145SAPE   C3215937   4.277   5.795  10.278 -1.1110  0.1433 -0.1251
  145SAPE   H2X15938   4.284   5.692  10.320  2.1881  0.1584 -0.3319
  145SAPE   H2Y15939   4.301   5.781  10.170  3.2988  0.4225  0.6432
  145SAPE   C2315940   4.787   5.509  10.147  0.3561  0.3782 -0.1154
  145SAPE   H3R15941   4.710   5.437  10.184  0.2312  2.0018  3.2014
  145SAPE   H3S15942   4.864   5.527  10.225  2.0436 -0.1458 -1.5835
  145SAPE   C2415943   4.869   5.430  10.039  0.1852  0.1951 -0.7133
  145SAPE   H4R15944   4.797   5.403   9.959 -0.0124  0.8271 -0.7520
  145SAPE   H4S15945   4.912   5.342  10.093 -1.0863  0.2682  0.5015
  145SAPE   C2515946   4.989   5.506   9.990  0.0889  0.4267  0.5736
  145SAPE   H5R15947   5.077   5.523  10.053 -0.3937  0.5851  1.2198
  145SAPE   C2615948   5.007   5.534   9.854  0.8836 -0.7574  0.0512
  145SAPE   H6R15949   5.093   5.596   9.825  0.2184  0.2192  0.1391
  145SAPE   C2715950   4.906   5.521   9.738 -0.3533 -0.4607  0.3702
  145SAPE   H7R15951   4.836   5.436   9.754  0.9346 -1.5593  0.3124
  145SAPE   H7S15952   4.969   5.492   9.652  0.1599 -0.3866  0.7146
  145SAPE   C2815953   4.829   5.654   9.710 -1.0298 -0.2411 -0.2334
  145SAPE   H8R15954   4.762   5.683   9.793 -0.0528 -0.7367  0.7591
  145SAPE   C2915955   4.845   5.728   9.600  0.3417 -0.1170 -0.1378
  145SAPE   H9R15956   4.792   5.820   9.571 -0.7813 -1.0994 -1.2948
  145SAPE  C21015957   4.928   5.696   9.476  0.2997  0.1318  0.4733
  145SAPE  H10R15958   5.027   5.653   9.505  0.0569  0.1471  1.3520
  145SAPE  H10S15959   4.940   5.796   9.430 -1.6256  0.5023  0.7002
  145SAPE  C21115960   4.868   5.598   9.375  0.5479 -0.3125  0.5989
  145SAPE  H11R15961   4.884   5.494   9.405  0.0133 -0.5135  0.1995
  145SAPE  C21215962   4.786   5.629   9.270  0.1501 -0.2580  0.5079
  145SAPE  H12R15963   4.756   5.550   9.199 -2.1098 -0.8657  2.0181
  145SAPE  C21315964   4.751   5.777   9.234 -0.4609 -0.6412 -0.2590
  145SAPE  H13R15965   4.831   5.803   9.162  1.3166 -1.8396  1.1806
  145SAPE  H13S15966   4.750   5.842   9.325 -2.7717  1.6216 -1.7705
  145SAPE  C21415967   4.615   5.792   9.178 -0.2876 -0.4310 -0.3392
  145SAPE  H14R15968   4.538   5.732   9.229 -0.5401 -0.1234 -0.3540
  145SAPE  C21515969   4.575   5.860   9.070 -0.0685 -0.2184 -0.6853
  145SAPE  H15R15970   4.470   5.847   9.039 -0.7892  3.0833 -0.0433
  145SAPE  C21615971   4.669   5.951   8.988 -0.3770  0.1154 -0.1562
  145SAPE  H16R15972   4.651   5.936   8.879 -0.0957 -1.6164  0.0120
  145SAPE  H16S15973   4.775   5.923   9.003  0.1526  0.8380 -2.2162
  145SAPE  C21715974   4.655   6.094   9.034 -0.3197  0.0752 -0.2332
  145SAPE  H17R15975   4.547   6.116   9.026 -0.0653  1.0145 -1.4902
  145SAPE  H17S15976   4.707   6.167   8.967  3.7843 -1.2059  1.2401
  145SAPE  C21815977   4.711   6.123   9.182  0.6210 -0.1952  0.8457
  145SAPE  H18R15978   4.787   6.045   9.203  0.3689 -1.0631 -1.2304
  145SAPE  H18S15979   4.619   6.111   9.243  0.5969 -1.7134  0.5487
  145SAPE  C21915980   4.769   6.265   9.199  0.0106  0.6297 -0.0770
  145SAPE  H19R15981   4.686   6.332   9.166 -0.2629  1.2761  1.8287
  145SAPE  H19S15982   4.862   6.280   9.140 -0.3333 -2.9209 -1.7478
  145SAPE  C22015983   4.799   6.307   9.339  0.1748  0.3996 -0.8753
  145SAPE  H20R15984   4.879   6.384   9.350 -0.2209  0.4628  2.8450
  145SAPE  H20S15985   4.832   6.219   9.398 -0.1922  0.7591 -0.1269
  145SAPE  H20T15986   4.707   6.345   9.388  0.4125  1.8023 -1.4804
  145SAPE   C3315987   4.149   5.866  10.314  0.1245 -0.0279  0.1683
  145SAPE   H3X15988   4.148   5.909  10.416 -0.8104  1.2876 -0.3544
  145SAPE   H3Y15989   4.066   5.792  10.309 -0.2199  0.4303 -2.0832
  145SAPE   C3415990   4.106   5.981  10.219 -0.2933  0.9502  0.0355
  145SAPE   H4X15991   4.158   6.076  10.243  0.1681  0.7273 -0.0830
  145SAPE   H4Y15992   4.003   6.018  10.238 -0.1330  1.1610  0.5167
  145SAPE   C3515993   4.122   5.968  10.067 -0.5594 -0.1552  0.0990
  145SAPE   H5X15994   4.068   5.879  10.026 -1.1121  0.4320 -0.4813
  145SAPE   H5Y15995   4.231   5.962  10.046 -0.8612 -0.8939 -1.4023
  145SAPE   C3615996   4.058   6.089   9.997  0.7185  0.0477 -0.1103
  145SAPE   H6X15997   4.100   6.179  10.047 -1.6921 -1.2717  4.9257
  145SAPE   H6Y15998   3.954   6.102  10.033  0.4235 -0.1197 -0.8691
  145SAPE   C3715999   4.067   6.085   9.846 -1.0429  0.6145 -0.0334
  145SAPE   H7X16000   4.048   5.982   9.810 -2.7707  0.5754  0.8584
  145SAPE   H7Y16001   4.175   6.099   9.823 -1.3983  1.6495 -1.2368
  145SAPE   C3816002   3.967   6.181   9.781  0.0797  0.2866 -0.8371
  145SAPE   H8X16003   3.984   6.277   9.835  3.1928  0.0483 -1.1859
  145SAPE   H8Y16004   3.863   6.148   9.802 -0.0647  1.4804  0.4889
  145SAPE   C3916005   3.978   6.191   9.629 -0.0596 -0.4403  0.4100
  145SAPE   H9X16006   3.972   6.086   9.591 -1.4485 -0.3020  0.1941
  145SAPE   H9Y16007   4.072   6.238   9.595 -0.3889  0.6163  0.9097
  145SAPE  C31016008   3.861   6.256   9.555 -0.0526  0.2299 -0.1288
  145SAPE  H10X16009   3.848   6.356   9.601 -0.6178 -0.8218  2.1698
  145SAPE  H10Y16010   3.775   6.186   9.570 -0.2914  0.5030 -0.2201
  145SAPE  C31116011   3.888   6.264   9.404  0.1153  0.7188 -0.6600
  145SAPE  H11X16012   3.916   6.162   9.367 -0.9291 -0.0588  0.5981
  145SAPE  H11Y16013   3.980   6.324   9.391  1.1102 -0.7178 -0.5867
  145SAPE  C31216014   3.765   6.324   9.325 -0.5075  0.3486  0.3968
  145SAPE  H12X16015   3.739   6.426   9.361  0.9064  1.0951 -0.5835
  145SAPE  H12Y16016   3.673   6.262   9.335 -0.7041  0.6402  0.4283
  145SAPE  C31316017   3.784   6.327   9.176 -0.5251  0.1871 -0.4155
  145SAPE  H13X16018   3.691   6.355   9.121 -0.2984  2.0640  0.0985
  145SAPE  H13Y16019   3.826   6.225   9.159 -1.0436 -0.3307  1.1730
  145SAPE  C31416020   3.895   6.419   9.118 -0.0676 -0.1313 -0.2623
  145SAPE  H14X16021   3.912   6.411   9.009  1.0110  2.9118 -0.4144
  145SAPE  H14Y16022   3.995   6.386   9.155  0.5278 -0.6085 -2.1822
  145SAPE  C31516023   3.874   6.567   9.146  0.5449 -0.5468  0.3526
  145SAPE  H15X16024   3.963   6.622   9.108 -1.1073  1.8717 -0.3254
  145SAPE  H15Y16025   3.868   6.574   9.256 -0.4714 -0.0815  0.2887
  145SAPE  C31616026   3.749   6.630   9.089 -0.2343  0.4820  0.9823
  145SAPE  H16X16027   3.650   6.599   9.130 -1.4618  1.4495 -1.0777
  145SAPE  H16Y16028   3.738   6.605   8.981  2.2298  0.4070  0.6958
  145SAPE  C31716029   3.753   6.780   9.101  0.2483 -0.5089 -0.5944
  145SAPE  H17X16030   3.855   6.807   9.065  0.3582 -1.9164 -1.4418
  145SAPE  H17Y16031   3.749   6.810   9.208 -1.5676 -1.9496 -0.2141
  145SAPE  C31816032   3.639   6.843   9.021 -0.5274 -0.4138 -0.2833
  145SAPE  H18X16033   3.636   6.951   9.046 -0.3823 -0.6473  0.8141
  145SAPE  H18Y16034   3.541   6.801   9.055  0.9137 -0.9950  3.6503
  145SAPE  H18Z16035   3.640   6.834   8.910  1.0216  1.6401 -0.4916
  146SAPE     N16036   2.555   0.981  10.963  0.5117 -0.2669 -1.0771
  146SAPE   HN116037   2.659   0.979  10.956  0.6721  0.4979  0.5680
  146SAPE   HN216038   2.529   1.036  11.048  0.6762  0.4237 -1.4695
  146SAPE   HN316039   2.518   0.886  10.981  1.8977 -0.6988 -0.2974
  146SAPE   C1216040   2.496   1.046  10.844 -0.0375 -0.7365  0.3510
  146SAPE  H12A16041   2.538   0.978  10.766  0.3325 -1.5747  1.2599
  146SAPE  H12B16042   2.546   1.145  10.830  0.1277 -0.4328  2.6384
  146SAPE   C1116043   2.345   1.063  10.846 -0.4309  0.5283 -0.0918
  146SAPE  H11A16044   2.322   1.085  10.740  2.3192 -0.0085 -0.8769
  146SAPE  H11B16045   2.301   1.135  10.918  1.4888  0.4286  1.2769
  146SAPE     P16046   2.141   0.916  10.910 -0.3928  0.2206  0.3977
  146SAPE   O1316047   2.110   0.783  10.958 -0.5742  0.2681  0.4606
  146SAPE   O1416048   2.106   1.031  10.993  0.1250  0.1079 -0.1669
  146SAPE   O1216049   2.295   0.927  10.871 -0.3063 -0.3017  0.1429
  146SAPE   O1116050   2.069   0.925  10.770 -0.0310  0.1159 -0.7631
  146SAPE    C116051   2.112   0.833  10.668 -0.0364 -0.7904  0.0715
  146SAPE    HA16052   2.204   0.778  10.698  1.2788  0.8352 -0.7913
  146SAPE    HB16053   2.033   0.757  10.655 -2.3959  1.5106  0.2030
  146SAPE    C216054   2.150   0.901  10.534  0.4895  0.2862  0.4521
  146SAPE    HS16055   2.250   0.950  10.533 -0.1039  1.6167 -1.9267
  146SAPE   O2116056   2.043   0.979  10.489 -0.1661 -0.1245  0.1611
  146SAPE   C2116057   2.037   1.105  10.530 -0.1551 -0.1509  0.2237
  146SAPE   O2216058   2.119   1.171  10.592 -0.5849 -0.6059 -0.1032
  146SAPE   C2216059   1.910   1.157  10.456 -0.0740 -0.1870 -0.0154
  146SAPE   H2R16060   1.817   1.117  10.502 -1.3285  1.9045 -0.5806
  146SAPE   H2S16061   1.918   1.267  10.470  3.5038 -0.6908  3.6000
  146SAPE    C316062   2.165   0.784  10.428 -0.2306  0.6952  0.3952
  146SAPE    HX16063   2.092   0.702  10.444 -0.5741  1.3524  2.6313
  146SAPE    HY16064   2.261   0.734  10.452  0.6442  2.5266  0.9212
  146SAPE   O3116065   2.171   0.829  10.287  0.1736 -0.5610 -0.2080
  146SAPE   C3116066   2.051   0.820  10.226  0.2458  0.3128  0.4866
  146SAPE   O3216067   1.958   0.756  10.268 -0.2452  0.2798  0.6256
  146SAPE   C3216068   2.066   0.873  10.086  0.2262 -0.2311  0.2895
  146SAPE   H2X16069   2.135   0.802  10.037  0.4740 -1.4246  2.2802
  146SAPE   H2Y16070   2.123   0.967  10.104 -1.7138  1.4787 -1.7772
  146SAPE   C2316071   1.904   1.126  10.305  0.4773  0.0153  0.3064
  146SAPE   H3R16072   1.901   1.016  10.290  2.3041  0.1206 -1.1818
  146SAPE   H3S16073   1.990   1.172  10.252 -0.3988  1.6288  0.2248
  146SAPE   C2416074   1.796   1.216  10.244  0.4383  0.2051 -0.6541
  146SAPE   H4R16075   1.814   1.229  10.135  1.2529  0.6020 -0.4798
  146SAPE   H4S16076   1.816   1.309  10.301  1.4882  0.1697 -0.9400
  146SAPE   C2516077   1.648   1.169  10.257 -0.9538  0.6789 -0.2922
  146SAPE   H5R16078   1.628   1.104  10.343  1.1182  1.0424  0.5059
  146SAPE   C2616079   1.546   1.191  10.177  0.4483  0.4747  0.6806
  146SAPE   H6R16080   1.446   1.149  10.199  0.0551 -0.0619 -1.8427
  146SAPE   C2716081   1.560   1.273  10.047  0.8064 -0.4067 -0.2194
  146SAPE   H7R16082   1.638   1.352  10.045  0.2659  0.1205 -0.9361
  146SAPE   H7S16083   1.466   1.321  10.014  1.5192 -0.2065 -2.0618
  146SAPE   C2816084   1.597   1.175   9.937 -0.1096  0.0118 -0.6173
  146SAPE   H8R16085   1.659   1.089   9.965 -2.7724 -1.0059  2.8478
  146SAPE   C2916086   1.564   1.170   9.807 -0.1806 -0.2767  0.8882
  146SAPE   H9R16087   1.613   1.092   9.746  0.5132  0.9066 -0.1286
  146SAPE  C21016088   1.477   1.252   9.716 -0.4325  0.0889 -0.1357
  146SAPE  H10R16089   1.529   1.293   9.627 -3.7880 -1.2589 -2.9860
  146SAPE  H10S16090   1.450   1.339   9.780  0.6441 -1.0929  2.0476
  146SAPE  C21116091   1.354   1.188   9.669 -0.5972  0.6641  0.1507
  146SAPE  H11R16092   1.265   1.193   9.734 -1.8556  1.4435 -1.5316
  146SAPE  C21216093   1.334   1.097   9.564  0.0334 -0.4776 -0.2624
  146SAPE  H12R16094   1.228   1.072   9.547 -0.4624 -0.5629  2.4525
  146SAPE  C21316095   1.440   1.048   9.467  0.8746  0.4857  0.4376
  146SAPE  H13R16096   1.420   0.939   9.469 -2.5104  1.0150  0.5133
  146SAPE  H13S16097   1.543   1.072   9.502  1.2120 -0.8402  0.4101
  146SAPE  C21416098   1.421   1.103   9.331 -0.5828 -0.0229 -0.1810
  146SAPE  H14R16099   1.477   1.197   9.317  2.5487 -1.8911 -1.3801
  146SAPE  C21516100   1.349   1.057   9.225 -0.5838 -0.1540  0.3772
  146SAPE  H15R16101   1.333   1.112   9.131 -0.4612  0.4407  0.6962
  146SAPE  C21616102   1.270   0.929   9.215  0.2438  0.8362  0.2665
  146SAPE  H16R16103   1.166   0.954   9.186  0.1790  1.9699  1.3920
  146SAPE  H16S16104   1.258   0.871   9.310 -1.2018 -1.2463 -1.0914
  146SAPE  C21716105   1.322   0.828   9.113  0.7677  0.7109  0.2187
  146SAPE  H17R16106   1.255   0.739   9.114 -0.6206  1.7497  1.3625
  146SAPE  H17S16107   1.417   0.785   9.152 -0.1594 -1.7130  0.0123
  146SAPE  C21816108   1.350   0.878   8.971 -0.1494  0.5355 -0.8678
  146SAPE  H18R16109   1.388   0.787   8.920 -0.5798  0.4155 -0.9804
  146SAPE  H18S16110   1.437   0.947   8.975  0.3519 -0.0401 -1.6367
  146SAPE  C21916111   1.233   0.929   8.885 -0.3558  0.2220  0.6598
  146SAPE  H19R16112   1.199   1.032   8.909 -2.4825 -0.4127  0.6207
  146SAPE  H19S16113   1.146   0.859   8.882  0.3558 -0.6569 -0.5091
  146SAPE  C22016114   1.290   0.926   8.739  0.2566  0.2245 -0.5644
  146SAPE  H20R16115   1.324   0.825   8.706 -2.0760 -1.0552  0.6699
  146SAPE  H20S16116   1.372   0.998   8.721  0.5110 -0.1480 -0.9347
  146SAPE  H20T16117   1.206   0.959   8.674 -1.2536 -2.2270 -0.0244
  146SAPE   C3316118   1.934   0.895  10.009  0.1622  0.1849 -0.1251
  146SAPE   H3X16119   1.880   0.987  10.042 -0.7626 -0.3271 -0.1815
  146SAPE   H3Y16120   1.864   0.813  10.036 -0.2699  0.3881 -0.5941
  146SAPE   C3416121   1.963   0.887   9.859 -0.9883 -0.0993  0.2234
  146SAPE   H4X16122   2.007   0.787   9.837  0.8307  0.7558 -0.2376
  146SAPE   H4Y16123   2.048   0.956   9.839  1.9062 -3.1149  1.1507
  146SAPE   C3516124   1.853   0.917   9.761 -0.2575  0.5063  0.0892
  146SAPE   H5X16125   1.826   1.024   9.746 -1.9064  0.2780  1.1731
  146SAPE   H5Y16126   1.757   0.874   9.798 -0.4800  0.7544 -0.1965
  146SAPE   C3616127   1.886   0.855   9.622 -0.2119 -0.0728 -0.6450
  146SAPE   H6X16128   1.914   0.748   9.630 -0.8284 -0.1626  0.4517
  146SAPE   H6Y16129   1.983   0.906   9.602 -0.6218  1.2309  0.6015
  146SAPE   C3716130   1.776   0.862   9.518  0.3028  0.1283  0.4097
  146SAPE   H7X16131   1.760   0.969   9.491  0.0856  0.4970  1.8897
  146SAPE   H7Y16132   1.684   0.824   9.568  0.3844  0.3627  0.7444
  146SAPE   C3816133   1.808   0.781   9.393 -0.0950 -0.4336 -0.5020
  146SAPE   H8X16134   1.851   0.681   9.413 -2.3100 -2.2668 -3.9409
  146SAPE   H8Y16135   1.880   0.844   9.335  2.8408 -1.1663  2.0645
  146SAPE   C3916136   1.681   0.786   9.296 -0.2386 -0.4001  0.1071
  146SAPE   H9X16137   1.650   0.893   9.297  3.0772  0.6624  0.6125
  146SAPE   H9Y16138   1.599   0.723   9.336  0.4315 -2.4996 -1.6528
  146SAPE  C31016139   1.700   0.751   9.147 -0.5144  0.3410  0.9421
  146SAPE  H10X16140   1.605   0.771   9.093  0.0120 -1.4933 -0.8032
  146SAPE  H10Y16141   1.703   0.640   9.150 -0.5393  0.2755 -0.6643
  146SAPE  C31116142   1.809   0.818   9.066 -0.4610 -0.5457 -0.1857
  146SAPE  H11X16143   1.841   0.770   8.971  2.1427  0.6694  0.0053
  146SAPE  H11Y16144   1.902   0.828   9.125 -0.9202  3.1185  0.1723
  146SAPE  C31216145   1.774   0.960   9.022 -0.3202  0.2587  0.2891
  146SAPE  H12X16146   1.687   0.993   9.083 -0.6056 -0.2903  0.1941
  146SAPE  H12Y16147   1.737   0.960   8.917  0.2105  1.2371  0.0956
  146SAPE  C31316148   1.893   1.056   9.012 -0.7286  0.6055 -0.3238
  146SAPE  H13X16149   1.960   1.039   9.099 -0.9724 -3.9006 -0.7733
  146SAPE  H13Y16150   1.863   1.163   9.012  3.0459  1.8530  1.5482
  146SAPE  C31416151   1.987   1.046   8.891 -0.3609  0.5703 -0.4877
  146SAPE  H14X16152   1.933   1.067   8.796 -0.4909 -1.7782 -1.0111
  146SAPE  H14Y16153   2.004   0.936   8.887  0.4163  0.5956  1.2127
  146SAPE  C31516154   2.131   1.104   8.914  0.4239 -0.3383  0.3149
  146SAPE  H15X16155   2.198   1.083   8.828  0.0355  2.9858 -0.9680
  146SAPE  H15Y16156   2.178   1.062   9.005  0.9018  0.8657  0.6415
  146SAPE  C31616157   2.136   1.256   8.933  0.2822  0.4612 -0.3352
  146SAPE  H16X16158   2.240   1.283   8.906  1.2754 -2.6619  0.0847
  146SAPE  H16Y16159   2.117   1.279   9.040 -2.1142 -1.3085 -0.3090
  146SAPE  C31716160   2.035   1.339   8.848 -0.5484  0.0986  0.4348
  146SAPE  H17X16161   1.947   1.362   8.911 -0.3881  1.0950  0.3120
  146SAPE  H17Y16162   1.997   1.288   8.756  1.5118  0.6811 -0.8063
  146SAPE  C31816163   2.091   1.475   8.818  0.5015 -0.3325 -0.0446
  146SAPE  H18X16164   2.104   1.529   8.914 -0.8979 -2.0159  1.1557
  146SAPE  H18Y16165   2.028   1.523   8.740  0.4633  0.6123  0.5397
  146SAPE  H18Z16166   2.192   1.473   8.771  0.6392 -1.3827  0.2870
  147SAPE     N16167   2.923   2.247  10.898 -0.0448  0.3990  0.3315
  147SAPE   HN116168   2.966   2.156  10.923 -0.6490 -0.3071 -1.0927
  147SAPE   HN216169   2.848   2.224  10.829  0.7092 -0.5291 -0.2103
  147SAPE   HN316170   2.997   2.312  10.863  1.1581  0.1669  2.2958
  147SAPE   C1216171   2.865   2.316  11.018 -0.1079 -0.2482  0.6930
  147SAPE  H12A16172   2.952   2.354  11.075  0.2514  1.4379 -0.8732
  147SAPE  H12B16173   2.807   2.240  11.074 -2.2380  0.6750 -0.1562
  147SAPE   C1116174   2.799   2.446  10.965  0.0583  0.2601  0.1587
  147SAPE  H11A16175   2.778   2.499  11.060 -0.2792  1.7770 -0.7333
  147SAPE  H11B16176   2.701   2.422  10.918 -0.7566  2.8819  0.3951
  147SAPE     P16177   2.857   2.665  10.834  0.1749 -0.0650 -0.5383
  147SAPE   O1316178   2.735   2.664  10.748  0.2858  0.6811 -0.5106
  147SAPE   O1416179   2.860   2.763  10.943 -0.4825  0.3621  0.1923
  147SAPE   O1216180   2.892   2.514  10.881 -0.4852 -0.4608  0.4218
  147SAPE   O1116181   2.988   2.694  10.751 -0.3749  0.3881  1.1399
  147SAPE    C116182   2.997   2.644  10.613 -0.0704 -0.4385  0.7636
  147SAPE    HA16183   3.101   2.612  10.592  0.8955  2.8247 -0.0432
  147SAPE    HB16184   2.930   2.559  10.587 -1.3608  0.8670 -0.3787
  147SAPE    C216185   2.960   2.763  10.512  0.1927  0.4596 -0.0069
  147SAPE    HS16186   2.857   2.789  10.544  0.0248  1.2702 -1.1743
  147SAPE   O2116187   2.960   2.696  10.382 -0.4761 -0.0687 -0.0483
  147SAPE   C2116188   2.917   2.765  10.277  0.2289  0.6951 -0.3297
  147SAPE   O2216189   2.852   2.870  10.275 -0.1145 -0.2366  0.1099
  147SAPE   C2216190   2.957   2.689  10.149  0.3680 -0.0041 -0.5477
  147SAPE   H2R16191   3.065   2.710  10.134  0.3038  0.1505 -0.8009
  147SAPE   H2S16192   2.946   2.580  10.167  1.1607  0.1883  1.2443
  147SAPE    C316193   3.050   2.886  10.529 -0.9488 -0.1544  0.8891
  147SAPE    HX16194   3.037   2.932  10.630  3.3372 -3.6074  3.3654
  147SAPE    HY16195   3.037   2.970  10.458 -0.3126 -0.1637  0.7493
  147SAPE   O3116196   3.194   2.849  10.530 -0.0442 -0.5379  0.3883
  147SAPE   C3116197   3.246   2.814  10.416  0.2283  0.1454 -0.1012
  147SAPE   O3216198   3.197   2.817  10.304 -0.9991  0.2443 -0.3500
  147SAPE   C3216199   3.391   2.787  10.451  0.2411 -0.0462 -0.5234
  147SAPE   H2X16200   3.425   2.722  10.368  1.3611  0.4382 -0.4737
  147SAPE   H2Y16201   3.395   2.736  10.550 -1.7854 -0.2639 -0.5100
  147SAPE   C2316202   2.879   2.739  10.030  0.6440 -0.4716 -0.2417
  147SAPE   H3R16203   2.782   2.782  10.061  0.0292 -3.1721  2.0699
  147SAPE   H3S16204   2.840   2.663   9.960 -0.5496  1.6918 -2.0327
  147SAPE   C2416205   2.940   2.840   9.932 -0.3059  0.1729  0.5499
  147SAPE   H4R16206   2.986   2.919   9.995  1.0111  0.6786 -0.9835
  147SAPE   H4S16207   2.861   2.877   9.863 -1.1318 -3.6061 -0.7749
  147SAPE   C2516208   3.046   2.779   9.852 -0.6739  0.0243 -0.1831
  147SAPE   H5R16209   3.140   2.774   9.910 -1.4639 -1.1599  1.0375
  147SAPE   C2616210   3.051   2.754   9.719  0.0878 -0.8147  0.1612
  147SAPE   H6R16211   3.146   2.708   9.686  1.8386  2.3217  0.4535
  147SAPE   C2716212   2.939   2.768   9.623 -0.7401  0.3444 -0.7435
  147SAPE   H7R16213   2.840   2.755   9.671 -0.6324 -0.4509 -0.7236
  147SAPE   H7S16214   2.946   2.689   9.545  2.5428  0.3118 -0.5376
  147SAPE   C2816215   2.943   2.915   9.578  0.6695  0.3007  0.1246
  147SAPE   H8R16216   2.878   2.989   9.628  2.5027  0.8260  1.8515
  147SAPE   C2916217   3.008   2.945   9.461 -0.3128  0.6928 -0.3341
  147SAPE   H9R16218   3.012   3.050   9.428  0.7251 -0.3158 -3.9530
  147SAPE  C21016219   3.079   2.842   9.375 -0.0690  0.1235  0.0264
  147SAPE  H10R16220   3.120   2.767   9.447 -0.1672  0.1600  0.1212
  147SAPE  H10S16221   3.169   2.881   9.323 -0.1989  1.1973  0.5702
  147SAPE  C21116222   2.978   2.768   9.301  0.6602 -0.9459 -0.0229
  147SAPE  H11R16223   2.885   2.750   9.356  1.7292 -0.2553  2.1313
  147SAPE  C21216224   2.992   2.718   9.178  0.1913  0.3052 -0.5394
  147SAPE  H12R16225   2.903   2.669   9.137 -1.1915 -0.7684  3.2921
  147SAPE  C21316226   3.108   2.732   9.078 -0.2513 -0.1105 -0.1928
  147SAPE  H13R16227   3.191   2.797   9.114  0.8073 -0.3866 -1.9644
  147SAPE  H13S16228   3.078   2.776   8.980 -0.2674  1.4830  0.5057
  147SAPE  C21416229   3.164   2.599   9.035 -0.3503  1.1883 -0.1104
  147SAPE  H14R16230   3.164   2.522   9.114  1.2801 -0.1862 -1.3645
  147SAPE  C21516231   3.203   2.561   8.907  0.3013 -0.0269 -0.8680
  147SAPE  H15R16232   3.244   2.460   8.898 -1.3995 -0.7010 -1.3404
  147SAPE  C21616233   3.208   2.648   8.788 -0.2023 -0.6376  0.2693
  147SAPE  H16R16234   3.300   2.629   8.729 -0.0363 -0.8328  0.5902
  147SAPE  H16S16235   3.212   2.757   8.805  3.9175 -0.3962 -1.2376
  147SAPE  C21716236   3.101   2.621   8.687 -0.1750  0.8938  0.4334
  147SAPE  H17R16237   2.998   2.639   8.724  0.1073  3.8146  0.0636
  147SAPE  H17S16238   3.107   2.512   8.664 -2.0617  0.2508  2.6386
  147SAPE  C21816239   3.116   2.688   8.545  0.1276  0.4204 -0.6645
  147SAPE  H18R16240   3.041   2.645   8.477  0.5239  0.3278 -1.0474
  147SAPE  H18S16241   3.216   2.657   8.507 -0.2008 -1.7751  0.1221
  147SAPE  C21916242   3.095   2.838   8.539  0.1990 -0.0576  0.4538
  147SAPE  H19R16243   3.042   2.878   8.628 -1.9887  3.3340 -2.0865
  147SAPE  H19S16244   3.019   2.862   8.461 -1.1146  2.1794  2.2791
  147SAPE  C22016245   3.229   2.904   8.513  0.6437 -0.0352  0.7310
  147SAPE  H20R16246   3.222   3.012   8.489 -2.0427 -0.1387  0.7183
  147SAPE  H20S16247   3.259   2.853   8.419 -1.4662 -1.0836  0.5725
  147SAPE  H20T16248   3.298   2.896   8.600  0.2088  0.5275  1.1263
  147SAPE   C3316249   3.483   2.915  10.448 -0.5398 -0.2305  0.6031
  147SAPE   H3X16250   3.493   2.942  10.555  0.7359  0.3138  0.3605
  147SAPE   H3Y16251   3.448   3.004  10.391 -0.5064 -1.3678 -1.2824
  147SAPE   C3416252   3.619   2.873  10.387 -0.5685  0.9338  0.5292
  147SAPE   H4X16253   3.641   2.783  10.449  0.0662  0.2520 -0.6444
  147SAPE   H4Y16254   3.690   2.955  10.410 -0.2191  1.2661 -1.5355
  147SAPE   C3516255   3.614   2.847  10.239 -0.0671  0.1610  0.8307
  147SAPE   H5X16256   3.560   2.755  10.207 -1.0664  0.9342  0.2298
  147SAPE   H5Y16257   3.721   2.834  10.213  0.0194  0.9433  0.7858
  147SAPE   C3616258   3.563   2.959  10.154  0.3162 -0.3016  0.7831
  147SAPE   H6X16259   3.609   3.052  10.194  0.0949  0.8809 -1.5399
  147SAPE   H6Y16260   3.454   2.977  10.165  0.5174  2.8071 -0.9777
  147SAPE   C3716261   3.604   2.961  10.004 -0.1600 -0.0745  0.5619
  147SAPE   H7X16262   3.710   2.978   9.977 -0.8827  0.5667 -2.1568
  147SAPE   H7Y16263   3.530   3.034   9.966 -3.4779 -3.0763  0.6691
  147SAPE   C3816264   3.558   2.832   9.943  0.1506  0.3259  0.1318
  147SAPE   H8X16265   3.471   2.790   9.999  1.0332 -2.3294 -0.3698
  147SAPE   H8Y16266   3.635   2.757   9.917 -0.3524  0.2696 -1.2928
  147SAPE   C3916267   3.490   2.879   9.807 -0.2732  0.1633  0.4011
  147SAPE   H9X16268   3.571   2.937   9.756 -0.2204  0.0671  0.3755
  147SAPE   H9Y16269   3.414   2.950   9.843 -0.9241 -0.1487 -0.3280
  147SAPE  C31016270   3.439   2.763   9.733  0.4719 -0.0964 -0.0001
  147SAPE  H10X16271   3.364   2.714   9.799  0.0880  0.2319 -0.1849
  147SAPE  H10Y16272   3.525   2.693   9.724  2.1205  1.9154 -0.6692
  147SAPE  C31116273   3.390   2.786   9.586  0.0393 -0.3361  0.2773
  147SAPE  H11X16274   3.314   2.867   9.590 -1.1290 -1.4489  0.9240
  147SAPE  H11Y16275   3.330   2.696   9.560 -1.6037  0.8661 -0.2615
  147SAPE  C31216276   3.503   2.817   9.491  0.1802  0.2343 -0.6035
  147SAPE  H12X16277   3.563   2.724   9.481 -2.5702 -1.9400  1.5482
  147SAPE  H12Y16278   3.567   2.904   9.518 -0.6820 -0.1324  3.1525
  147SAPE  C31316279   3.457   2.857   9.348  0.3210  0.0919 -0.6566
  147SAPE  H13X16280   3.383   2.938   9.362  1.6811  1.0350  1.6936
  147SAPE  H13Y16281   3.410   2.772   9.294  0.1828  0.1972 -0.7037
  147SAPE  C31416282   3.580   2.898   9.260  0.7405 -0.6264  0.6673
  147SAPE  H14X16283   3.641   2.806   9.244  1.7584  0.2206 -0.4951
  147SAPE  H14Y16284   3.637   2.972   9.318  0.0182  0.8177 -0.4004
  147SAPE  C31516285   3.542   2.957   9.123 -0.6353  0.2719  1.3012
  147SAPE  H15X16286   3.627   3.020   9.088 -0.3097  0.3932  2.2777
  147SAPE  H15Y16287   3.450   3.020   9.127  1.2530  3.1251  2.5682
  147SAPE  C31616288   3.522   2.859   9.004  0.3331 -0.1883  0.8940
  147SAPE  H16X16289   3.427   2.807   9.029  0.5838 -1.1874 -0.1011
  147SAPE  H16Y16290   3.593   2.773   9.005 -1.6799 -1.9560  0.4493
  147SAPE  C31716291   3.528   2.943   8.864 -0.2151  0.2867 -0.3756
  147SAPE  H17X16292   3.619   3.006   8.872 -1.8156  2.5468  1.5759
  147SAPE  H17Y16293   3.445   3.017   8.863 -0.1451  0.3762  0.0792
  147SAPE  C31816294   3.553   2.846   8.751 -0.3417  0.1292  0.2304
  147SAPE  H18X16295   3.659   2.813   8.741  0.1675  1.7094  0.1727
  147SAPE  H18Y16296   3.527   2.898   8.657  1.6311  0.1703 -0.3418
  147SAPE  H18Z16297   3.491   2.753   8.751  0.7975 -0.6504  0.4140
  148SAPE     N16298   5.734   3.838  10.862 -0.0593  0.1666 -0.3325
  148SAPE   HN116299   5.645   3.879  10.898 -0.3974 -0.2627 -0.6668
  148SAPE   HN216300   5.749   3.746  10.909  0.7678 -0.1778 -1.2189
  148SAPE   HN316301   5.805   3.904  10.899 -1.0363  2.5647 -2.4008
  148SAPE   C1216302   5.716   3.824  10.710  0.8346  0.8682 -0.6147
  148SAPE  H12A16303   5.634   3.750  10.692  1.2749 -0.0202  0.8133
  148SAPE  H12B16304   5.809   3.773  10.678 -0.7805 -0.6323 -3.3511
  148SAPE   C1116305   5.702   3.956  10.645  0.8253 -0.2351  0.3825
  148SAPE  H11A16306   5.674   3.944  10.538 -2.8794  1.0274  1.0698
  148SAPE  H11B16307   5.801   4.006  10.639  0.4266  0.4246 -2.9089
  148SAPE     P16308   5.514   4.144  10.643  0.6372  0.3627  0.0199
  148SAPE   O1316309   5.368   4.122  10.683 -0.3518  0.5143 -0.4969
  148SAPE   O1416310   5.572   4.280  10.675 -0.3621  0.3743  0.2051
  148SAPE   O1216311   5.599   4.032  10.714 -0.4050 -0.1823  0.1451
  148SAPE   O1116312   5.532   4.110  10.492 -0.5820 -0.2071 -0.2055
  148SAPE    C116313   5.637   4.183  10.419  0.2759  0.2176  0.5936
  148SAPE    HA16314   5.625   4.292  10.434 -1.1402  0.2244 -0.3796
  148SAPE    HB16315   5.737   4.152  10.457 -0.5029 -1.1501  1.6037
  148SAPE    C216316   5.626   4.147  10.269  0.2240 -0.4388 -0.9230
  148SAPE    HS16317   5.679   4.050  10.259  0.4640 -0.2105 -2.1018
  148SAPE   O2116318   5.697   4.252  10.197  0.3715 -0.3411 -0.8260
  148SAPE   C2116319   5.831   4.245  10.192 -1.1186 -0.5283 -0.2069
  148SAPE   O2216320   5.904   4.157  10.238 -0.1922  0.4610 -0.2104
  148SAPE   C2216321   5.890   4.361  10.105  0.4727  0.5977 -0.1546
  148SAPE   H2R16322   5.898   4.446  10.175 -0.6081  1.8112 -1.4576
  148SAPE   H2S16323   5.995   4.335  10.079  0.5546  0.5911  0.1798
  148SAPE    C316324   5.481   4.139  10.223 -0.1703 -0.6385  0.2631
  148SAPE    HX16325   5.420   4.221  10.267 -0.9552 -2.8945  3.8313
  148SAPE    HY16326   5.437   4.051  10.274 -0.1633 -1.1959 -0.6706
  148SAPE   O3116327   5.461   4.112  10.082  0.0869 -0.1290 -0.0163
  148SAPE   C3116328   5.443   4.212  10.005  0.1642  0.1768  0.1831
  148SAPE   O3216329   5.419   4.330  10.037 -0.2130  0.1631  0.2782
  148SAPE   C3216330   5.444   4.164   9.857  0.1573  0.6097 -0.3964
  148SAPE   H2X16331   5.354   4.103   9.832 -0.6921  2.0069 -0.9064
  148SAPE   H2Y16332   5.536   4.103   9.848 -0.2614 -0.0700 -0.0929
  148SAPE   C2316333   5.818   4.397   9.976 -0.5163 -0.4661  1.1953
  148SAPE   H3R16334   5.837   4.495   9.928 -1.2161 -1.1210 -0.4931
  148SAPE   H3S16335   5.709   4.382   9.985 -0.0949 -2.9362  3.3551
  148SAPE   C2416336   5.870   4.295   9.862  0.2895 -0.5926 -0.1647
  148SAPE   H4R16337   5.810   4.318   9.772 -1.1504 -2.5417  0.2485
  148SAPE   H4S16338   5.845   4.191   9.891  0.3099 -0.8358 -1.0156
  148SAPE   C2516339   6.011   4.302   9.812  0.4848  0.0159  0.4215
  148SAPE   H5R16340   6.090   4.299   9.889 -1.2047  0.8517  2.2659
  148SAPE   C2616341   6.046   4.294   9.684 -0.8011  0.3635  0.3784
  148SAPE   H6R16342   6.153   4.294   9.660 -1.2671 -0.4102 -1.9860
  148SAPE   C2716343   5.945   4.277   9.573  0.6959 -0.4149  0.9660
  148SAPE   H7R16344   5.854   4.226   9.609  0.9010 -0.0931  1.9612
  148SAPE   H7S16345   5.994   4.202   9.508 -0.1680 -1.5389  1.5830
  148SAPE   C2816346   5.904   4.400   9.488 -0.0662  0.7422  0.0956
  148SAPE   H8R16347   5.843   4.474   9.540 -1.3053 -0.7613  0.8509
  148SAPE   C2916348   5.915   4.420   9.354  0.2005  0.2639  0.4911
  148SAPE   H9R16349   5.866   4.509   9.312  0.4336  1.2218  2.1611
  148SAPE  C21016350   5.981   4.333   9.254 -0.0272 -0.1880 -0.5084
  148SAPE  H10R16351   5.933   4.363   9.158 -0.2374  1.8597  0.1842
  148SAPE  H10S16352   5.946   4.228   9.266 -1.9259  0.3777 -0.6781
  148SAPE  C21116353   6.129   4.356   9.236  0.3934  0.1942 -0.4597
  148SAPE  H11R16354   6.174   4.432   9.302 -1.9860  0.8429  0.5200
  148SAPE  C21216355   6.201   4.269   9.155 -0.2668  0.6602 -0.3298
  148SAPE  H12R16356   6.306   4.293   9.137  0.1994 -1.0008  0.0038
  148SAPE  C21316357   6.154   4.155   9.077  0.3292  0.9779 -0.2498
  148SAPE  H13R16358   6.062   4.100   9.106 -0.2218  0.2384 -3.0866
  148SAPE  H13S16359   6.227   4.071   9.080 -1.6303 -0.8697 -1.4675
  148SAPE  C21416360   6.129   4.186   8.936  0.6880 -0.2137  0.4691
  148SAPE  H14R16361   6.048   4.260   8.922  1.5784  0.3959 -1.8845
  148SAPE  C21516362   6.188   4.140   8.822 -0.0700  0.1561  0.8888
  148SAPE  H15R16363   6.155   4.182   8.727  0.0762  1.7423  1.5160
  148SAPE  C21616364   6.304   4.036   8.811 -0.1152 -0.5245  0.1996
  148SAPE  H16R16365   6.335   3.998   8.911 -2.8035  0.4283  1.4814
  148SAPE  H16S16366   6.393   4.093   8.776 -0.5567 -0.1533 -0.3341
  148SAPE  C21716367   6.298   3.924   8.700 -0.6511 -0.0291  0.6280
  148SAPE  H17R16368   6.392   3.867   8.691 -1.5620 -1.3761 -1.0703
  148SAPE  H17S16369   6.292   3.981   8.604 -0.1311  3.0208  2.2660
  148SAPE  C21816370   6.195   3.817   8.725  0.1907 -0.1386 -0.0867
  148SAPE  H18R16371   6.094   3.855   8.699  0.1088 -0.9393 -1.0301
  148SAPE  H18S16372   6.185   3.786   8.831  0.3851  0.6915  0.1860
  148SAPE  C21916373   6.212   3.694   8.641  0.2427  0.7714 -0.3564
  148SAPE  H19R16374   6.193   3.712   8.533  2.7768  0.5799 -0.9004
  148SAPE  H19S16375   6.130   3.630   8.679  2.4501 -0.4514  2.7450
  148SAPE  C22016376   6.337   3.613   8.678 -0.4388  0.2288  0.5142
  148SAPE  H20R16377   6.426   3.645   8.620 -0.2084 -0.8508  0.2467
  148SAPE  H20S16378   6.316   3.513   8.634  1.6632  0.4334 -1.0912
  148SAPE  H20T16379   6.364   3.611   8.786  0.6748  2.0048  0.3037
  148SAPE   C3316380   5.439   4.282   9.758  0.8391 -0.2842  0.5121
  148SAPE   H3X16381   5.535   4.336   9.771  0.9979 -0.8632  1.8986
  148SAPE   H3Y16382   5.359   4.353   9.788  1.4584  0.5870  0.1434
  148SAPE   C3416383   5.421   4.263   9.602  0.0184  0.1976  0.4687
  148SAPE   H4X16384   5.322   4.218   9.576  1.1990 -2.2815 -0.0849
  148SAPE   H4Y16385   5.496   4.188   9.570  1.5407  0.9867  2.0442
  148SAPE   C3516386   5.454   4.394   9.533 -0.8748  0.3364 -0.0693
  148SAPE   H5X16387   5.558   4.430   9.547  0.1057 -1.0994 -2.8909
  148SAPE   H5Y16388   5.389   4.470   9.580 -0.8650  0.2843  0.0291
  148SAPE   C3616389   5.432   4.388   9.383  0.5659 -0.3649  0.0693
  148SAPE   H6X16390   5.323   4.381   9.368  0.5006 -2.2950  1.1315
  148SAPE   H6Y16391   5.481   4.295   9.347 -2.0555 -2.0193  0.5097
  148SAPE   C3716392   5.497   4.509   9.313 -0.0335 -0.1651  0.5738
  148SAPE   H7X16393   5.607   4.500   9.317 -0.0614 -2.0803 -1.2593
  148SAPE   H7Y16394   5.459   4.596   9.371  1.1179  0.3420  0.5787
  148SAPE   C3816395   5.473   4.528   9.163 -0.0958  1.3551  1.2034
  148SAPE   H8X16396   5.521   4.623   9.132 -0.9951  1.1564 -0.9782
  148SAPE   H8Y16397   5.364   4.543   9.148 -0.1152  1.0999  1.0771
  148SAPE   C3916398   5.520   4.405   9.072  0.3165 -0.8289 -0.1039
  148SAPE   H9X16399   5.474   4.308   9.102 -0.2671  0.1091  2.2431
  148SAPE   H9Y16400   5.625   4.384   9.099  0.4224  0.8419  0.9111
  148SAPE  C31016401   5.492   4.414   8.926 -0.5566  0.0570 -0.2948
  148SAPE  H10X16402   5.486   4.523   8.906 -0.9567 -0.3673 -2.8521
  148SAPE  H10Y16403   5.390   4.376   8.902 -0.3479 -0.0191 -1.1011
  148SAPE  C31116404   5.592   4.344   8.830  0.0710  0.3240  0.2924
  148SAPE  H11X16405   5.579   4.236   8.852 -1.4785  0.0117 -1.8673
  148SAPE  H11Y16406   5.697   4.377   8.848 -0.4044  0.4122  3.3532
  148SAPE  C31216407   5.542   4.357   8.681 -0.4982  0.2457  0.0547
  148SAPE  H12X16408   5.618   4.301   8.622 -1.2366 -0.8121  0.0821
  148SAPE  H12Y16409   5.538   4.465   8.656 -0.3568 -0.1658 -1.9010
  148SAPE  C31316410   5.399   4.290   8.661 -0.6194 -0.1026 -0.6348
  148SAPE  H13X16411   5.319   4.346   8.715 -0.8329 -0.8269 -0.1956
  148SAPE  H13Y16412   5.397   4.185   8.697  2.1219 -1.7228 -4.6083
  148SAPE  C31416413   5.362   4.279   8.510  0.0823  0.1247  0.5117
  148SAPE  H14X16414   5.338   4.380   8.469 -1.3822 -1.0690 -1.7254
  148SAPE  H14Y16415   5.272   4.215   8.500  0.5239 -0.4155 -0.0671
  148SAPE  C31516416   5.472   4.221   8.418  0.0053 -0.2025  0.0818
  148SAPE  H15X16417   5.504   4.117   8.443  0.9851  0.1846  0.5134
  148SAPE  H15Y16418   5.563   4.283   8.429  0.4135 -1.0009  1.5487
  148SAPE  C31616419   5.438   4.212   8.266  0.4581 -0.0861 -0.4445
  148SAPE  H16X16420   5.337   4.166   8.256  1.0212 -1.5028  0.1292
  148SAPE  H16Y16421   5.506   4.151   8.203 -0.6395 -0.3609 -1.4018
  148SAPE  C31716422   5.411   4.349   8.202  0.2839  0.2660 -0.0064
  148SAPE  H17X16423   5.493   4.420   8.224  0.7106  0.7665 -2.8774
  148SAPE  H17Y16424   5.327   4.398   8.257  0.1498  0.7698 -0.6481
  148SAPE  C31816425   5.393   4.346   8.054  0.1636  0.3231  0.5081
  148SAPE  H18X16426   5.323   4.267   8.019 -0.6094  1.0304  0.4237
  148SAPE  H18Y16427   5.489   4.333   8.001  0.8380  1.2798  1.4713
  148SAPE  H18Z16428   5.353   4.445   8.023  0.2084  0.7343  1.6797
  149SAPE     N16429   2.864   0.352  10.913 -0.1449  0.6317  0.1084
  149SAPE   HN116430   2.767   0.375  10.944  0.4676  2.4023  0.8781
  149SAPE   HN216431   2.942   0.368  10.980 -1.4722  0.5351  1.7502
  149SAPE   HN316432   2.890   0.397  10.823  0.6057 -0.0880 -0.0400
  149SAPE   C1216433   2.859   0.208  10.872 -0.0309  0.6165 -0.2536
  149SAPE  H12A16434   2.961   0.173  10.846  0.1320  1.6934 -1.1026
  149SAPE  H12B16435   2.797   0.202  10.780 -1.7102 -0.3075  0.8831
  149SAPE   C1116436   2.805   0.116  10.979 -0.8911  0.0228 -0.0959
  149SAPE  H11A16437   2.873   0.108  11.067 -0.4091  0.5099 -0.4186
  149SAPE  H11B16438   2.815   0.016  10.930  1.6293  0.7006 -1.1473
  149SAPE     P16439   2.539   0.077  10.977  0.5640  0.2688 -0.0139
  149SAPE   O1316440   2.479   0.030  11.104  0.3501 -0.0745  0.2153
  149SAPE   O1416441   2.456   0.158  10.885  0.9715 -0.5613  0.2195
  149SAPE   O1216442   2.668   0.150  11.010  0.0408  0.1132 -0.5422
  149SAPE   O1116443   2.588  -0.048  10.896 -0.9016 -0.3946  0.0531
  149SAPE    C116444   2.614  -0.022  10.756 -0.0497 -0.5066  0.3572
  149SAPE    HA16445   2.655   0.076  10.726 -1.6919  0.5776  1.4837
  149SAPE    HB16446   2.692  -0.093  10.722 -0.2617 -0.2450 -0.7120
  149SAPE    C216447   2.485  -0.031  10.660 -0.0723  0.3863 -0.4350
  149SAPE    HS16448   2.396   0.023  10.698 -1.0941 -2.4584  1.4408
  149SAPE   O2116449   2.457  -0.171  10.632 -0.0561  0.1163  0.1794
  149SAPE   C2116450   2.334  -0.205  10.597  0.0272 -0.1474 -0.3813
  149SAPE   O2216451   2.248  -0.128  10.571  0.6240 -0.0781  0.3339
  149SAPE   C2216452   2.325  -0.358  10.586 -0.1835 -0.3796 -0.0244
  149SAPE   H2R16453   2.404  -0.403  10.523 -0.3961  1.4534 -1.7141
  149SAPE   H2S16454   2.350  -0.393  10.688 -0.3837 -0.3828  0.0250
  149SAPE    C316455   2.534   0.038  10.522 -0.3547  0.1134 -0.0979
  149SAPE    HX16456   2.610  -0.035  10.488  0.7071  1.3484 -0.4829
  149SAPE    HY16457   2.577   0.134  10.559 -2.8264  0.8238  1.1911
  149SAPE   O3116458   2.428   0.037  10.421  0.1599  0.4176 -0.6544
  149SAPE   C3116459   2.472   0.055  10.297  0.4550  0.3234  0.7710
  149SAPE   O3216460   2.587   0.049  10.254 -0.1785  0.1040  0.3250
  149SAPE   C3216461   2.350   0.085  10.198 -0.1653  0.0413  0.6958
  149SAPE   H2X16462   2.291   0.174  10.230 -2.7013 -1.8396  1.5911
  149SAPE   H2Y16463   2.284  -0.004  10.189 -0.1366  0.2563 -2.8007
  149SAPE   C2316464   2.184  -0.406  10.554  1.0595  0.2760  0.1288
  149SAPE   H3R16465   2.115  -0.339  10.610  1.6951  0.0761  1.1723
  149SAPE   H3S16466   2.157  -0.509  10.583 -1.0030  0.7059 -0.0878
  149SAPE   C2416467   2.145  -0.390  10.407 -0.0757 -0.0430  1.3781
  149SAPE   H4R16468   2.161  -0.283  10.385 -0.0455 -0.1282  0.9832
  149SAPE   H4S16469   2.034  -0.392  10.396  0.0462  2.7775 -1.9762
  149SAPE   C2516470   2.219  -0.473  10.306 -0.6352  0.9731 -0.2983
  149SAPE   H5R16471   2.220  -0.580  10.333 -0.8534  1.1757  0.5641
  149SAPE   C2616472   2.270  -0.434  10.197 -0.2397  0.5151  0.1909
  149SAPE   H6R16473   2.323  -0.512  10.140  3.0047  0.1692  3.3310
  149SAPE   C2716474   2.290  -0.292  10.150  0.3231 -0.2821  0.3451
  149SAPE   H7R16475   2.307  -0.232  10.242 -0.4303  0.3840  0.0575
  149SAPE   H7S16476   2.200  -0.252  10.099  0.5700  2.4138  1.8633
  149SAPE   C2816477   2.406  -0.270  10.055 -0.0840 -0.1653 -0.0360
  149SAPE   H8R16478   2.497  -0.249  10.113  0.9113 -1.0861 -1.2082
  149SAPE   C2916479   2.416  -0.299   9.923  0.6694  0.9540 -0.5018
  149SAPE   H9R16480   2.505  -0.280   9.862 -1.4655  0.7391 -3.9420
  149SAPE  C21016481   2.311  -0.360   9.843 -0.0088 -0.7474  0.4395
  149SAPE  H10R16482   2.255  -0.429   9.909 -0.0613 -0.7860  0.3534
  149SAPE  H10S16483   2.367  -0.420   9.769  0.0702 -1.1997  0.8620
  149SAPE  C21116484   2.216  -0.262   9.776  0.3680 -0.2273 -0.1136
  149SAPE  H11R16485   2.206  -0.169   9.834 -0.6621 -0.3053 -0.1553
  149SAPE  C21216486   2.179  -0.270   9.650 -0.0597  0.4126 -0.3234
  149SAPE  H12R16487   2.116  -0.186   9.619 -0.1648  0.3182 -0.3660
  149SAPE  C21316488   2.206  -0.381   9.555  0.0259  0.0647  0.8601
  149SAPE  H13R16489   2.228  -0.473   9.612  0.1906 -0.5433 -0.1582
  149SAPE  H13S16490   2.292  -0.357   9.488 -0.7991  2.3214  0.5335
  149SAPE  C21416491   2.078  -0.421   9.477 -0.7576 -0.5907 -0.5275
  149SAPE  H14R16492   1.981  -0.394   9.521 -0.1281 -0.4821  0.8333
  149SAPE  C21516493   2.067  -0.487   9.362 -0.2859 -0.2302  0.2406
  149SAPE  H15R16494   1.965  -0.492   9.322 -0.1945  0.1767 -0.0526
  149SAPE  C21616495   2.174  -0.547   9.276 -0.4335  0.1418 -0.2102
  149SAPE  H16R16496   2.140  -0.640   9.225  1.6020 -1.7032  1.5958
  149SAPE  H16S16497   2.268  -0.567   9.332  0.2553 -2.1536 -2.0547
  149SAPE  C21716498   2.207  -0.447   9.166 -0.8559 -0.8952 -0.1584
  149SAPE  H17R16499   2.221  -0.344   9.206 -0.5322  0.7116 -3.9819
  149SAPE  H17S16500   2.112  -0.428   9.111 -0.4672 -0.2093 -0.6105
  149SAPE  C21816501   2.312  -0.479   9.064 -0.2261  0.1527  0.0387
  149SAPE  H18R16502   2.282  -0.574   9.016  0.2785  0.3928 -0.7740
  149SAPE  H18S16503   2.413  -0.494   9.110 -0.4854  0.3030  0.6638
  149SAPE  C21916504   2.315  -0.377   8.942 -0.2888  0.6378  0.4637
  149SAPE  H19R16505   2.414  -0.383   8.893 -1.2125  0.3267 -1.4860
  149SAPE  H19S16506   2.313  -0.272   8.975 -1.4682 -0.4103  4.1723
  149SAPE  C22016507   2.219  -0.413   8.827 -0.5155  0.2991  0.0445
  149SAPE  H20R16508   2.113  -0.391   8.851 -0.9193 -2.9908  1.7461
  149SAPE  H20S16509   2.230  -0.521   8.803  1.9168  0.3230  0.8383
  149SAPE  H20T16510   2.258  -0.356   8.739 -0.6061 -0.0207 -0.2034
  149SAPE   C3316511   2.416   0.121  10.059  0.1992  1.3124 -0.8640
  149SAPE   H3X16512   2.482   0.037  10.028 -3.8851 -2.9260  0.6923
  149SAPE   H3Y16513   2.467   0.219  10.062 -0.1989  1.4978  0.3656
  149SAPE   C3416514   2.317   0.134   9.943 -0.6154  0.1030 -0.4867
  149SAPE   H4X16515   2.245   0.218   9.955  0.7298  0.9582  2.5117
  149SAPE   H4Y16516   2.259   0.042   9.922  1.1596 -1.1954  0.0217
  149SAPE   C3516517   2.401   0.157   9.816  0.1719 -0.1232  0.3104
  149SAPE   H5X16518   2.479   0.078   9.814  0.6044  0.2924 -1.6690
  149SAPE   H5Y16519   2.461   0.250   9.829 -0.1424  0.1431 -0.1183
  149SAPE   C3616520   2.328   0.163   9.686 -0.2928  0.0445  0.0319
  149SAPE   H6X16521   2.249   0.241   9.684 -0.3033  0.0401  0.2876
  149SAPE   H6Y16522   2.271   0.069   9.666 -0.2586  0.3805 -1.8152
  149SAPE   C3716523   2.407   0.190   9.559  0.2869 -0.0007 -0.0318
  149SAPE   H7X16524   2.487   0.113   9.555 -0.8911 -1.2289 -0.8849
  149SAPE   H7Y16525   2.459   0.286   9.580  3.3169 -1.2383 -1.2002
  149SAPE   C3816526   2.329   0.196   9.427  0.3738 -0.6868 -0.0112
  149SAPE   H8X16527   2.395   0.190   9.338  2.5597  0.6036  1.4390
  149SAPE   H8Y16528   2.259   0.282   9.428 -0.1120 -1.0790  0.2379
  149SAPE   C3916529   2.241   0.069   9.413  0.2439  0.3105 -0.2129
  149SAPE   H9X16530   2.170   0.063   9.499  0.2478  0.4606 -0.1986
  149SAPE   H9Y16531   2.308  -0.020   9.410  1.2237  0.9697  1.0631
  149SAPE  C31016532   2.141   0.077   9.288 -0.2092 -0.1862 -0.3228
  149SAPE  H10X16533   2.200   0.119   9.204  1.1390 -0.5049  0.4301
  149SAPE  H10Y16534   2.055   0.142   9.318 -0.6999 -1.7183  1.8855
  149SAPE  C31116535   2.101  -0.056   9.240 -0.2395 -0.7670 -0.3734
  149SAPE  H11X16536   2.029  -0.099   9.313  0.7936  1.1189  1.8870
  149SAPE  H11Y16537   2.190  -0.122   9.229  0.0003 -0.6374  0.6567
  149SAPE  C31216538   2.032  -0.039   9.103 -0.0214  0.3258 -0.4978
  149SAPE  H12X16539   2.094  -0.003   9.019  1.0751 -1.1801 -0.3714
  149SAPE  H12Y16540   1.949   0.033   9.123 -0.9748 -0.9304  0.2432
  149SAPE  C31316541   1.962  -0.167   9.059 -0.8308  1.0545  0.2213
  149SAPE  H13X16542   1.927  -0.225   9.147  0.2416  0.4971  0.2889
  149SAPE  H13Y16543   2.047  -0.220   9.011  0.8859  2.5671  1.4352
  149SAPE  C31416544   1.855  -0.144   8.959  1.5373 -0.0105  0.7488
  149SAPE  H14X16545   1.767  -0.099   9.010  1.5132  0.5924  0.1879
  149SAPE  H14Y16546   1.827  -0.240   8.910  1.0945  1.1472 -1.3914
  149SAPE  C31516547   1.892  -0.055   8.839  0.8343 -1.0471 -0.4663
  149SAPE  H15X16548   1.926   0.045   8.874  1.4432 -0.9806 -1.2361
  149SAPE  H15Y16549   1.804  -0.037   8.773  1.9577 -2.6031 -2.4927
  149SAPE  C31616550   1.991  -0.120   8.741  0.0945  0.0338 -0.2013
  149SAPE  H16X16551   1.967  -0.228   8.735 -0.6611  0.1406  0.5163
  149SAPE  H16Y16552   2.086  -0.114   8.798 -0.2337  1.0618  0.2724
  149SAPE  C31716553   1.997  -0.042   8.613  0.2652 -0.5739 -0.2696
  149SAPE  H17X16554   2.072  -0.084   8.543  0.2077 -0.6253 -0.2999
  149SAPE  H17Y16555   2.031   0.063   8.621 -0.5159 -0.2148 -1.4882
  149SAPE  C31816556   1.862  -0.050   8.536  0.4519  0.2722  0.2534
  149SAPE  H18X16557   1.798   0.038   8.560  2.6890  1.6936  1.3166
  149SAPE  H18Y16558   1.811  -0.144   8.566 -2.0077  0.7937 -1.9223
  149SAPE  H18Z16559   1.882  -0.043   8.427  0.8227 -2.3107  0.1038
  150SAPE     N16560   1.990   4.501  10.974  0.1437 -0.0293  0.6941
  150SAPE   HN116561   1.979   4.444  10.888 -2.2376 -0.3277  1.1095
  150SAPE   HN216562   1.902   4.555  10.992  0.2937  0.2150  0.6959
  150SAPE   HN316563   2.057   4.580  10.973  0.2255 -0.1021  0.4606
  150SAPE   C1216564   2.019   4.418  11.092 -0.2656 -0.2272  0.1147
  150SAPE  H12A16565   1.936   4.345  11.106 -0.3071 -0.1867  0.0789
  150SAPE  H12B16566   2.015   4.490  11.177 -0.2072 -0.7900  0.6105
  150SAPE   C1116567   2.168   4.364  11.083 -0.3944 -0.1265 -0.0970
  150SAPE  H11A16568   2.178   4.279  11.012  1.3226  1.5630 -1.9887
  150SAPE  H11B16569   2.202   4.309  11.174  0.9485  1.6442  0.5300
  150SAPE     P16570   2.371   4.479  10.950  0.0266 -0.1797 -0.0469
  150SAPE   O1316571   2.420   4.618  10.937  0.1187 -0.3542  0.3519
  150SAPE   O1416572   2.477   4.383  10.972 -0.0814 -0.1350  0.0421
  150SAPE   O1216573   2.261   4.474  11.076 -0.0994  0.6518  0.1943
  150SAPE   O1116574   2.279   4.442  10.828  0.1611 -0.1855 -0.0528
  150SAPE    C116575   2.230   4.558  10.750  0.0554 -0.9816  0.0228
  150SAPE    HA16576   2.140   4.526  10.695  0.4027  0.7094 -1.6610
  150SAPE    HB16577   2.213   4.646  10.815  1.1186 -0.9841  0.3236
  150SAPE    C216578   2.333   4.607  10.638  0.2708  0.0419  0.2625
  150SAPE    HS16579   2.428   4.644  10.682  0.8559 -2.3419  1.1549
  150SAPE   O2116580   2.261   4.704  10.564  0.1917  0.6269  0.3793
  150SAPE   C2116581   2.343   4.801  10.509 -0.3327 -0.2294  1.3249
  150SAPE   O2216582   2.463   4.805  10.523 -0.0012  0.0072 -0.2639
  150SAPE   C2216583   2.262   4.897  10.423 -0.0810  0.1077  0.5356
  150SAPE   H2R16584   2.204   4.855  10.338  1.0604  2.7239 -1.6827
  150SAPE   H2S16585   2.190   4.958  10.480  1.3295  1.9670  0.4313
  150SAPE    C316586   2.367   4.490  10.547 -0.0021  0.3139  0.1306
  150SAPE    HX16587   2.270   4.450  10.511 -0.1692  1.7144 -1.0336
  150SAPE    HY16588   2.417   4.413  10.611  1.3537 -0.2896 -1.5797
  150SAPE   O3116589   2.444   4.533  10.432 -0.0079 -0.2906 -0.8621
  150SAPE   C3116590   2.581   4.545  10.433 -0.2675 -0.8203  0.0346
  150SAPE   O3216591   2.650   4.524  10.526  0.1379  0.0159 -0.2486
  150SAPE   C3216592   2.615   4.623  10.308 -0.7154 -0.2741 -0.1608
  150SAPE   H2X16593   2.718   4.661  10.325 -0.5114 -1.5620  1.7797
  150SAPE   H2Y16594   2.547   4.711  10.300 -0.7299 -0.3716 -1.3943
  150SAPE   C2316595   2.359   4.993  10.348 -0.4308 -0.7049 -0.0077
  150SAPE   H3R16596   2.289   5.051  10.284 -0.6869  0.0756  0.9572
  150SAPE   H3S16597   2.442   4.938  10.299  1.1373 -0.2297  1.9833
  150SAPE   C2416598   2.424   5.115  10.428 -0.0724 -0.1206  0.3897
  150SAPE   H4R16599   2.485   5.175  10.357  2.0528 -1.3076  1.1309
  150SAPE   H4S16600   2.501   5.074  10.496  1.2779  0.1073 -0.9555
  150SAPE   C2516601   2.328   5.203  10.510 -0.3468  0.4879  0.5750
  150SAPE   H5R16602   2.329   5.174  10.617  3.4247 -2.1338  0.0026
  150SAPE   C2616603   2.233   5.290  10.477 -0.1354  0.0098 -0.6426
  150SAPE   H6R16604   2.168   5.337  10.553 -2.0203  0.2034 -2.2807
  150SAPE   C2716605   2.201   5.333  10.335 -0.2339  0.5858 -0.1020
  150SAPE   H7R16606   2.109   5.395  10.342  0.2812  1.3474  0.0272
  150SAPE   H7S16607   2.155   5.241  10.294 -1.1337  0.3740  1.3005
  150SAPE   C2816608   2.323   5.399  10.277  0.0441 -0.8947 -0.2222
  150SAPE   H8R16609   2.375   5.470  10.343  2.8264 -1.9392 -1.1804
  150SAPE   C2916610   2.368   5.389  10.153  0.0415  0.3956 -0.1437
  150SAPE   H9R16611   2.453   5.455  10.126 -1.9202  2.7060 -1.0750
  150SAPE  C21016612   2.318   5.302  10.036  0.0687  0.0420  0.0451
  150SAPE  H10R16613   2.280   5.203  10.070 -1.2921  0.3560 -0.4937
  150SAPE  H10S16614   2.403   5.276   9.969 -0.3450 -1.9153  0.2046
  150SAPE  C21116615   2.198   5.365   9.967 -0.5697  0.0328 -0.6178
  150SAPE  H11R16616   2.112   5.389  10.031 -0.3860 -0.5783 -0.1293
  150SAPE  C21216617   2.178   5.376   9.834  0.2595  0.3229 -0.5162
  150SAPE  H12R16618   2.078   5.416   9.811 -0.1305 -0.4707 -0.2459
  150SAPE  C21316619   2.282   5.350   9.731  0.6240 -0.0543  0.4842
  150SAPE  H13R16620   2.386   5.350   9.771  0.3974  1.3659  1.1463
  150SAPE  H13S16621   2.293   5.435   9.661  2.8809 -1.3430 -0.8530
  150SAPE  C21416622   2.252   5.221   9.653 -0.1445 -0.7981  0.5310
  150SAPE  H14R16623   2.219   5.136   9.714  0.8098  0.7564  3.3760
  150SAPE  C21516624   2.272   5.200   9.519  0.2905  0.5368 -0.3167
  150SAPE  H15R16625   2.264   5.094   9.488  1.5960  0.0091  0.9983
  150SAPE  C21616626   2.327   5.306   9.432 -0.2210 -0.0787 -0.0934
  150SAPE  H16R16627   2.287   5.404   9.467 -0.5476 -0.4048  0.4651
  150SAPE  H16S16628   2.289   5.290   9.329 -0.1677  3.1313 -0.7034
  150SAPE  C21716629   2.477   5.312   9.409 -0.5358 -0.1753  0.3459
  150SAPE  H17R16630   2.505   5.219   9.355  1.4181  0.7078 -0.2444
  150SAPE  H17S16631   2.542   5.318   9.498 -0.2755 -2.5922  0.3800
  150SAPE  C21816632   2.525   5.432   9.320  0.3563 -0.5596 -0.6712
  150SAPE  H18R16633   2.509   5.533   9.364 -3.7054 -1.0415 -0.7042
  150SAPE  H18S16634   2.455   5.436   9.234  0.4847  1.8513 -0.7265
  150SAPE  C21916635   2.664   5.413   9.255  0.7058  0.4305  0.3911
  150SAPE  H19R16636   2.685   5.316   9.206 -0.3214  0.3071  0.1711
  150SAPE  H19S16637   2.743   5.416   9.333  0.5792  0.5418  0.5163
  150SAPE  C22016638   2.694   5.525   9.156 -0.1867 -0.1629 -0.2488
  150SAPE  H20R16639   2.802   5.525   9.130 -0.4568 -1.2692 -1.5074
  150SAPE  H20S16640   2.680   5.625   9.201  2.1411  0.0322  0.1735
  150SAPE  H20T16641   2.633   5.517   9.063 -1.2244  2.5121  0.1340
  150SAPE   C3316642   2.604   4.560  10.167 -0.3413 -0.5335  0.1946
  150SAPE   H3X16643   2.511   4.499  10.159  1.4630 -4.0998  3.2213
  150SAPE   H3Y16644   2.698   4.502  10.176  1.1274  1.8958  1.3400
  150SAPE   C3416645   2.606   4.680  10.064  0.5061  0.2631  0.3072
  150SAPE   H4X16646   2.654   4.643   9.971  2.1943  2.0889  0.3904
  150SAPE   H4Y16647   2.667   4.759  10.111  1.6610 -0.0846 -0.5631
  150SAPE   C3516648   2.468   4.730  10.019 -0.6213 -0.0575  0.2669
  150SAPE   H5X16649   2.425   4.757  10.117 -1.2707  0.8041 -0.2426
  150SAPE   H5Y16650   2.419   4.644   9.968  0.6914  0.0400 -1.2742
  150SAPE   C3616651   2.478   4.852   9.933 -0.6013  0.0746  0.3645
  150SAPE   H6X16652   2.532   4.833   9.838 -0.2501 -0.2831  0.6349
  150SAPE   H6Y16653   2.534   4.936   9.980 -0.7423 -1.2860  3.1807
  150SAPE   C3716654   2.341   4.910   9.916 -0.2411  0.0304  0.4557
  150SAPE   H7X16655   2.334   5.021   9.912  4.4767  0.6026  1.6977
  150SAPE   H7Y16656   2.293   4.907  10.016 -0.4868  0.8944  0.3692
  150SAPE   C3816657   2.256   4.849   9.796  0.3417 -0.3976 -0.4192
  150SAPE   H8X16658   2.169   4.918   9.795  1.9513  1.9360  2.7084
  150SAPE   H8Y16659   2.233   4.743   9.822  1.8655  0.0101  2.9796
  150SAPE   C3916660   2.325   4.859   9.657 -0.8133  0.0367 -0.8813
  150SAPE   H9X16661   2.407   4.785   9.659  0.5307  1.5042  1.0058
  150SAPE   H9Y16662   2.364   4.963   9.653 -0.4549 -0.0350  0.3715
  150SAPE  C31016663   2.241   4.836   9.529 -0.2571  0.0838 -0.4092
  150SAPE  H10X16664   2.301   4.855   9.438 -0.6149  0.6962 -0.5241
  150SAPE  H10Y16665   2.153   4.904   9.524 -2.3982 -2.4620 -0.0576
  150SAPE  C31116666   2.177   4.699   9.508  0.8064  1.1426  0.2946
  150SAPE  H11X16667   2.115   4.668   9.595 -0.6048  1.0795 -0.6957
  150SAPE  H11Y16668   2.257   4.624   9.492  1.0542  1.8375 -2.2405
  150SAPE  C31216669   2.082   4.702   9.386 -0.0204  0.2294 -0.6186
  150SAPE  H12X16670   2.005   4.782   9.394 -0.4582 -0.0294 -1.8930
  150SAPE  H12Y16671   2.032   4.603   9.381  1.3907 -0.5049 -0.6519
  150SAPE  C31316672   2.147   4.716   9.250  0.1565  0.1432  0.0404
  150SAPE  H13X16673   2.229   4.643   9.232 -0.4650 -0.2423 -1.3476
  150SAPE  H13Y16674   2.203   4.812   9.256 -0.6307  0.7161 -1.3729
  150SAPE  C31416675   2.035   4.713   9.146 -0.1138 -0.7027 -0.0730
  150SAPE  H14X16676   1.952   4.775   9.185  1.6876  1.5642  0.3988
  150SAPE  H14Y16677   1.998   4.610   9.124 -1.5409  0.3668 -3.3647
  150SAPE  C31516678   2.091   4.769   9.015  0.0423  0.6160  0.2159
  150SAPE  H15X16679   2.126   4.873   9.033  1.0803  0.2664  0.3033
  150SAPE  H15Y16680   2.019   4.771   8.931  0.5824  2.0809 -0.2481
  150SAPE  C31616681   2.212   4.679   8.972  0.8987  0.2486  0.2980
  150SAPE  H16X16682   2.183   4.578   8.938 -1.8823  1.4110 -1.0748
  150SAPE  H16Y16683   2.290   4.672   9.051 -0.4746  1.8262  1.8944
  150SAPE  C31716684   2.285   4.744   8.854 -0.1969 -1.1886  0.2791
  150SAPE  H17X16685   2.373   4.688   8.815  2.2402  2.2625  0.3272
  150SAPE  H17Y16686   2.318   4.841   8.897 -2.4473  0.2176 -0.9662
  150SAPE  C31816687   2.198   4.779   8.738 -0.4698 -1.0881  0.3937
  150SAPE  H18X16688   2.107   4.836   8.765  0.0700 -1.0067  2.1352
  150SAPE  H18Y16689   2.155   4.690   8.686  1.3910 -2.1610  0.5661
  150SAPE  H18Z16690   2.274   4.841   8.686  0.0458  0.1223  2.4938
  151SAPE     N16691   0.569   3.728  10.955  0.3120  0.1241 -0.6294
  151SAPE   HN116692   0.661   3.686  10.979  0.0080  0.0079  0.4032
  151SAPE   HN216693   0.589   3.754  10.857 -1.2870 -0.5422 -1.1639
  151SAPE   HN316694   0.555   3.808  11.020  4.3199 -0.1480  0.8984
  151SAPE   C1216695   0.456   3.626  10.963 -0.0278 -0.2849  0.3781
  151SAPE  H12A16696   0.365   3.686  10.939  1.9039  3.6734  2.1030
  151SAPE  H12B16697   0.450   3.582  11.065 -1.3618 -2.3137 -0.5226
  151SAPE   C1116698   0.466   3.509  10.864 -0.0929 -0.4256 -0.5279
  151SAPE  H11A16699   0.499   3.541  10.763  0.6701 -1.0527 -0.4813
  151SAPE  H11B16700   0.361   3.473  10.866  0.0839 -0.9620 -0.6704
  151SAPE     P16701   0.598   3.291  10.829 -0.4929  0.4684  0.3171
  151SAPE   O1316702   0.686   3.197  10.900 -0.0823  0.2398 -0.0182
  151SAPE   O1416703   0.481   3.230  10.764 -0.4348  0.1833  0.5503
  151SAPE   O1216704   0.557   3.416  10.918 -0.3475  0.2898 -0.4848
  151SAPE   O1116705   0.680   3.378  10.717 -0.0850 -0.8803  0.5587
  151SAPE    C116706   0.634   3.408  10.587  0.0703  0.4656  0.7143
  151SAPE    HA16707   0.529   3.443  10.588 -1.1059 -2.7856  1.5064
  151SAPE    HB16708   0.696   3.497  10.562  0.2930  0.1241  0.0215
  151SAPE    C216709   0.639   3.285  10.481 -1.2987 -0.0285  0.3664
  151SAPE    HS16710   0.590   3.204  10.539 -2.5237 -0.6288 -1.4158
  151SAPE   O2116711   0.779   3.267  10.456  0.4708  0.3908  0.0753
  151SAPE   C2116712   0.804   3.140  10.440 -0.9688 -0.3874 -0.0010
  151SAPE   O2216713   0.732   3.043  10.453 -0.2445 -0.0607 -0.6325
  151SAPE   C2216714   0.952   3.120  10.418  0.6416 -0.6107 -0.2076
  151SAPE   H2R16715   1.007   3.160  10.505 -1.3130  3.5621 -0.6369
  151SAPE   H2S16716   0.968   3.011  10.401 -2.2316 -1.3940  1.3302
  151SAPE    C316717   0.560   3.302  10.353  0.3371 -0.6790 -0.1926
  151SAPE    HX16718   0.611   3.383  10.297 -0.0939 -0.1099  0.2322
  151SAPE    HY16719   0.466   3.349  10.388  0.0677 -0.9372 -0.5608
  151SAPE   O3116720   0.535   3.174  10.290 -0.3354 -0.1006 -0.6603
  151SAPE   C3116721   0.531   3.173  10.157 -0.1402  0.2587 -0.6283
  151SAPE   O3216722   0.524   3.274  10.085  0.1887 -0.1886  0.0473
  151SAPE   C3216723   0.554   3.034  10.101  0.3406  1.3562  0.0136
  151SAPE   H2X16724   0.487   2.971  10.163  1.0600  2.9414  2.5508
  151SAPE   H2Y16725   0.656   2.994  10.122 -0.2293 -1.0106 -1.3401
  151SAPE   C2316726   1.005   3.197  10.299 -0.3614 -0.2708 -0.2292
  151SAPE   H3R16727   1.114   3.174  10.291 -0.3831 -0.4389 -0.0509
  151SAPE   H3S16728   1.004   3.301  10.337  0.5116  0.6727 -2.5775
  151SAPE   C2416729   0.937   3.164  10.165 -0.0975 -0.4097 -0.0128
  151SAPE   H4R16730   0.827   3.165  10.179 -0.0082 -1.9881  0.9808
  151SAPE   H4S16731   0.964   3.066  10.121 -0.8502 -0.0007 -1.4450
  151SAPE   C2516732   0.965   3.274  10.063  0.7604  0.3740  0.5424
  151SAPE   H5R16733   0.906   3.365  10.082 -1.6337 -1.6382  3.7162
  151SAPE   C2616734   1.037   3.262   9.954  0.2894 -0.2796 -0.3548
  151SAPE   H6R16735   1.043   3.351   9.890 -0.1785  1.0168  1.3351
  151SAPE   C2716736   1.122   3.148   9.896  0.5603 -0.8830 -0.1113
  151SAPE   H7R16737   1.135   3.070   9.975 -1.6953 -1.2436 -0.0473
  151SAPE   H7S16738   1.220   3.187   9.861  0.8808 -1.7029 -0.1404
  151SAPE   C2816739   1.042   3.079   9.788  0.2247  0.5916  0.0326
  151SAPE   H8R16740   0.986   2.995   9.832 -0.8270  1.4043  0.2925
  151SAPE   C2916741   1.046   3.102   9.657 -0.9320  0.1112  0.2046
  151SAPE   H9R16742   0.980   3.041   9.594 -1.8549 -1.6261  2.7049
  151SAPE  C21016743   1.133   3.198   9.582  0.6076 -0.1893  0.4857
  151SAPE  H10R16744   1.151   3.141   9.488 -1.7726 -0.4307  0.0902
  151SAPE  H10S16745   1.237   3.212   9.616  1.8415 -0.1753 -2.8517
  151SAPE  C21116746   1.074   3.330   9.540  0.3580  0.2034 -0.0792
  151SAPE  H11R16747   1.065   3.406   9.619  0.2816 -0.0059  0.1137
  151SAPE  C21216748   1.031   3.365   9.410 -0.3143 -0.5328 -0.7875
  151SAPE  H12R16749   0.996   3.467   9.392  1.1829 -0.0544 -1.1072
  151SAPE  C21316750   1.036   3.283   9.286  0.0127 -0.1050 -0.1401
  151SAPE  H13R16751   1.041   3.181   9.328 -0.7233  0.7642  2.2337
  151SAPE  H13S16752   1.136   3.289   9.238 -0.6550 -0.3454 -1.6111
  151SAPE  C21416753   0.920   3.301   9.191  0.3042  0.0698 -0.3057
  151SAPE  H14R16754   0.826   3.323   9.246 -1.1893 -3.7060 -0.9976
  151SAPE  C21516755   0.928   3.305   9.059  0.2576  0.0428  0.2288
  151SAPE  H15R16756   0.837   3.341   9.009 -0.9441 -1.7777  1.0098
  151SAPE  C21616757   1.043   3.276   8.961  0.0684 -0.9716 -1.3223
  151SAPE  H16R16758   1.021   3.178   8.915 -0.4078 -1.5632  0.1051
  151SAPE  H16S16759   1.145   3.282   9.005  0.2365 -1.8532 -1.5811
  151SAPE  C21716760   1.056   3.383   8.856 -0.2526 -0.0969  0.3645
  151SAPE  H17R16761   1.144   3.351   8.796  0.3452 -0.1601  1.2523
  151SAPE  H17S16762   1.071   3.485   8.897  0.2605 -0.5064  1.2236
  151SAPE  C21816763   0.938   3.401   8.755 -0.8390 -0.4743  0.0560
  151SAPE  H18R16764   0.959   3.484   8.685 -0.7797 -0.4276  0.1302
  151SAPE  H18S16765   0.843   3.411   8.812  0.2122 -0.7061  1.9141
  151SAPE  C21916766   0.917   3.279   8.658  0.1131  0.6354  0.1574
  151SAPE  H19R16767   0.936   3.182   8.709  2.1552  0.7599 -0.3191
  151SAPE  H19S16768   0.998   3.280   8.583  2.4214 -1.9821  2.3772
  151SAPE  C22016769   0.773   3.284   8.586  0.0316 -0.6503 -0.0477
  151SAPE  H20R16770   0.776   3.206   8.507 -0.7938 -0.8593  0.1210
  151SAPE  H20S16771   0.763   3.389   8.550  2.8410 -0.3830 -0.3197
  151SAPE  H20T16772   0.683   3.256   8.644 -1.0645  1.3729 -0.6703
  151SAPE   C3316773   0.532   3.027   9.949 -0.5362 -0.0888  0.3771
  151SAPE   H3X16774   0.438   3.081   9.924 -0.1777 -0.2582 -1.4680
  151SAPE   H3Y16775   0.516   2.922   9.915 -2.0552 -0.5499  2.3227
  151SAPE   C3416776   0.644   3.094   9.864 -0.2266 -0.3505  0.0025
  151SAPE   H4X16777   0.734   3.032   9.885 -0.0814  0.1941  1.0931
  151SAPE   H4Y16778   0.666   3.198   9.895 -0.5548 -0.0270 -0.8607
  151SAPE   C3516779   0.622   3.095   9.711  0.5583 -0.0744 -0.1969
  151SAPE   H5X16780   0.728   3.102   9.677  0.8712 -0.5521  0.6645
  151SAPE   H5Y16781   0.565   3.181   9.669 -1.6272 -0.8762  0.9811
  151SAPE   C3616782   0.565   2.971   9.645  0.0838  0.7453  0.4443
  151SAPE   H6X16783   0.466   2.946   9.689 -0.3783 -1.0216 -1.4629
  151SAPE   H6Y16784   0.638   2.887   9.649 -0.1718  0.4126 -1.1281
  151SAPE   C3716785   0.530   2.994   9.491 -0.4161  0.1109 -0.1131
  151SAPE   H7X16786   0.487   3.096   9.483 -0.3832 -0.0083 -2.7607
  151SAPE   H7Y16787   0.456   2.919   9.459  0.8907 -0.1729 -2.7231
  151SAPE   C3816788   0.654   3.002   9.400 -0.3926 -0.6459 -0.4745
  151SAPE   H8X16789   0.715   2.911   9.382  1.9909  0.7312  0.1891
  151SAPE   H8Y16790   0.734   3.060   9.450  1.0834 -1.5317 -1.7369
  151SAPE   C3916791   0.624   3.054   9.260 -0.1893 -0.5132  0.1940
  151SAPE   H9X16792   0.714   3.084   9.203 -0.3288  1.0362  0.7494
  151SAPE   H9Y16793   0.578   3.155   9.269  2.9596  0.9417  1.0505
  151SAPE  C31016794   0.538   2.965   9.170 -0.5295 -0.1986 -0.3673
  151SAPE  H10X16795   0.438   2.956   9.218 -0.2746  0.8089  0.3941
  151SAPE  H10Y16796   0.587   2.866   9.176 -1.0196 -0.3607  2.1811
  151SAPE  C31116797   0.506   3.028   9.034  0.1304  0.1545 -0.9379
  151SAPE  H11X16798   0.598   3.046   8.975  1.2157  1.3497  1.0064
  151SAPE  H11Y16799   0.477   3.131   9.066  1.5552  0.0795  0.7513
  151SAPE  C31216800   0.405   2.936   8.956 -0.1667  0.0318  0.5806
  151SAPE  H12X16801   0.321   2.917   9.026 -1.2940 -1.2379 -1.0544
  151SAPE  H12Y16802   0.455   2.839   8.939  1.4678  0.7560  1.0854
  151SAPE  C31316803   0.357   2.994   8.825  0.3703  1.1651  0.1581
  151SAPE  H13X16804   0.306   3.090   8.848 -1.8036 -0.0820  0.9020
  151SAPE  H13Y16805   0.286   2.924   8.776  1.1223 -0.4278  1.2772
  151SAPE  C31416806   0.462   3.006   8.710 -0.1868  0.5345 -0.0715
  151SAPE  H14X16807   0.484   2.906   8.667  2.0248  0.9610 -0.0500
  151SAPE  H14Y16808   0.556   3.025   8.767  0.7466 -0.6995 -1.1328
  151SAPE  C31516809   0.442   3.114   8.600  0.1609  0.1960 -0.2492
  151SAPE  H15X16810   0.530   3.095   8.534  0.4648  1.5703 -0.2647
  151SAPE  H15Y16811   0.432   3.221   8.629 -2.2348 -0.7019  2.7363
  151SAPE  C31616812   0.329   3.097   8.494 -0.4482  0.0441 -0.2172
  151SAPE  H16X16813   0.235   3.117   8.550 -0.9432 -1.0147 -0.6427
  151SAPE  H16Y16814   0.313   2.993   8.459 -1.1057  0.1258 -0.1856
  151SAPE  C31716815   0.338   3.197   8.380 -0.1666 -0.3912 -0.4640
  151SAPE  H17X16816   0.367   3.296   8.422 -0.6614  0.5313 -2.2195
  151SAPE  H17Y16817   0.238   3.211   8.334 -1.4056 -2.9960  1.1710
  151SAPE  C31816818   0.439   3.150   8.276 -0.4472  0.4835 -0.3339
  151SAPE  H18X16819   0.405   3.054   8.233 -3.0112  1.2801 -0.2170
  151SAPE  H18Y16820   0.539   3.131   8.321 -0.6531  0.2390  0.0242
  151SAPE  H18Z16821   0.457   3.223   8.194 -1.0192  1.2775  0.2309
  152SAPE     N16822   0.408   2.956  10.744 -1.3950 -0.0324 -0.3288
  152SAPE   HN116823   0.503   2.918  10.762 -1.7377  0.2272  2.3977
  152SAPE   HN216824   0.394   3.055  10.771  0.3211  0.8347 -2.3373
  152SAPE   HN316825   0.361   2.900  10.818 -0.4296 -0.8480 -0.3122
  152SAPE   C1216826   0.363   2.935  10.604 -0.0178  0.2811  0.0161
  152SAPE  H12A16827   0.424   2.996  10.534  1.9740  0.3520  1.7139
  152SAPE  H12B16828   0.254   2.956  10.601  0.0233  0.4222 -1.4476
  152SAPE   C1116829   0.379   2.787  10.554 -1.0135  0.9735 -0.7427
  152SAPE  H11A16830   0.490   2.778  10.553 -1.0466  0.5016 -0.4772
  152SAPE  H11B16831   0.341   2.786  10.450  1.4839  1.5370 -1.7522
  152SAPE     P16832   0.166   2.643  10.630 -0.2186  0.4249  0.4001
  152SAPE   O1316833   0.182   2.512  10.695 -0.2049  0.3053  0.0505
  152SAPE   O1416834   0.058   2.738  10.674 -0.2782  0.1363 -0.2183
  152SAPE   O1216835   0.311   2.702  10.647 -0.2440 -0.4485  0.4777
  152SAPE   O1116836   0.165   2.628  10.468 -0.0264  0.2002 -0.3108
  152SAPE    C116837   0.152   2.506  10.403  0.1013  0.3071  0.4061
  152SAPE    HA16838   0.051   2.462  10.419  0.1768 -0.3775 -0.9037
  152SAPE    HB16839   0.163   2.523  10.294 -0.5401  0.3336  0.3393
  152SAPE    C216840   0.267   2.395  10.421  0.1459 -0.8238  0.4210
  152SAPE    HS16841   0.256   2.367  10.528 -1.9977 -1.2360  0.1231
  152SAPE   O2116842   0.386   2.456  10.383 -0.3164 -0.4203 -0.2471
  152SAPE   C2116843   0.496   2.405  10.433  0.6563 -1.6258  0.0422
  152SAPE   O2216844   0.499   2.312  10.509 -0.5785  0.0198  0.5462
  152SAPE   C2216845   0.621   2.493  10.388 -0.0188 -0.3098  0.0350
  152SAPE   H2R16846   0.617   2.593  10.437  0.3565  0.4224 -1.3617
  152SAPE   H2S16847   0.708   2.429  10.412 -1.2689 -2.6432 -1.3303
  152SAPE    C316848   0.229   2.282  10.324  0.1126  1.0338  0.0934
  152SAPE    HX16849   0.317   2.214  10.328  0.6763  1.6858 -0.8802
  152SAPE    HY16850   0.224   2.309  10.217 -1.2079 -2.1774 -0.7849
  152SAPE   O3116851   0.102   2.220  10.357  0.0265  0.7341 -0.4610
  152SAPE   C3116852   0.113   2.131  10.463 -0.2758  0.1499 -0.0436
  152SAPE   O3216853   0.217   2.108  10.521 -0.2557 -0.3507 -0.4173
  152SAPE   C3216854  -0.017   2.071  10.507  0.0002  0.5482  0.1843
  152SAPE   H2X16855  -0.093   2.151  10.515 -0.9379 -0.0911 -1.7529
  152SAPE   H2Y16856  -0.003   2.019  10.604  2.3891 -2.2819 -1.5145
  152SAPE   C2316857   0.619   2.530  10.236  0.0950  0.4426  0.6882
  152SAPE   H3R16858   0.512   2.536  10.206  0.4694  0.7258 -0.6626
  152SAPE   H3S16859   0.671   2.447  10.183 -1.5484 -0.3520  0.2495
  152SAPE   C2416860   0.692   2.658  10.208 -0.7941 -0.2762  0.2090
  152SAPE   H4R16861   0.626   2.745  10.224  0.7263  0.6200  1.9077
  152SAPE   H4S16862   0.703   2.668  10.098  0.6123  6.6313  0.5901
  152SAPE   C2516863   0.827   2.656  10.276 -0.7150 -0.8831  0.9091
  152SAPE   H5R16864   0.839   2.634  10.383  2.1681 -0.4899  0.7367
  152SAPE   C2616865   0.939   2.671  10.203 -0.4215  0.3501  0.2460
  152SAPE   H6R16866   1.037   2.643  10.245  0.2354  0.7647 -0.9689
  152SAPE   C2716867   0.949   2.690  10.059 -0.1808 -0.4120  0.4145
  152SAPE   H7R16868   1.047   2.740  10.047 -1.6238  2.0920 -2.1773
  152SAPE   H7S16869   0.884   2.772  10.022  0.4202  0.2906  0.8922
  152SAPE   C2816870   0.920   2.570   9.972 -0.3389  0.0340 -0.3442
  152SAPE   H8R16871   0.914   2.477  10.031  2.3139 -0.3357 -0.5491
  152SAPE   C2916872   0.902   2.559   9.836 -0.6891 -0.0151 -0.5374
  152SAPE   H9R16873   0.858   2.466   9.796 -1.6912  0.4629 -0.5738
  152SAPE  C21016874   0.907   2.666   9.736 -0.0637 -0.4392  0.2670
  152SAPE  H10R16875   0.979   2.746   9.764 -0.2394 -0.4392  0.7136
  152SAPE  H10S16876   0.821   2.735   9.740 -0.0171 -0.3220 -0.4956
  152SAPE  C21116877   0.941   2.625   9.593 -0.2301 -0.0882  0.1485
  152SAPE  H11R16878   1.046   2.648   9.575  0.0079 -0.5620  0.8718
  152SAPE  C21216879   0.882   2.555   9.497 -0.1861  0.4308 -0.2496
  152SAPE  H12R16880   0.936   2.553   9.401 -0.9012 -0.3240 -0.6453
  152SAPE  C21316881   0.742   2.501   9.499 -0.2920 -1.0798 -0.5039
  152SAPE  H13R16882   0.697   2.504   9.601 -1.0590  1.2303 -0.8517
  152SAPE  H13S16883   0.744   2.392   9.476  1.3259 -1.5237  1.4092
  152SAPE  C21416884   0.648   2.590   9.421 -0.4455  0.3974  0.0500
  152SAPE  H14R16885   0.696   2.629   9.330 -1.8789 -1.2223 -1.5041
  152SAPE  C21516886   0.521   2.605   9.444  0.6998 -0.3864 -0.1831
  152SAPE  H15R16887   0.475   2.678   9.375  2.8206  0.9343 -0.2677
  152SAPE  C21616888   0.436   2.554   9.556  0.0588  0.8606 -0.1901
  152SAPE  H16R16889   0.470   2.454   9.589 -1.3114  0.4836  0.1568
  152SAPE  H16S16890   0.333   2.540   9.516  1.1378 -0.3078 -2.7459
  152SAPE  C21716891   0.442   2.638   9.683 -0.3701  0.2231 -0.6974
  152SAPE  H17R16892   0.392   2.737   9.674 -0.8854  0.2791  1.9874
  152SAPE  H17S16893   0.548   2.645   9.717 -0.9081  1.5949  0.8346
  152SAPE  C21816894   0.368   2.569   9.805 -0.2857  0.3450  0.4405
  152SAPE  H18R16895   0.390   2.460   9.806  2.6196  0.8544  0.8832
  152SAPE  H18S16896   0.264   2.596   9.777 -0.5753 -0.4634  0.7302
  152SAPE  C21916897   0.401   2.624   9.943 -0.0897  0.6899 -0.4935
  152SAPE  H19R16898   0.402   2.735   9.939  0.6065  0.6895 -0.4510
  152SAPE  H19S16899   0.496   2.587   9.988 -0.7832 -0.2228  0.2467
  152SAPE  C22016900   0.296   2.573  10.044 -0.3231 -0.1419 -0.6547
  152SAPE  H20R16901   0.332   2.603  10.144  2.2074  0.5180 -1.6899
  152SAPE  H20S16902   0.279   2.463  10.045 -1.8180  0.0668 -0.2192
  152SAPE  H20T16903   0.205   2.636  10.039  0.6788  1.7058  2.1005
  152SAPE   C3316904  -0.077   1.973  10.406 -0.2224  0.6848  0.4689
  152SAPE   H3X16905  -0.069   2.005  10.300  0.6039 -1.0326 -0.0136
  152SAPE   H3Y16906  -0.188   1.965  10.413 -0.5390  0.6685 -2.9132
  152SAPE   C3416907  -0.007   1.835  10.424 -0.1225 -0.8139  0.3226
  152SAPE   H4X16908  -0.075   1.757  10.382 -1.2859  1.4699 -2.3395
  152SAPE   H4Y16909   0.024   1.814  10.528  1.1857  2.2602  0.6685
  152SAPE   C3516910   0.121   1.817  10.337  0.3354  0.1189  0.7848
  152SAPE   H5X16911   0.210   1.771  10.385  0.3270 -0.6465  0.0885
  152SAPE   H5Y16912   0.153   1.914  10.292  0.2129 -1.3672 -2.8070
  152SAPE   C3616913   0.094   1.737  10.210  0.2633  0.0737 -0.7959
  152SAPE   H6X16914   0.003   1.786  10.170  1.5947  1.7014 -1.9511
  152SAPE   H6Y16915   0.073   1.634  10.248 -3.0534  1.0477  0.3739
  152SAPE   C3716916   0.209   1.740  10.110  0.2274 -0.5641  0.0836
  152SAPE   H7X16917   0.280   1.663  10.148  0.1985 -0.4072  0.4543
  152SAPE   H7Y16918   0.254   1.841  10.100 -1.3136 -0.0157 -2.1106
  152SAPE   C3816919   0.161   1.693   9.966  0.0929  0.2240  0.1968
  152SAPE   H8X16920   0.078   1.764   9.942 -2.7694 -2.1645  2.2551
  152SAPE   H8Y16921   0.119   1.590   9.970  0.5446 -0.0502 -1.6135
  152SAPE   C3916922   0.263   1.695   9.859 -0.1398 -0.2720  0.5549
  152SAPE   H9X16923   0.347   1.625   9.877 -1.3443 -1.7273  0.6582
  152SAPE   H9Y16924   0.299   1.800   9.859  0.9667 -0.5589 -2.4390
  152SAPE  C31016925   0.205   1.667   9.718 -0.3331  0.0691 -0.0954
  152SAPE  H10X16926   0.114   1.729   9.703 -0.0462  0.6445  0.4761
  152SAPE  H10Y16927   0.163   1.565   9.712 -0.5783  0.1526  0.1937
  152SAPE  C31116928   0.297   1.705   9.601 -0.0796 -0.5384  0.1345
  152SAPE  H11X16929   0.397   1.657   9.607  0.1265 -0.2025 -0.6078
  152SAPE  H11Y16930   0.320   1.812   9.616 -0.3541 -0.8251  3.3585
  152SAPE  C31216931   0.235   1.668   9.463 -0.5261 -0.0470  0.4737
  152SAPE  H12X16932   0.130   1.703   9.454 -0.0511  0.9577 -1.9721
  152SAPE  H12Y16933   0.236   1.558   9.453 -1.0216 -0.0078  0.0096
  152SAPE  C31316934   0.315   1.721   9.340 -0.0338 -0.0069  0.1797
  152SAPE  H13X16935   0.424   1.701   9.354 -0.1917 -0.7161  0.3970
  152SAPE  H13Y16936   0.313   1.832   9.350  1.4717  0.0013  0.7817
  152SAPE  C31416937   0.257   1.672   9.210  0.0520  0.0427 -0.0984
  152SAPE  H14X16938   0.153   1.709   9.192  0.8868  2.0109 -1.1699
  152SAPE  H14Y16939   0.264   1.562   9.224  1.7439  0.1943  0.3932
  152SAPE  C31516940   0.335   1.708   9.086 -0.0993  0.4366 -0.1254
  152SAPE  H15X16941   0.441   1.692   9.115 -0.1707  0.9588  0.4633
  152SAPE  H15Y16942   0.319   1.816   9.063  2.3008  1.3523  1.9842
  152SAPE  C31616943   0.286   1.637   8.964 -1.0947  0.4734  0.8026
  152SAPE  H16X16944   0.291   1.712   8.883  1.5323  0.9349  1.2891
  152SAPE  H16Y16945   0.179   1.610   8.962 -0.8023 -0.7212 -0.6796
  152SAPE  C31716946   0.366   1.519   8.914 -0.0394  0.0426 -0.7601
  152SAPE  H17X16947   0.306   1.470   8.834 -3.0554 -1.0423  1.9392
  152SAPE  H17Y16948   0.389   1.460   9.006  1.7046  2.4380  0.4521
  152SAPE  C31816949   0.503   1.562   8.873 -0.0019  0.5147 -0.0766
  152SAPE  H18X16950   0.553   1.484   8.812  1.3532 -0.7122  2.4457
  152SAPE  H18Y16951   0.573   1.591   8.954  2.8414  0.3437 -2.3158
  152SAPE  H18Z16952   0.502   1.656   8.814  1.0748  0.1465 -0.7166
  153SAPE     N16953   0.690   4.130  10.709 -0.0679 -0.2662 -0.2046
  153SAPE   HN116954   0.781   4.090  10.740 -0.8026 -0.6631  1.5302
  153SAPE   HN216955   0.686   4.226  10.749  2.9679  0.1646 -0.6815
  153SAPE   HN316956   0.614   4.075  10.752  2.1546 -1.2166  2.8227
  153SAPE   C1216957   0.671   4.135  10.562 -0.3974 -0.4023 -0.1707
  153SAPE  H12A16958   0.749   4.207  10.529 -0.4081  0.6306  1.9055
  153SAPE  H12B16959   0.573   4.178  10.534 -1.2144  0.1506  3.1098
  153SAPE   C1116960   0.684   4.003  10.495  0.1786 -0.3480  0.3607
  153SAPE  H11A16961   0.781   3.959  10.526 -0.5423 -0.8877  1.9494
  153SAPE  H11B16962   0.693   4.019  10.386 -0.7647 -2.1181 -0.0023
  153SAPE     P16963   0.576   3.766  10.555 -0.0012 -0.0757 -0.7386
  153SAPE   O1316964   0.616   3.750  10.697  0.1970  0.0580  0.5314
  153SAPE   O1416965   0.453   3.695  10.516  0.0440 -0.1692 -0.5232
  153SAPE   O1216966   0.568   3.922  10.523  0.7846  0.2651  0.0346
  153SAPE   O1116967   0.701   3.715  10.475  0.0816 -0.1883  0.6510
  153SAPE    C116968   0.681   3.699  10.333  0.3455  0.5977  0.5720
  153SAPE    HA16969   0.624   3.608  10.306  2.0593 -0.2720 -0.2716
  153SAPE    HB16970   0.630   3.783  10.283  0.7850  0.7601  0.3881
  153SAPE    C216971   0.815   3.690  10.249  0.0733  0.3488  0.2365
  153SAPE    HS16972   0.853   3.793  10.229  3.3012 -0.8778 -0.5006
  153SAPE   O2116973   0.797   3.610  10.131 -0.4289  0.2166 -0.1560
  153SAPE   C2116974   0.717   3.664  10.041 -0.1403  0.9385  0.3122
  153SAPE   O2216975   0.666   3.775  10.044 -0.3845 -0.4712  0.7527
  153SAPE   C2216976   0.702   3.570   9.920  0.1787  0.0936  0.3213
  153SAPE   H2R16977   0.800   3.525   9.897 -0.7931 -0.9709 -2.0055
  153SAPE   H2S16978   0.630   3.488   9.941  0.4989 -0.1087  0.6350
  153SAPE    C316979   0.922   3.622  10.335 -0.8335  0.5207  0.1870
  153SAPE    HX16980   0.871   3.528  10.365  1.1545 -1.2563 -1.6494
  153SAPE    HY16981   0.956   3.677  10.425  0.4343  0.4388 -0.2306
  153SAPE   O3116982   1.042   3.592  10.255 -0.2473  0.4132 -0.2293
  153SAPE   C3116983   1.114   3.702  10.236  0.0190  0.0145 -0.3869
  153SAPE   O3216984   1.099   3.808  10.289  0.0804 -0.2980 -0.1730
  153SAPE   C3216985   1.213   3.687  10.127 -0.6121  0.0642  0.0061
  153SAPE   H2X16986   1.178   3.607  10.058 -2.6154  0.0380  0.9794
  153SAPE   H2Y16987   1.306   3.644  10.168  0.3258  1.7336 -0.2936
  153SAPE   C2316988   0.639   3.649   9.797 -0.3689  0.4232 -0.1342
  153SAPE   H3R16989   0.718   3.715   9.755  0.5444  0.5976  1.7860
  153SAPE   H3S16990   0.563   3.719   9.837  1.3143  3.1443 -1.4504
  153SAPE   C2416991   0.559   3.557   9.697  0.0324  0.1190 -0.9196
  153SAPE   H4R16992   0.499   3.630   9.638  1.9987  2.3023 -0.3873
  153SAPE   H4S16993   0.498   3.487   9.756  2.9761 -2.3428 -0.5456
  153SAPE   C2516994   0.658   3.471   9.612  1.2200  0.2756 -0.8649
  153SAPE   H5R16995   0.738   3.419   9.667  0.9804 -0.5589 -1.2876
  153SAPE   C2616996   0.640   3.448   9.476  0.5655  0.2741 -0.7533
  153SAPE   H6R16997   0.710   3.386   9.419  0.0677  0.4382 -1.5728
  153SAPE   C2716998   0.530   3.505   9.386 -0.1778 -1.0546  0.5907
  153SAPE   H7R16999   0.440   3.527   9.447 -1.0689  0.1736 -1.0672
  153SAPE   H7S17000   0.492   3.440   9.304 -1.2949 -0.1774  0.3765
  153SAPE   C2817001   0.571   3.635   9.323 -0.4305 -0.5537  0.1293
  153SAPE   H8R17002   0.612   3.709   9.394  2.8233 -0.1554 -1.9574
  153SAPE   C2917003   0.578   3.667   9.196 -0.2259 -0.3329 -0.3148
  153SAPE   H9R17004   0.615   3.770   9.181  0.0669 -0.6477 -1.9474
  153SAPE  C21017005   0.549   3.584   9.073 -0.1437 -0.1817 -0.1774
  153SAPE  H10R17006   0.581   3.481   9.097  0.2691  0.1341  0.6629
  153SAPE  H10S17007   0.611   3.620   8.987  1.4758  1.1498  1.4680
  153SAPE  C21117008   0.408   3.576   9.032 -0.2482 -0.3390 -0.3405
  153SAPE  H11R17009   0.347   3.600   9.120  1.3598  0.1296  0.7040
  153SAPE  C21217010   0.357   3.542   8.916  0.4448 -0.0442  0.1949
  153SAPE  H12R17011   0.247   3.545   8.910  0.3667  1.9788  1.6175
  153SAPE  C21317012   0.434   3.503   8.794  0.3902  0.1227 -0.6146
  153SAPE  H13R17013   0.469   3.399   8.807 -1.1750 -0.3368  0.1370
  153SAPE  H13S17014   0.519   3.571   8.771  0.3378 -0.1409 -1.6520
  153SAPE  C21417015   0.343   3.486   8.675  0.4288  0.1068 -0.0414
  153SAPE  H14R17016   0.262   3.412   8.686 -0.1339  0.5637 -0.9214
  153SAPE  C21517017   0.354   3.549   8.558 -0.0246  0.5029 -0.1438
  153SAPE  H15R17018   0.278   3.518   8.485  1.2995  0.0311 -1.3761
  153SAPE  C21617019   0.449   3.657   8.521 -0.5558 -0.6096 -0.8238
  153SAPE  H16R17020   0.457   3.653   8.410 -1.5635  0.2812 -0.9454
  153SAPE  H16S17021   0.549   3.632   8.563 -1.6665 -0.5428  2.1030
  153SAPE  C21717022   0.426   3.808   8.547  1.1070  0.5793  0.0842
  153SAPE  H17R17023   0.517   3.864   8.517  0.1055  1.7818 -0.7778
  153SAPE  H17S17024   0.414   3.835   8.654  2.0839  0.9654  0.1035
  153SAPE  C21817025   0.303   3.856   8.462  0.1080 -0.0814 -0.0053
  153SAPE  H18R17026   0.223   3.779   8.462  0.5569 -0.5899  1.8583
  153SAPE  H18S17027   0.345   3.870   8.360  0.6950  0.0706  0.2521
  153SAPE  C21917028   0.241   3.988   8.516  0.5678 -0.7949 -0.6777
  153SAPE  H19R17029   0.197   3.952   8.612  0.1649 -1.1468 -0.9883
  153SAPE  H19S17030   0.158   4.011   8.447 -0.1817  0.9137  0.7065
  153SAPE  C22017031   0.334   4.106   8.531  0.9540  0.4833  0.8770
  153SAPE  H20R17032   0.375   4.124   8.430 -1.5269 -2.0698 -0.7165
  153SAPE  H20S17033   0.415   4.093   8.606  0.2690  0.3626  1.6170
  153SAPE  H20T17034   0.267   4.189   8.564 -0.4946 -0.8536  1.3907
  153SAPE   C3317035   1.235   3.819  10.049  0.2430 -0.4431 -0.6769
  153SAPE   H3X17036   1.278   3.889  10.124 -1.5505 -1.2776  1.2511
  153SAPE   H3Y17037   1.141   3.873  10.024  0.3793 -0.8654 -2.2241
  153SAPE   C3417038   1.308   3.803   9.916 -0.3670  0.3102 -0.1609
  153SAPE   H4X17039   1.235   3.774   9.838  1.8375 -0.5878 -1.9904
  153SAPE   H4Y17040   1.386   3.725   9.922  0.3801  1.0011 -0.7271
  153SAPE   C3517041   1.372   3.934   9.881  0.2512  0.2911 -0.5340
  153SAPE   H5X17042   1.472   3.946   9.930  1.1518 -1.4516 -1.8643
  153SAPE   H5Y17043   1.300   4.018   9.887 -0.4815 -0.0309 -3.4503
  153SAPE   C3617044   1.414   3.945   9.735  0.5690  0.0971  0.6479
  153SAPE   H6X17045   1.458   4.046   9.718 -0.5914  0.5693  0.3399
  153SAPE   H6Y17046   1.332   3.939   9.660  1.2902 -0.2058 -0.1438
  153SAPE   C3717047   1.530   3.847   9.690  0.0455 -0.2485 -0.5505
  153SAPE   H7X17048   1.490   3.747   9.718  0.6493 -0.1263  0.8164
  153SAPE   H7Y17049   1.631   3.866   9.732  0.7720 -0.9930 -1.9197
  153SAPE   C3817050   1.530   3.856   9.536  0.1914  1.5178 -0.0068
  153SAPE   H8X17051   1.424   3.856   9.503 -0.2475 -0.6573  1.2130
  153SAPE   H8Y17052   1.576   3.760   9.503 -2.7185  0.5585 -1.6020
  153SAPE   C3917053   1.592   3.982   9.466  0.1409  0.1973 -0.2607
  153SAPE   H9X17054   1.691   4.001   9.513 -0.9673  1.7780  1.5575
  153SAPE   H9Y17055   1.535   4.067   9.509 -0.1187  0.9764 -2.0215
  153SAPE  C31017056   1.595   3.973   9.316 -0.1055 -0.1570  0.4916
  153SAPE  H10X17057   1.655   4.063   9.291  1.2063 -0.4929  2.1897
  153SAPE  H10Y17058   1.491   3.990   9.284 -0.5368 -2.1926  0.7074
  153SAPE  C31117059   1.657   3.844   9.269 -0.3158  0.1381 -0.2789
  153SAPE  H11X17060   1.595   3.753   9.283  0.2486 -0.6094 -2.2904
  153SAPE  H11Y17061   1.755   3.826   9.316  0.1093 -0.4389 -1.3584
  153SAPE  C31217062   1.683   3.854   9.117  0.1424 -1.3840 -0.1487
  153SAPE  H12X17063   1.736   3.950   9.098 -3.1866  0.4275 -1.1133
  153SAPE  H12Y17064   1.585   3.865   9.066  0.5042 -2.5461 -1.1472
  153SAPE  C31317065   1.763   3.746   9.059  0.4124  0.3716  0.0577
  153SAPE  H13X17066   1.702   3.657   9.085  1.4418 -0.2414  0.4230
  153SAPE  H13Y17067   1.858   3.751   9.117  0.4899  1.1344 -0.1171
  153SAPE  C31417068   1.802   3.759   8.906  0.1389 -0.6940  0.3025
  153SAPE  H14X17069   1.827   3.866   8.897 -1.8138 -0.1089  1.3612
  153SAPE  H14Y17070   1.718   3.719   8.846 -0.0287  0.4803 -0.2568
  153SAPE  C31517071   1.930   3.672   8.870 -0.3291 -0.3003  0.3016
  153SAPE  H15X17072   1.913   3.567   8.903 -2.2520  1.3348  5.4815
  153SAPE  H15Y17073   2.012   3.707   8.935 -1.4856  1.0065  1.1238
  153SAPE  C31617074   1.988   3.686   8.728  0.1012  0.8192 -0.0189
  153SAPE  H16X17075   1.995   3.796   8.714  0.4979  0.6509 -1.3001
  153SAPE  H16Y17076   1.912   3.650   8.655 -1.0015 -1.3994  2.0589
  153SAPE  C31717077   2.123   3.626   8.702  0.2785  0.7034  0.3907
  153SAPE  H17X17078   2.187   3.637   8.792  0.3446  2.4779  0.1617
  153SAPE  H17Y17079   2.185   3.678   8.625  0.8316 -0.9283 -0.3162
  153SAPE  C31817080   2.109   3.475   8.668 -0.3315  0.0612  0.3415
  153SAPE  H18X17081   2.071   3.420   8.757 -0.8588 -0.2617 -0.0761
  153SAPE  H18Y17082   2.204   3.427   8.637 -1.1238 -1.4198  0.0706
  153SAPE  H18Z17083   2.037   3.457   8.585  0.7043 -0.4176 -0.4842
  154SAPE     N17084   2.724   4.324  11.029 -0.1535 -0.3943  0.0257
  154SAPE   HN117085   2.632   4.328  10.981 -0.3074 -1.3673  0.2145
  154SAPE   HN217086   2.805   4.338  10.966 -1.1284 -2.4363 -1.7951
  154SAPE   HN317087   2.726   4.228  11.070  1.9879 -0.9196 -1.1626
  154SAPE   C1217088   2.725   4.433  11.138  0.0382  0.2299  0.5237
  154SAPE  H12A17089   2.658   4.407  11.222  1.4793  0.1958  1.7086
  154SAPE  H12B17090   2.680   4.527  11.099  0.0613  0.7752  1.7854
  154SAPE   C1117091   2.873   4.455  11.187  0.2577 -0.2800  0.0014
  154SAPE  H11A17092   2.916   4.354  11.204  1.8946  0.5468  1.0131
  154SAPE  H11B17093   2.863   4.502  11.288  1.5255 -1.6938  0.8398
  154SAPE     P17094   3.074   4.473  11.030  0.1414 -0.2082  0.2006
  154SAPE   O1317095   3.199   4.483  11.114  0.4054 -0.5302 -0.0237
  154SAPE   O1417096   3.041   4.336  10.991  0.1599  0.2823 -0.2986
  154SAPE   O1217097   2.946   4.540  11.101 -0.2762  0.6249 -0.0660
  154SAPE   O1117098   3.095   4.560  10.905 -0.0006  0.0488 -0.2162
  154SAPE    C117099   3.117   4.704  10.921 -0.5177 -0.1852  0.2031
  154SAPE    HA17100   3.051   4.754  10.995  0.3918  1.2312  0.1117
  154SAPE    HB17101   3.225   4.713  10.946 -0.6464 -0.5658  0.9178
  154SAPE    C217102   3.115   4.793  10.794 -0.6196  0.3807 -1.0787
  154SAPE    HS17103   3.128   4.902  10.813 -1.6119  0.4587 -0.7996
  154SAPE   O2117104   3.003   4.773  10.708 -0.0911 -0.2353 -0.3859
  154SAPE   C2117105   2.916   4.868  10.681 -0.6739  0.2662 -0.1346
  154SAPE   O2217106   2.919   4.986  10.725  0.0950 -0.0127 -0.0223
  154SAPE   C2217107   2.841   4.826  10.558  0.5870  0.1799 -0.5311
  154SAPE   H2R17108   2.868   4.721  10.536  0.1696  0.3045 -1.7518
  154SAPE   H2S17109   2.732   4.826  10.581  0.4611  0.3676 -1.0830
  154SAPE    C317110   3.242   4.751  10.714  0.0516  0.1180 -0.0779
  154SAPE    HX17111   3.239   4.644  10.687 -0.2155  0.2494 -0.5772
  154SAPE    HY17112   3.331   4.756  10.780 -0.3747 -1.3593  0.6604
  154SAPE   O3117113   3.249   4.842  10.596  0.3104 -0.1274 -0.1014
  154SAPE   C3117114   3.369   4.878  10.548 -0.0788 -0.4687  0.6960
  154SAPE   O3217115   3.481   4.837  10.584  0.1343  0.3390 -0.4575
  154SAPE   C3217116   3.352   4.971  10.429  0.4007  0.3472  0.0543
  154SAPE   H2X17117   3.303   5.061  10.472  0.0110 -0.3268  1.0436
  154SAPE   H2Y17118   3.284   4.917  10.359  0.9054  0.5189 -0.5781
  154SAPE   C2317119   2.857   4.922  10.442 -0.0511 -0.8216 -0.3833
  154SAPE   H3R17120   2.831   5.023  10.483 -1.6144 -1.2676 -0.2283
  154SAPE   H3S17121   2.790   4.895  10.358 -1.7976 -0.4608  0.8336
  154SAPE   C2417122   3.007   4.930  10.396 -0.2520  0.6394  0.1336
  154SAPE   H4R17123   3.027   4.826  10.362 -1.4739  0.6744 -0.7776
  154SAPE   H4S17124   3.071   4.951  10.484  0.8410  1.3322 -0.7953
  154SAPE   C2517125   3.025   5.032  10.285  0.4343  0.4448 -1.2705
  154SAPE   H5R17126   3.059   5.131  10.320  1.0351 -0.0847 -0.3208
  154SAPE   C2617127   3.015   5.010  10.150 -0.2996  0.0980 -0.2005
  154SAPE   H6R17128   3.025   5.097  10.084  0.7658 -1.4661 -2.2132
  154SAPE   C2717129   2.976   4.872  10.088 -0.2830 -0.5824  0.4047
  154SAPE   H7R17130   2.937   4.794  10.157  3.3250 -2.0380  1.0411
  154SAPE   H7S17131   3.064   4.820  10.045 -0.8162 -1.7899  0.7344
  154SAPE   C2817132   2.875   4.890   9.972 -0.1522 -0.7872 -0.3590
  154SAPE   H8R17133   2.772   4.916   9.998 -0.3818 -2.1219  0.1480
  154SAPE   C2917134   2.909   4.869   9.842 -0.2005  0.3836  0.1506
  154SAPE   H9R17135   2.839   4.906   9.766 -0.1359  1.7633  0.7390
  154SAPE  C21017136   3.044   4.821   9.797  0.1338 -0.0481  0.3774
  154SAPE  H10R17137   3.053   4.715   9.827 -0.1000 -1.0064 -2.5879
  154SAPE  H10S17138   3.116   4.892   9.844  1.8283  1.1489 -3.6180
  154SAPE  C21117139   3.081   4.816   9.648  0.3076 -0.2374  0.7651
  154SAPE  H11R17140   3.118   4.911   9.608 -1.1714 -0.0997 -0.3406
  154SAPE  C21217141   3.066   4.709   9.565  0.3245  0.7464 -0.2528
  154SAPE  H12R17142   3.125   4.708   9.473  2.0313  1.7584  0.7880
  154SAPE  C21317143   2.997   4.573   9.597  0.2348 -0.7012  0.1830
  154SAPE  H13R17144   2.917   4.551   9.522  0.5168 -0.2872 -0.2457
  154SAPE  H13S17145   2.945   4.578   9.695  1.5768  0.4088  0.8701
  154SAPE  C21417146   3.099   4.467   9.590  0.3070  0.3017  0.2747
  154SAPE  H14R17147   3.147   4.470   9.491 -0.5249  2.3606 -0.1097
  154SAPE  C21517148   3.140   4.388   9.693  0.4830 -0.2237  0.0016
  154SAPE  H15R17149   3.197   4.297   9.670 -0.2153 -0.7714  0.4435
  154SAPE  C21617150   3.101   4.395   9.837 -0.2641 -0.0989 -0.4921
  154SAPE  H16R17151   3.053   4.491   9.866 -1.0562 -0.9036  0.9925
  154SAPE  H16S17152   3.200   4.388   9.886 -0.9238 -0.5727  0.8253
  154SAPE  C21717153   3.026   4.269   9.882  0.4858 -0.6552 -0.6787
  154SAPE  H17R17154   3.071   4.174   9.847  0.1478 -0.8516 -0.5862
  154SAPE  H17S17155   2.926   4.280   9.834 -0.0372  0.1393  0.5349
  154SAPE  C21817156   2.987   4.262  10.034 -1.1095  0.1602  0.1093
  154SAPE  H18R17157   2.886   4.218  10.047 -1.4387  0.9880  0.4134
  154SAPE  H18S17158   2.984   4.365  10.075  1.7420 -0.2094  1.5057
  154SAPE  C21917159   3.084   4.176  10.119 -0.1979  0.5793 -0.0567
  154SAPE  H19R17160   3.189   4.204  10.099  0.1103 -0.2353  0.4087
  154SAPE  H19S17161   3.079   4.070  10.087 -2.3749 -0.6161  3.6147
  154SAPE  C22017162   3.060   4.200  10.275  0.5330 -0.0919  0.4752
  154SAPE  H20R17163   3.131   4.137  10.334 -0.0299 -0.3911  0.8514
  154SAPE  H20S17164   2.959   4.159  10.298 -0.5117  2.3440  0.5477
  154SAPE  H20T17165   3.076   4.306  10.303  1.3672 -0.3212  0.9142
  154SAPE   C3317166   3.480   5.008  10.361 -0.4210 -0.3097  0.5616
  154SAPE   H3X17167   3.562   4.938  10.389  1.2489  1.6343  0.7984
  154SAPE   H3Y17168   3.513   5.108  10.395 -2.0296  0.2840  0.4553
  154SAPE   C3417169   3.477   5.021  10.204 -0.0062 -0.0184  0.4252
  154SAPE   H4X17170   3.368   5.026  10.183 -0.6633  1.4226  3.4875
  154SAPE   H4Y17171   3.517   4.937  10.144 -1.9831  1.8957 -4.0657
  154SAPE   C3517172   3.559   5.141  10.141  0.3005  0.1673  0.1613
  154SAPE   H5X17173   3.666   5.113  10.155  0.5157  0.4836 -0.7783
  154SAPE   H5Y17174   3.537   5.239  10.188 -1.1404  0.4627 -1.0556
  154SAPE   C3617175   3.531   5.139   9.989  0.5894 -0.0685 -0.2040
  154SAPE   H6X17176   3.433   5.188   9.968 -0.1474 -0.7386  1.4381
  154SAPE   H6Y17177   3.523   5.033   9.958  0.9545 -0.5337  1.2051
  154SAPE   C3717178   3.644   5.211   9.909 -0.6082 -0.4043 -0.8024
  154SAPE   H7X17179   3.741   5.161   9.932 -1.4433 -0.6320  2.6448
  154SAPE   H7Y17180   3.654   5.315   9.946 -2.2045 -0.0659 -1.2603
  154SAPE   C3817181   3.602   5.217   9.763 -1.0521 -0.3273 -0.4920
  154SAPE   H8X17182   3.511   5.279   9.749 -0.2448  0.8277 -0.7952
  154SAPE   H8Y17183   3.578   5.121   9.713 -0.9754 -0.2917 -0.5975
  154SAPE   C3917184   3.715   5.280   9.672  0.1839 -0.1116 -0.6270
  154SAPE   H9X17185   3.811   5.235   9.704  0.0153  0.0649  0.1401
  154SAPE   H9Y17186   3.710   5.390   9.690  0.1191 -0.2280  0.0961
  154SAPE  C31017187   3.696   5.245   9.522 -0.3687 -0.4307  0.8897
  154SAPE  H10X17188   3.588   5.251   9.496  0.1432  1.2143 -1.1433
  154SAPE  H10Y17189   3.727   5.138   9.510 -2.1490 -1.0581  1.5454
  154SAPE  C31117190   3.776   5.336   9.434  0.4755  0.6443  0.2128
  154SAPE  H11X17191   3.883   5.308   9.444  0.7808  1.8556  0.5333
  154SAPE  H11Y17192   3.775   5.438   9.480 -0.1739 -0.0715  1.8872
  154SAPE  C31217193   3.720   5.350   9.298  0.7120 -0.0973 -0.1859
  154SAPE  H12X17194   3.622   5.403   9.302 -1.1719 -3.4074  1.0608
  154SAPE  H12Y17195   3.705   5.257   9.240  1.2415  0.8988 -2.0195
  154SAPE  C31317196   3.816   5.429   9.205  0.3220 -0.6152 -0.7374
  154SAPE  H13X17197   3.918   5.385   9.206  0.1419 -1.1043  1.8179
  154SAPE  H13Y17198   3.838   5.532   9.240 -2.0494 -0.3958  0.3032
  154SAPE  C31417199   3.762   5.457   9.060 -0.5227  0.0882 -0.0732
  154SAPE  H14X17200   3.836   5.526   9.013 -0.7026  0.2086 -0.1811
  154SAPE  H14Y17201   3.662   5.505   9.063  0.1038  1.5004 -0.7665
  154SAPE  C31517202   3.774   5.338   8.966  0.6252 -0.8053 -0.1036
  154SAPE  H15X17203   3.718   5.255   9.014 -1.0373  0.5821  0.4744
  154SAPE  H15Y17204   3.881   5.306   8.965  1.2104  0.7732  2.5870
  154SAPE  C31617205   3.719   5.353   8.824 -0.2158 -0.1610  0.0959
  154SAPE  H16X17206   3.751   5.444   8.769 -3.3874  1.6752  1.0050
  154SAPE  H16Y17207   3.609   5.369   8.823 -0.6924 -2.7684 -2.6490
  154SAPE  C31717208   3.749   5.235   8.730  0.4240 -0.4944  0.3718
  154SAPE  H17X17209   3.708   5.146   8.782 -1.1958 -0.3326 -0.5718
  154SAPE  H17Y17210   3.857   5.209   8.733  0.3597 -0.8716 -0.5084
  154SAPE  C31817211   3.694   5.241   8.588  0.0718  0.6077 -1.0276
  154SAPE  H18X17212   3.588   5.271   8.574 -0.2494 -0.3823 -0.7471
  154SAPE  H18Y17213   3.720   5.142   8.546  1.4039  0.5439 -0.1209
  154SAPE  H18Z17214   3.745   5.316   8.523 -0.6239  1.8716 -0.1756
  155SAPE     N17215   4.540   2.660  10.862  0.3553  0.0742 -0.2400
  155SAPE   HN117216   4.531   2.704  10.768  0.8757  1.6242  0.4027
  155SAPE   HN217217   4.623   2.697  10.914  0.6682 -1.3636  0.3332
  155SAPE   HN317218   4.533   2.557  10.850 -2.3807  0.2274 -0.5855
  155SAPE   C1217219   4.412   2.709  10.932 -0.4659 -0.1335  0.3475
  155SAPE  H12A17220   4.444   2.700  11.038  0.2547 -1.6544  0.0274
  155SAPE  H12B17221   4.328   2.636  10.924 -1.9504  1.6904 -1.7793
  155SAPE   C1117222   4.398   2.852  10.884  0.6727  0.1734 -0.6418
  155SAPE  H11A17223   4.326   2.897  10.956  0.8146  0.8353 -0.9101
  155SAPE  H11B17224   4.357   2.855  10.781 -0.4376 -0.1358 -0.2297
  155SAPE     P17225   4.529   3.072  10.947  0.2590 -0.3372 -0.1442
  155SAPE   O1317226   4.503   3.070  11.093 -0.4191  0.3181 -0.0343
  155SAPE   O1417227   4.654   3.128  10.897 -0.5927  0.0119 -0.2047
  155SAPE   O1217228   4.522   2.916  10.900 -0.2353 -0.7106 -0.2157
  155SAPE   O1117229   4.407   3.138  10.877 -0.0821  0.4641  0.1241
  155SAPE    C117230   4.417   3.217  10.756  0.5038  0.3495 -0.0113
  155SAPE    HA17231   4.386   3.320  10.783 -1.1520  0.3397 -1.6854
  155SAPE    HB17232   4.524   3.218  10.725  0.7296 -1.2747  0.5900
  155SAPE    C217233   4.344   3.150  10.640  0.2507  0.2644 -0.3746
  155SAPE    HS17234   4.365   3.043  10.658  4.0927  1.1168  1.4705
  155SAPE   O2117235   4.396   3.197  10.519  0.2925 -0.1667  0.9275
  155SAPE   C2117236   4.516   3.155  10.471  0.1366  0.5816  0.3726
  155SAPE   O2217237   4.574   3.058  10.515 -0.6868 -0.0857  0.3016
  155SAPE   C2217238   4.550   3.244  10.349 -0.5616 -0.3114  0.1784
  155SAPE   H2R17239   4.521   3.350  10.366 -2.1486 -0.6573 -0.2170
  155SAPE   H2S17240   4.657   3.230  10.322 -0.2405 -1.2581  1.7689
  155SAPE    C317241   4.182   3.165  10.652 -0.6163 -0.6193 -0.0172
  155SAPE    HX17242   4.170   3.275  10.651 -0.3432 -0.5782 -1.3975
  155SAPE    HY17243   4.140   3.122  10.745 -0.6054  1.5151  1.0079
  155SAPE   O3117244   4.114   3.109  10.539 -0.1113 -0.4876  0.6215
  155SAPE   C3117245   4.081   2.980  10.534  0.3381 -0.1717  0.0988
  155SAPE   O3217246   4.098   2.898  10.622 -0.6411 -0.4186 -0.2520
  155SAPE   C3217247   3.999   2.946  10.402  0.5024  0.0625  0.1376
  155SAPE   H2X17248   3.895   2.983  10.416  0.4180  0.3822 -1.2049
  155SAPE   H2Y17249   3.985   2.836  10.394  0.0215 -0.0616  2.0374
  155SAPE   C2317250   4.474   3.197  10.224  0.7727 -0.1218 -0.1191
  155SAPE   H3R17251   4.454   3.089  10.211 -1.6552  0.3600 -0.9629
  155SAPE   H3S17252   4.541   3.223  10.139 -1.9639  1.7827 -1.8568
  155SAPE   C2417253   4.337   3.268  10.190  0.6092 -0.1834  0.8878
  155SAPE   H4R17254   4.275   3.273  10.282  0.6212 -0.3095  0.9026
  155SAPE   H4S17255   4.276   3.212  10.116 -2.7051  0.6251  2.7678
  155SAPE   C2517256   4.362   3.411  10.138  0.1707 -0.0215 -0.9331
  155SAPE   H5R17257   4.366   3.484  10.220  0.6444 -1.8196  0.7098
  155SAPE   C2617258   4.355   3.458  10.011 -0.2406 -0.2743 -0.5971
  155SAPE   H6R17259   4.369   3.566   9.997  1.8421 -0.6059 -1.4960
  155SAPE   C2717260   4.329   3.384   9.880  0.0416 -0.1817  0.2300
  155SAPE   H7R17261   4.338   3.273   9.887 -1.0042 -0.5422 -2.7820
  155SAPE   H7S17262   4.403   3.397   9.798 -0.1236 -2.9652 -0.4721
  155SAPE   C2817263   4.193   3.421   9.829 -0.2737  0.7450  0.1822
  155SAPE   H8R17264   4.124   3.465   9.902  0.7301  1.6549  0.6173
  155SAPE   C2917265   4.161   3.402   9.697  0.2642  0.6055 -1.1062
  155SAPE   H9R17266   4.061   3.427   9.659  1.2787  1.3384 -3.5499
  155SAPE  C21017267   4.248   3.352   9.588 -0.6071  0.3490 -0.0938
  155SAPE  H10R17268   4.295   3.253   9.604  2.3877  0.7898 -4.4922
  155SAPE  H10S17269   4.326   3.431   9.582 -0.1005 -0.0562  0.8950
  155SAPE  C21117270   4.170   3.345   9.455 -0.5034  0.1146 -0.1698
  155SAPE  H11R17271   4.093   3.267   9.442 -0.1827 -0.2125 -0.1281
  155SAPE  C21217272   4.177   3.432   9.348  0.2516  0.4044  0.3917
  155SAPE  H12R17273   4.118   3.402   9.260  0.9870  1.8596 -0.6271
  155SAPE  C21317274   4.262   3.554   9.332 -0.8927 -0.3859  0.1606
  155SAPE  H13R17275   4.261   3.618   9.423  0.2084 -2.1797  1.5078
  155SAPE  H13S17276   4.208   3.611   9.254 -0.6593 -0.9625 -0.4309
  155SAPE  C21417277   4.404   3.524   9.300 -1.0450  0.3487 -0.3327
  155SAPE  H14R17278   4.453   3.456   9.371  0.0502  1.8789  0.4175
  155SAPE  C21517279   4.480   3.577   9.206 -0.1700 -0.0041  0.9873
  155SAPE  H15R17280   4.583   3.540   9.195 -0.9168 -1.6292 -1.4449
  155SAPE  C21617281   4.444   3.679   9.102 -0.6345 -0.0731 -0.3826
  155SAPE  H16R17282   4.361   3.747   9.130  1.2183  1.7342  1.0451
  155SAPE  H16S17283   4.403   3.616   9.020 -1.1299 -0.4396  0.1309
  155SAPE  C21717284   4.565   3.742   9.043 -0.1628  0.0036 -0.7919
  155SAPE  H17R17285   4.638   3.662   9.017 -0.5944 -1.1580  1.3033
  155SAPE  H17S17286   4.614   3.811   9.115 -1.8710  0.0093  0.4326
  155SAPE  C21817287   4.537   3.818   8.920 -0.4910 -0.1211  0.2758
  155SAPE  H18R17288   4.605   3.906   8.916  0.9318 -1.2130 -0.1752
  155SAPE  H18S17289   4.429   3.843   8.930  0.0423  1.5344  2.9892
  155SAPE  C21917290   4.570   3.743   8.790 -0.6308 -0.1236  0.2076
  155SAPE  H19R17291   4.481   3.678   8.772 -0.0005 -0.3121 -2.7660
  155SAPE  H19S17292   4.660   3.683   8.814 -0.2924  0.8839  1.6109
  155SAPE  C22017293   4.588   3.823   8.663 -1.0285  0.2516  0.4007
  155SAPE  H20R17294   4.674   3.893   8.673 -0.2981 -0.8846  2.8901
  155SAPE  H20S17295   4.495   3.869   8.624 -0.1206  0.5805 -1.4838
  155SAPE  H20T17296   4.607   3.752   8.579 -2.2926 -0.6264  0.8211
  155SAPE   C3317297   4.052   3.012  10.272 -0.0962  0.0274  0.3286
  155SAPE   H3X17298   4.161   3.029  10.286  0.2151 -1.9327  0.6834
  155SAPE   H3Y17299   4.000   3.109  10.259 -0.6747 -0.2818  0.3091
  155SAPE   C3417300   4.018   2.928  10.153 -0.8703 -0.0477 -0.3695
  155SAPE   H4X17301   3.910   2.903  10.150 -0.8557 -0.2022  0.2298
  155SAPE   H4Y17302   4.069   2.830  10.164 -1.1363 -0.0506  1.0592
  155SAPE   C3517303   4.058   3.000  10.024 -0.4148 -0.4241  0.4701
  155SAPE   H5X17304   4.166   3.027  10.034 -0.3620 -0.4511 -0.0129
  155SAPE   H5Y17305   4.011   3.100  10.031 -0.7020 -0.5718  0.6712
  155SAPE   C3617306   4.019   2.919   9.901 -1.0003  1.5436  0.5463
  155SAPE   H6X17307   3.908   2.913   9.895 -1.1304  0.7701  2.9351
  155SAPE   H6Y17308   4.073   2.822   9.904 -2.8516  0.3921 -0.9641
  155SAPE   C3717309   4.054   2.987   9.774 -0.0134 -0.4475 -0.2820
  155SAPE   H7X17310   4.162   2.969   9.755  0.2969  0.0316  0.9301
  155SAPE   H7Y17311   4.033   3.096   9.787  1.8712 -0.2329  1.5775
  155SAPE   C3817312   3.979   2.938   9.648 -0.0467 -0.8880  0.3278
  155SAPE   H8X17313   3.872   2.967   9.657  0.3446  1.4998 -1.6223
  155SAPE   H8Y17314   3.970   2.828   9.661 -1.0812 -0.6990  1.4051
  155SAPE   C3917315   4.036   2.975   9.509  0.0463 -0.2720  0.1420
  155SAPE   H9X17316   4.139   2.933   9.515 -0.6907 -2.4900 -1.3873
  155SAPE   H9Y17317   4.045   3.086   9.512 -0.8927 -0.1979  0.5813
  155SAPE  C31017318   3.960   2.919   9.388 -0.4919  0.2996  0.4074
  155SAPE  H10X17319   3.858   2.960   9.372 -1.0969 -0.5562  1.8625
  155SAPE  H10Y17320   3.944   2.812   9.414 -1.1333 -0.1655 -1.7142
  155SAPE  C31117321   4.037   2.918   9.255  0.4918 -0.4225  0.6531
  155SAPE  H11X17322   3.988   2.843   9.189 -1.2461  1.1084  0.1172
  155SAPE  H11Y17323   4.143   2.894   9.281  0.6145 -0.4503  0.1499
  155SAPE  C31217324   4.040   3.057   9.180  0.2540  0.3113 -0.2042
  155SAPE  H12X17325   4.107   3.039   9.092  0.2094 -1.0826  0.0231
  155SAPE  H12Y17326   4.078   3.142   9.239 -1.0678  0.3857  0.5667
  155SAPE  C31317327   3.901   3.087   9.113  0.2710  0.4653  0.6839
  155SAPE  H13X17328   3.845   3.130   9.199 -0.2885  2.7957 -0.7529
  155SAPE  H13Y17329   3.847   2.992   9.093 -2.4941  1.9732  0.4144
  155SAPE  C31417330   3.896   3.182   8.994  0.7058 -1.2860 -0.2045
  155SAPE  H14X17331   3.796   3.181   8.946 -0.1582 -0.1102  1.4826
  155SAPE  H14Y17332   3.958   3.140   8.912 -1.1936  0.3813 -2.6411
  155SAPE  C31517333   3.941   3.323   9.019 -0.1500 -0.6061 -0.0131
  155SAPE  H15X17334   4.046   3.314   9.053  0.6500 -0.8990 -2.4060
  155SAPE  H15Y17335   3.881   3.376   9.095  1.0582  0.7297  0.0421
  155SAPE  C31617336   3.943   3.411   8.897 -0.2460  0.1647 -0.1445
  155SAPE  H16X17337   3.856   3.389   8.831 -0.0747  2.5440 -1.2761
  155SAPE  H16Y17338   4.036   3.389   8.840  0.8738  0.7557  1.3915
  155SAPE  C31717339   3.945   3.559   8.928  0.5987  0.1849  0.5272
  155SAPE  H17X17340   3.875   3.587   9.009  0.5750 -0.4341  0.7197
  155SAPE  H17Y17341   3.911   3.613   8.837 -1.9808 -2.0622  0.0489
  155SAPE  C31817342   4.081   3.608   8.969 -0.0567 -0.0433 -0.3231
  155SAPE  H18X17343   4.073   3.717   8.991 -0.2497 -0.2576  0.6864
  155SAPE  H18Y17344   4.162   3.588   8.895 -1.0622 -1.7230 -1.0148
  155SAPE  H18Z17345   4.107   3.562   9.067 -0.7941  0.4430  0.1146
  156SAPE     N17346   6.284   0.883  10.622  0.4575 -0.3199 -0.7158
  156SAPE   HN117347   6.259   0.837  10.711  1.9569 -0.4548 -0.3561
  156SAPE   HN217348   6.240   0.847  10.535  0.8099 -1.9490 -0.2437
  156SAPE   HN317349   6.387   0.878  10.609  0.6180 -0.1726  0.3892
  156SAPE   C1217350   6.249   1.028  10.641  0.1072  0.5059 -0.2022
  156SAPE  H12A17351   6.264   1.070  10.539 -1.1891 -2.2188 -1.6411
  156SAPE  H12B17352   6.312   1.076  10.718 -1.5304 -1.2338  2.3760
  156SAPE   C1117353   6.109   1.038  10.690  0.4468  0.4065 -0.4573
  156SAPE  H11A17354   6.106   1.131  10.749 -2.3179 -0.4534  0.9296
  156SAPE  H11B17355   6.078   0.960  10.762  2.1130 -0.8334 -0.9948
  156SAPE     P17356   5.939   1.166  10.525  0.2747 -0.3784 -0.2537
  156SAPE   O1317357   5.901   1.251  10.641 -0.0006  0.1423  0.4261
  156SAPE   O1417358   6.016   1.237  10.416 -0.0272 -1.2048 -0.1145
  156SAPE   O1217359   6.020   1.041  10.574  0.3098 -0.1239  0.1956
  156SAPE   O1117360   5.803   1.103  10.472  0.1014 -0.5640  0.7752
  156SAPE    C117361   5.810   0.983  10.400  0.3752 -0.2160 -0.2755
  156SAPE    HA17362   5.905   0.972  10.345  0.9472  1.7689  0.2368
  156SAPE    HB17363   5.787   0.903  10.475 -0.5869  3.6229  3.9748
  156SAPE    C217364   5.690   0.986  10.295 -0.4884 -0.0871 -0.2545
  156SAPE    HS17365   5.677   0.892  10.237 -0.3114  0.0983 -0.5904
  156SAPE   O2117366   5.712   1.096  10.213  0.1128 -0.0508  0.2193
  156SAPE   C2117367   5.774   1.078  10.102  0.2332 -0.6657 -0.8169
  156SAPE   O2217368   5.819   0.977  10.057 -0.2256 -0.1915  0.2465
  156SAPE   C2217369   5.769   1.216  10.037  0.1573 -0.4634 -0.2580
  156SAPE   H2R17370   5.680   1.276  10.066  0.5546 -0.0404  0.0924
  156SAPE   H2S17371   5.863   1.263  10.072  0.7017 -0.2744 -1.8907
  156SAPE    C317372   5.562   1.020  10.368  0.2436  0.8802  0.7459
  156SAPE    HX17373   5.575   1.121  10.413 -0.7996  1.3277  0.0933
  156SAPE    HY17374   5.549   0.954  10.456 -3.4014  0.7644  0.2857
  156SAPE   O3117375   5.450   1.020  10.280  0.2876  0.0216 -0.3607
  156SAPE   C3117376   5.352   1.106  10.300  0.5054 -0.1797 -0.5052
  156SAPE   O3217377   5.346   1.185  10.394  0.3523 -0.1094  0.0920
  156SAPE   C3217378   5.244   1.089  10.192  0.0406 -0.8599 -0.4351
  156SAPE   H2X17379   5.178   1.178  10.196  0.6035 -0.4603  0.3545
  156SAPE   H2Y17380   5.191   0.994  10.215  1.0438 -1.0131  1.4775
  156SAPE   C2317381   5.770   1.212   9.881 -0.5319 -0.2971 -0.1460
  156SAPE   H3R17382   5.858   1.157   9.842  1.3729  3.0878 -0.9823
  156SAPE   H3S17383   5.787   1.317   9.849 -1.6446  0.5282  1.7637
  156SAPE   C2417384   5.640   1.172   9.816  0.1572  0.4358  0.0124
  156SAPE   H4R17385   5.576   1.260   9.791  0.4325  0.9641  1.1108
  156SAPE   H4S17386   5.574   1.111   9.880  0.0029  1.0563  0.4566
  156SAPE   C2517387   5.680   1.103   9.686  0.4230  0.4039 -0.5487
  156SAPE   H5R17388   5.731   1.006   9.697 -0.5366 -0.3440 -2.1351
  156SAPE   C2617389   5.658   1.157   9.561 -0.8670 -0.8435 -0.6945
  156SAPE   H6R17390   5.693   1.109   9.469  1.2361 -0.4842 -0.1483
  156SAPE   C2717391   5.593   1.289   9.542  0.5065  0.6447 -0.0675
  156SAPE   H7R17392   5.490   1.288   9.583 -0.4496  0.3613 -2.3479
  156SAPE   H7S17393   5.575   1.297   9.433  1.9704  0.5648 -0.3384
  156SAPE   C2817394   5.670   1.415   9.585 -0.1331  0.6274 -0.0158
  156SAPE   H8R17395   5.666   1.438   9.693  2.8475  0.8944  0.1070
  156SAPE   C2917396   5.735   1.496   9.507  0.5298 -0.4661  0.8111
  156SAPE   H9R17397   5.784   1.585   9.550 -1.8094  0.8885  0.8031
  156SAPE  C21017398   5.753   1.479   9.355 -0.1053 -0.2351  0.0498
  156SAPE  H10R17399   5.747   1.378   9.310  1.4136 -0.7143  0.8762
  156SAPE  H10S17400   5.857   1.508   9.332 -0.1978 -0.6389 -0.9164
  156SAPE  C21117401   5.644   1.563   9.287  0.3395  0.4233 -0.4380
  156SAPE  H11R17402   5.549   1.580   9.339 -0.0740 -0.6134 -0.8250
  156SAPE  C21217403   5.653   1.615   9.162 -0.5874  0.4402 -0.4860
  156SAPE  H12R17404   5.574   1.683   9.127  0.5156  1.7792 -0.5054
  156SAPE  C21317405   5.772   1.609   9.069 -0.6269 -0.3769  0.5027
  156SAPE  H13R17406   5.829   1.516   9.090  0.2856  0.3955  1.5939
  156SAPE  H13S17407   5.850   1.685   9.090 -0.7597  0.2360 -1.0961
  156SAPE  C21417408   5.745   1.615   8.926 -0.2373 -0.0887  0.0406
  156SAPE  H14R17409   5.706   1.523   8.879  1.6863 -1.3657  0.8080
  156SAPE  C21517410   5.779   1.720   8.848  0.2949  0.5183 -0.2357
  156SAPE  H15R17411   5.769   1.708   8.739  3.2482  0.0949 -0.5477
  156SAPE  C21617412   5.839   1.851   8.888 -0.7301 -0.6475 -0.9490
  156SAPE  H16R17413   5.859   1.869   8.996 -2.1654  0.2304 -0.8068
  156SAPE  H16S17414   5.774   1.935   8.858  0.1378  0.1130 -0.7262
  156SAPE  C21717415   5.973   1.873   8.815 -0.3449 -0.1562  0.0267
  156SAPE  H17R17416   6.030   1.778   8.805  0.0255  0.1787 -1.2643
  156SAPE  H17S17417   6.034   1.940   8.879 -0.4563 -0.4826  0.4776
  156SAPE  C21817418   5.958   1.940   8.678  0.0971  0.0873 -0.1998
  156SAPE  H18R17419   5.863   1.901   8.635 -0.4036 -2.0057  2.5268
  156SAPE  H18S17420   6.046   1.903   8.621  0.9596  3.1686 -1.0477
  156SAPE  C21917421   5.980   2.096   8.688  0.2710  0.2360 -0.3363
  156SAPE  H19R17422   6.082   2.111   8.728  0.0901 -2.5769  1.4536
  156SAPE  H19S17423   5.899   2.132   8.754 -0.2579 -1.7640  0.1797
  156SAPE  C22017424   5.964   2.158   8.547 -0.1272  0.2702  0.9806
  156SAPE  H20R17425   5.866   2.148   8.496  1.0418 -0.4564 -1.2526
  156SAPE  H20S17426   6.031   2.112   8.471 -1.1203  2.4287 -1.3270
  156SAPE  H20T17427   5.982   2.267   8.561 -2.4077  0.6311  1.3981
  156SAPE   C3317428   5.301   1.074  10.045  0.4969  0.2712 -0.1460
  156SAPE   H3X17429   5.405   1.037  10.037  1.2996  2.5577 -1.5096
  156SAPE   H3Y17430   5.295   1.180  10.011 -1.7116 -0.0591 -0.9658
  156SAPE   C3417431   5.193   1.010   9.952 -0.9604  0.4473  0.0118
  156SAPE   H4X17432   5.100   1.068   9.971  0.3847  2.0582  2.2697
  156SAPE   H4Y17433   5.173   0.904   9.978 -1.1309  0.2449 -0.9299
  156SAPE   C3517434   5.242   1.009   9.803  0.0938 -0.2078 -0.2736
  156SAPE   H5X17435   5.177   0.936   9.751 -1.5075 -1.4972  3.2482
  156SAPE   H5Y17436   5.347   0.978   9.787 -0.5882 -2.1399 -1.2396
  156SAPE   C3617437   5.219   1.142   9.737 -1.0661 -0.1938 -0.4471
  156SAPE   H6X17438   5.295   1.212   9.779 -0.7596 -1.5539  1.4128
  156SAPE   H6Y17439   5.116   1.174   9.764 -0.4430  1.1827  0.4579
  156SAPE   C3717440   5.238   1.145   9.586  0.0605 -0.7415 -0.3980
  156SAPE   H7X17441   5.167   1.076   9.537 -1.4423  1.3194 -1.2898
  156SAPE   H7Y17442   5.344   1.120   9.566  0.0422  1.1331 -3.3058
  156SAPE   C3817443   5.223   1.292   9.530  0.3991 -0.5665 -0.2007
  156SAPE   H8X17444   5.306   1.356   9.567 -0.6397  1.8313 -1.7317
  156SAPE   H8Y17445   5.127   1.340   9.559  0.6889  0.0015 -0.1534
  156SAPE   C3917446   5.228   1.306   9.380 -0.9974 -0.7204  0.4662
  156SAPE   H9X17447   5.134   1.260   9.341 -0.5441 -2.9294  1.7773
  156SAPE   H9Y17448   5.317   1.247   9.350  0.3124  0.7753  1.2795
  156SAPE  C31017449   5.245   1.451   9.346  0.0267  0.5701 -0.9993
  156SAPE  H10X17450   5.342   1.483   9.390  0.1282 -2.0600  0.8937
  156SAPE  H10Y17451   5.164   1.507   9.397  0.3284  0.2393 -0.1450
  156SAPE  C31117452   5.245   1.482   9.197 -0.3901  0.2349 -0.2736
  156SAPE  H11X17453   5.330   1.429   9.150 -1.9133 -1.3426 -1.3693
  156SAPE  H11Y17454   5.267   1.591   9.187  1.5546  0.0611  1.4132
  156SAPE  C31217455   5.110   1.448   9.126  0.3580 -0.2696 -0.1901
  156SAPE  H12X17456   5.091   1.339   9.129  0.6868 -0.3672 -1.2290
  156SAPE  H12Y17457   5.121   1.473   9.018 -1.3480  1.0360 -0.1035
  156SAPE  C31317458   4.990   1.515   9.184  0.5515  0.2087 -0.5145
  156SAPE  H13X17459   5.022   1.619   9.208 -0.9887  0.1691  1.9914
  156SAPE  H13Y17460   4.982   1.466   9.283 -1.9864  0.5128 -0.5038
  156SAPE  C31417461   4.867   1.524   9.099  0.0108 -0.0010 -0.0144
  156SAPE  H14X17462   4.880   1.585   9.007  0.0177  0.4446  0.2773
  156SAPE  H14Y17463   4.778   1.562   9.153 -0.3500 -1.5486  0.5425
  156SAPE  C31517464   4.816   1.389   9.042 -0.7572 -0.3244 -0.5613
  156SAPE  H15X17465   4.773   1.324   9.122  2.6779 -0.5814  1.2779
  156SAPE  H15Y17466   4.903   1.325   9.015 -1.1935 -0.8596 -0.7245
  156SAPE  C31617467   4.714   1.415   8.934 -0.5430 -0.7124 -0.2016
  156SAPE  H16X17468   4.769   1.455   8.846  2.7370 -0.0820  2.0118
  156SAPE  H16Y17469   4.645   1.498   8.963  0.9669  0.6314 -0.3345
  156SAPE  C31717470   4.627   1.290   8.890 -0.1647 -0.6363  0.0506
  156SAPE  H17X17471   4.542   1.331   8.832 -0.0123  0.1053  0.3353
  156SAPE  H17Y17472   4.596   1.247   8.988 -0.2765  1.6825  1.1003
  156SAPE  C31817473   4.708   1.193   8.803 -0.0006  0.2644  0.0268
  156SAPE  H18X17474   4.641   1.106   8.787 -0.9983  0.9983  0.1397
  156SAPE  H18Y17475   4.805   1.161   8.846  0.3516  0.6837 -0.4543
  156SAPE  H18Z17476   4.744   1.239   8.709  2.1822 -1.0446  0.1544
  157SAPE     N17477   5.836   1.545  11.349 -0.6553  0.5028  0.5587
  157SAPE   HN117478   5.776   1.498  11.421  0.2026  0.2499  1.1195
  157SAPE   HN217479   5.805   1.524  11.252 -1.6965  2.4254  0.4227
  157SAPE   HN317480   5.932   1.506  11.349 -0.4378  1.0145 -0.5131
  157SAPE   C1217481   5.835   1.700  11.360  0.0403 -0.3732 -0.2830
  157SAPE  H12A17482   5.866   1.724  11.464  2.1949 -0.7917 -0.7816
  157SAPE  H12B17483   5.736   1.740  11.331  0.1796 -1.4896 -2.5130
  157SAPE   C1117484   5.945   1.746  11.261  1.0206  0.0990  0.6214
  157SAPE  H11A17485   5.975   1.850  11.289  0.3607  0.4785 -0.0505
  157SAPE  H11B17486   5.892   1.742  11.163  3.1314 -2.8426 -0.5476
  157SAPE     P17487   6.188   1.686  11.187  0.0696 -0.1357 -0.1392
  157SAPE   O1317488   6.240   1.816  11.234  0.3166  0.0973 -0.1288
  157SAPE   O1417489   6.279   1.563  11.201 -0.0471  0.1463 -0.1564
  157SAPE   O1217490   6.056   1.659  11.263 -0.5458 -0.0799  0.1452
  157SAPE   O1117491   6.133   1.705  11.041  0.2622  0.1581  0.0443
  157SAPE    C117492   6.109   1.583  10.963 -0.1893 -0.2931  0.2648
  157SAPE    HA17493   6.082   1.494  11.024  0.6851 -1.1299 -0.5540
  157SAPE    HB17494   6.018   1.601  10.900 -0.9448  0.5312  1.5391
  157SAPE    C217495   6.217   1.561  10.857 -0.0666  0.9789  0.1810
  157SAPE    HS17496   6.302   1.511  10.910 -0.2886  1.4659  1.0127
  157SAPE   O2117497   6.267   1.686  10.808 -0.5157 -0.1570 -0.3217
  157SAPE   C2117498   6.381   1.730  10.854  0.0915 -0.9999 -0.1431
  157SAPE   O2217499   6.467   1.669  10.918  0.5717 -0.4056  0.1507
  157SAPE   C2217500   6.417   1.873  10.802  0.5366  0.0259  0.2693
  157SAPE   H2R17501   6.341   1.946  10.836  0.4309  0.3405 -0.6324
  157SAPE   H2S17502   6.507   1.893  10.865 -0.5684  0.7114  1.6972
  157SAPE    C317503   6.161   1.464  10.750  0.5631  0.2041  0.3355
  157SAPE    HX17504   6.067   1.508  10.712  1.2138  1.5452  0.2114
  157SAPE    HY17505   6.140   1.363  10.791 -2.7294  0.0508 -1.4641
  157SAPE   O3117506   6.261   1.434  10.650 -0.1315 -0.7300  0.6543
  157SAPE   C3117507   6.240   1.496  10.534 -0.2335  0.6592 -0.8922
  157SAPE   O3217508   6.148   1.572  10.507  0.0386 -0.1279  0.0891
  157SAPE   C3217509   6.368   1.457  10.447  0.2766  0.1401  0.1368
  157SAPE   H2X17510   6.361   1.347  10.441  3.6910 -0.2282  0.9873
  157SAPE   H2Y17511   6.457   1.494  10.502 -0.5897  0.2211  1.5216
  157SAPE   C2317512   6.456   1.894  10.652 -0.0089  0.1405  0.4712
  157SAPE   H3R17513   6.511   1.809  10.606  2.4769  0.6418  2.2857
  157SAPE   H3S17514   6.521   1.984  10.655 -0.3849  0.4499 -0.5819
  157SAPE   C2417515   6.325   1.925  10.573 -0.4381  0.1781 -0.0002
  157SAPE   H4R17516   6.265   1.832  10.586 -0.1133 -0.1334 -0.7131
  157SAPE   H4S17517   6.354   1.936  10.467  0.2293  0.2160  0.1830
  157SAPE   C2517518   6.244   2.051  10.611 -0.0591  0.6677 -1.0396
  157SAPE   H5R17519   6.171   2.047  10.693 -1.0018  0.7013 -1.8607
  157SAPE   C2617520   6.272   2.178  10.572 -0.0356  0.1875  0.0234
  157SAPE   H6R17521   6.216   2.267  10.605  1.5805  1.7201 -1.1866
  157SAPE   C2717522   6.391   2.223  10.483  0.5203  0.0447 -0.3826
  157SAPE   H7R17523   6.339   2.255  10.390 -0.9886  1.6071  0.9326
  157SAPE   H7S17524   6.465   2.141  10.471  0.7256 -0.1414  1.7605
  157SAPE   C2817525   6.476   2.335  10.534  0.3165  0.2629  2.0589
  157SAPE   H8R17526   6.503   2.341  10.640 -0.1838  1.0150  2.1550
  157SAPE   C2917527   6.509   2.445  10.447 -0.3282 -0.3424  0.0746
  157SAPE   H9R17528   6.560   2.529  10.495 -0.4267 -2.3165  4.0076
  157SAPE  C21017529   6.475   2.465  10.300 -0.2092  0.8761  0.2546
  157SAPE  H10R17530   6.401   2.545  10.278  0.8736  1.4841 -1.3828
  157SAPE  H10S17531   6.437   2.373  10.251 -0.2540  0.4853  1.0185
  157SAPE  C21117532   6.595   2.511  10.220  0.0579  1.0945 -0.7450
  157SAPE  H11R17533   6.623   2.613  10.248  0.1552  1.4430 -2.0250
  157SAPE  C21217534   6.683   2.424  10.149  0.2864 -0.7571  0.1213
  157SAPE  H12R17535   6.773   2.461  10.097  0.2206 -0.9159 -0.1068
  157SAPE  C21317536   6.660   2.269  10.144 -0.1198  0.2123  0.1089
  157SAPE  H13R17537   6.621   2.243  10.245 -1.0818  1.4134  0.0649
  157SAPE  H13S17538   6.759   2.217  10.145  0.8392  1.8165 -2.6054
  157SAPE  C21417539   6.573   2.225  10.024  0.2268 -0.0106  0.0123
  157SAPE  H14R17540   6.466   2.242  10.040  0.4045  2.1359 -0.8033
  157SAPE  C21517541   6.614   2.175   9.909  0.3996 -0.7617  0.0301
  157SAPE  H15R17542   6.542   2.150   9.830  0.8630  0.9861 -1.0160
  157SAPE  C21617543   6.757   2.157   9.884 -0.6581 -0.1650  0.0877
  157SAPE  H16R17544   6.806   2.063   9.919 -1.5343 -0.3496  0.8503
  157SAPE  H16S17545   6.826   2.232   9.930  0.9252  0.3874 -2.9626
  157SAPE  C21717546   6.786   2.170   9.731  0.6849 -0.6668  0.8471
  157SAPE  H17R17547   6.753   2.079   9.677  0.7292 -1.4475  2.1132
  157SAPE  H17S17548   6.896   2.179   9.717  0.7781 -1.6638  0.8942
  157SAPE  C21817549   6.729   2.303   9.671 -0.1043 -0.0146 -0.2002
  157SAPE  H18R17550   6.729   2.380   9.751 -1.8029  1.6724 -1.7305
  157SAPE  H18S17551   6.619   2.291   9.660 -0.2604  0.7677  0.3958
  157SAPE  C21917552   6.791   2.362   9.541 -0.4687 -0.3944  0.5260
  157SAPE  H19R17553   6.889   2.406   9.571 -0.7007 -1.2689  2.7287
  157SAPE  H19S17554   6.723   2.442   9.503  0.0549 -0.2763 -0.1917
  157SAPE  C22017555   6.806   2.256   9.427  0.1615  0.0136  0.5610
  157SAPE  H20R17556   6.835   2.300   9.329 -1.1854 -1.6724 -0.6636
  157SAPE  H20S17557   6.714   2.194   9.415  1.6036 -1.7778 -2.3422
  157SAPE  H20T17558   6.883   2.180   9.448 -0.3507 -0.4970  0.6166
  157SAPE   C3317559   6.363   1.521  10.310 -0.2312 -0.1507  0.1744
  157SAPE   H3X17560   6.280   1.489  10.244 -0.1923 -1.0397  0.5480
  157SAPE   H3Y17561   6.443   1.480  10.245 -1.3634  1.3104 -2.2889
  157SAPE   C3417562   6.362   1.675  10.310  0.3345 -0.0467  0.2599
  157SAPE   H4X17563   6.416   1.705  10.402  0.5297 -0.5613  0.3167
  157SAPE   H4Y17564   6.257   1.710  10.312  0.0802 -0.6412 -1.2903
  157SAPE   C3517565   6.440   1.734  10.195 -0.0839 -0.2954  0.4408
  157SAPE   H5X17566   6.526   1.666  10.178 -0.3865 -0.6606  0.3592
  157SAPE   H5Y17567   6.478   1.834  10.225  1.4845 -0.1656 -1.6956
  157SAPE   C3617568   6.364   1.754  10.067  0.5603 -0.0618 -0.5651
  157SAPE   H6X17569   6.280   1.827  10.076 -0.2848 -1.1498  0.7943
  157SAPE   H6Y17570   6.315   1.656  10.048 -1.8490  0.5212  1.9747
  157SAPE   C3717571   6.459   1.793   9.950  0.2198 -0.2236 -0.6817
  157SAPE   H7X17572   6.518   1.706   9.915  2.0741  1.0708 -0.9372
  157SAPE   H7Y17573   6.533   1.862   9.994 -0.3173  0.0321 -0.1639
  157SAPE   C3817574   6.384   1.857   9.836 -0.5996  0.3205  0.0751
  157SAPE   H8X17575   6.341   1.950   9.879  1.3387  1.1408  0.3205
  157SAPE   H8Y17576   6.293   1.799   9.808 -0.9611 -0.4261  2.5726
  157SAPE   C3917577   6.468   1.884   9.709  0.6002  0.1793 -0.4989
  157SAPE   H9X17578   6.497   1.777   9.696 -1.4843 -0.7522  1.7624
  157SAPE   H9Y17579   6.560   1.936   9.743  1.5564 -3.2304  2.8015
  157SAPE  C31017580   6.394   1.938   9.581 -0.1438 -0.2123  0.4325
  157SAPE  H10X17581   6.341   2.032   9.610  1.3374  1.2511 -1.3006
  157SAPE  H10Y17582   6.328   1.866   9.529 -0.6529 -0.7183  1.7246
  157SAPE  C31117583   6.500   1.986   9.477  0.8195 -0.1170 -0.0325
  157SAPE  H11X17584   6.562   2.062   9.530  1.8701 -0.6060 -0.5271
  157SAPE  H11Y17585   6.470   2.019   9.376 -0.1852 -2.4885 -0.5669
  157SAPE  C31217586   6.599   1.877   9.460 -0.8923 -0.9359 -0.1313
  157SAPE  H12X17587   6.545   1.780   9.462 -1.8853 -0.3803  0.6682
  157SAPE  H12Y17588   6.676   1.863   9.539 -1.7176 -2.0536  0.4961
  157SAPE  C31317589   6.674   1.882   9.323  0.5143 -0.1936  1.0060
  157SAPE  H13X17590   6.767   1.821   9.326  1.5371  1.3383  1.4656
  157SAPE  H13Y17591   6.710   1.982   9.294 -1.3113 -0.4781 -3.0031
  157SAPE  C31417592   6.581   1.834   9.211  0.0699  0.1998 -0.4338
  157SAPE  H14X17593   6.502   1.904   9.175  0.9495  1.6986  0.4263
  157SAPE  H14Y17594   6.548   1.732   9.239  0.2350  0.0862 -0.6423
  157SAPE  C31517595   6.666   1.810   9.087  0.2309  0.0061 -0.4181
  157SAPE  H15X17596   6.733   1.723   9.097 -0.0079 -0.2212 -0.7773
  157SAPE  H15Y17597   6.724   1.904   9.069  0.4022  0.1245  0.6677
  157SAPE  C31617598   6.594   1.801   8.955  0.3808  0.1814 -1.0079
  157SAPE  H16X17599   6.551   1.897   8.921 -0.1915 -0.1191 -1.1347
  157SAPE  H16Y17600   6.521   1.718   8.955  0.6558 -0.1183  0.8443
  157SAPE  C31717601   6.689   1.752   8.840 -0.5582  0.5573 -0.4638
  157SAPE  H17X17602   6.622   1.721   8.757 -0.4248 -2.5438  0.4476
  157SAPE  H17Y17603   6.734   1.653   8.866  1.2888  1.4070 -0.2487
  157SAPE  C31817604   6.797   1.851   8.790  0.6797 -0.0664 -0.3007
  157SAPE  H18X17605   6.760   1.896   8.695 -2.2935  0.2106  0.8579
  157SAPE  H18Y17606   6.898   1.808   8.776  1.1827  0.8280  0.4608
  157SAPE  H18Z17607   6.807   1.933   8.864  0.2518 -0.1392 -0.1585
  158SAPE     N17608   0.507   4.664  10.999  0.2888 -0.5120  0.2350
  158SAPE   HN117609   0.500   4.607  10.912 -3.6020 -1.0009  0.7019
  158SAPE   HN217610   0.477   4.761  10.977  0.0745  0.4913  4.2751
  158SAPE   HN317611   0.607   4.678  11.026 -0.0615 -0.6558  1.6576
  158SAPE   C1217612   0.425   4.611  11.114  0.4185 -0.6053 -0.7041
  158SAPE  H12A17613   0.381   4.702  11.158  1.6692 -0.5260  0.4448
  158SAPE  H12B17614   0.487   4.583  11.201 -2.1148 -0.0725  1.3853
  158SAPE   C1117615   0.319   4.508  11.069 -0.4360  0.2354  0.1211
  158SAPE  H11A17616   0.256   4.483  11.157  0.9467 -3.0887  0.3060
  158SAPE  H11B17617   0.361   4.409  11.040  0.4382  0.3623  0.8772
  158SAPE     P17618   0.125   4.513  10.901  0.3186 -0.0340 -0.2877
  158SAPE   O1317619   0.010   4.506  11.000 -0.3917  0.5576 -0.2694
  158SAPE   O1417620   0.101   4.606  10.787 -0.9515  0.4677 -0.2350
  158SAPE   O1217621   0.246   4.575  10.966  0.0198 -0.9167  0.3885
  158SAPE   O1117622   0.163   4.372  10.851 -0.3092  0.0651 -0.1164
  158SAPE    C117623   0.259   4.356  10.749 -0.7685 -0.8730  0.3934
  158SAPE    HA17624   0.307   4.454  10.726 -0.4914 -1.3496 -1.2483
  158SAPE    HB17625   0.328   4.276  10.782 -1.0410 -0.4341  2.1289
  158SAPE    C217626   0.202   4.306  10.609 -0.2942 -0.4323 -0.4230
  158SAPE    HS17627   0.151   4.212  10.638  1.4867 -1.0258  1.0440
  158SAPE   O2117628   0.317   4.285  10.521  0.9629  0.5183 -0.4826
  158SAPE   C2117629   0.308   4.187  10.426 -0.8590 -0.2184  0.5492
  158SAPE   O2217630   0.230   4.098  10.427 -1.1089  0.1221  0.3938
  158SAPE   C2217631   0.416   4.216  10.313  0.2285  0.0900  0.2477
  158SAPE   H2R17632   0.457   4.319  10.318 -1.7602  0.9063  0.7100
  158SAPE   H2S17633   0.500   4.144  10.325  1.0548  0.6629 -1.7358
  158SAPE    C317634   0.084   4.396  10.548 -0.2832  0.0364  0.0962
  158SAPE    HX17635   0.120   4.501  10.548  0.7685 -0.2776 -1.6708
  158SAPE    HY17636   0.002   4.387  10.623  0.6235 -0.4239  1.0528
  158SAPE   O3117637   0.035   4.358  10.414  0.2371 -0.1465 -0.4449
  158SAPE   C3117638  -0.057   4.260  10.413 -0.2223  0.3275 -0.2985
  158SAPE   O3217639  -0.069   4.181  10.507  0.1601 -0.1311 -0.0569
  158SAPE   C3217640  -0.131   4.272  10.285  0.1168 -0.4592 -0.5356
  158SAPE   H2X17641  -0.172   4.375  10.275 -1.0665 -0.9558 -0.9597
  158SAPE   H2Y17642  -0.224   4.213  10.304  0.6283 -1.2795 -0.5487
  158SAPE   C2317643   0.351   4.193  10.174 -0.4377 -0.4335  0.5730
  158SAPE   H3R17644   0.296   4.287  10.151 -0.4414 -0.6614 -0.3967
  158SAPE   H3S17645   0.271   4.116  10.173 -0.4693 -0.5989 -3.6781
  158SAPE   C2417646   0.443   4.142  10.062  0.3684  0.7711  0.3767
  158SAPE   H4R17647   0.439   4.031  10.060 -0.2010  0.7422  1.8004
  158SAPE   H4S17648   0.549   4.176  10.072  1.5644 -1.1330 -3.7267
  158SAPE   C2517649   0.395   4.203   9.929 -0.0977  0.2445 -0.1455
  158SAPE   H5R17650   0.363   4.307   9.947 -0.3491  0.4050 -1.4246
  158SAPE   C2617651   0.402   4.151   9.803  0.6612  0.0500 -0.5623
  158SAPE   H6R17652   0.354   4.208   9.722 -2.0127 -0.5489  0.4912
  158SAPE   C2717653   0.457   4.015   9.776  0.2198  0.6335 -0.6945
  158SAPE   H7R17654   0.372   3.944   9.767 -0.3970  1.5084 -2.2581
  158SAPE   H7S17655   0.521   3.982   9.861 -1.3910  0.2724  0.4218
  158SAPE   C2817656   0.551   4.009   9.656 -0.1613  0.3363 -0.7366
  158SAPE   H8R17657   0.652   4.016   9.699 -0.7955  2.2072  0.6293
  158SAPE   C2917658   0.516   4.008   9.523  0.3373 -0.1883 -0.6689
  158SAPE   H9R17659   0.590   4.017   9.442 -2.1026  0.4674 -2.9361
  158SAPE  C21017660   0.369   4.002   9.477  0.2090 -0.1055  0.6030
  158SAPE  H10R17661   0.303   3.996   9.566  0.1673  2.6454  0.8210
  158SAPE  H10S17662   0.349   3.907   9.422 -1.3569  0.6752 -0.2497
  158SAPE  C21117663   0.347   4.123   9.385 -0.2023 -0.1160  0.3294
  158SAPE  H11R17664   0.342   4.224   9.427 -0.8754  0.4579 -1.0879
  158SAPE  C21217665   0.346   4.121   9.248  0.2850 -0.1638 -0.1749
  158SAPE  H12R17666   0.334   4.217   9.195  0.1652  0.8925  1.6962
  158SAPE  C21317667   0.373   4.000   9.161  0.6287 -0.0220  0.3673
  158SAPE  H13R17668   0.278   3.942   9.159 -2.4574  4.4434  1.8765
  158SAPE  H13S17669   0.457   3.941   9.203 -0.0925 -0.2991  1.4603
  158SAPE  C21417670   0.411   4.052   9.018  0.0184  0.2710  0.2325
  158SAPE  H14R17671   0.514   4.092   9.016 -0.9213  2.9343  1.3460
  158SAPE  C21517672   0.333   4.046   8.910 -0.3473 -0.1848 -0.0207
  158SAPE  H15R17673   0.376   4.081   8.816  1.2414  0.0094  0.7441
  158SAPE  C21617674   0.193   3.994   8.905  0.0297  0.3100 -0.3037
  158SAPE  H16R17675   0.124   4.046   8.835 -1.8016  2.8567  3.0899
  158SAPE  H16S17676   0.140   4.022   8.999 -0.7994  0.7007 -0.8755
  158SAPE  C21717677   0.197   3.841   8.889  0.7226  0.7731  0.3210
  158SAPE  H17R17678   0.287   3.803   8.943  0.0631 -1.6580 -0.1402
  158SAPE  H17S17679   0.196   3.809   8.783  0.3521 -1.5842  0.9721
  158SAPE  C21817680   0.074   3.773   8.956  0.0148  0.2132 -0.0186
  158SAPE  H18R17681   0.025   3.845   9.026  0.6818 -1.2653  2.0529
  158SAPE  H18S17682   0.118   3.686   9.008  0.0944 -0.5528 -1.3171
  158SAPE  C21917683  -0.020   3.728   8.838  0.1155 -0.4498  0.1276
  158SAPE  H19R17684   0.045   3.660   8.779 -1.6715 -1.4369 -0.8095
  158SAPE  H19S17685  -0.058   3.811   8.774  1.2872 -1.8245 -2.5299
  158SAPE  C22017686  -0.144   3.640   8.871  0.0188 -0.2247 -0.4554
  158SAPE  H20R17687  -0.121   3.552   8.934 -3.8718 -1.2480 -0.1573
  158SAPE  H20S17688  -0.188   3.610   8.774 -0.1621 -1.2597 -0.0659
  158SAPE  H20T17689  -0.226   3.695   8.923 -0.5065  0.2272 -1.7224
  158SAPE   C3317690  -0.057   4.207  10.163  0.0201  0.5269  0.2919
  158SAPE   H3X17691  -0.036   4.102  10.192  0.8104  0.4673 -0.4676
  158SAPE   H3Y17692   0.037   4.257  10.132 -0.9163  1.4088 -1.2585
  158SAPE   C3417693  -0.154   4.199  10.045 -0.0140 -0.2537 -0.0395
  158SAPE   H4X17694  -0.168   4.309  10.029  1.3242 -0.2407 -1.3636
  158SAPE   H4Y17695  -0.251   4.158  10.079  1.5031 -1.3655  3.3329
  158SAPE   C3517696  -0.101   4.136   9.915 -0.7436  0.1624 -0.1394
  158SAPE   H5X17697  -0.084   4.027   9.924  1.9226  0.6982  2.7987
  158SAPE   H5Y17698   0.001   4.180   9.909 -1.0819  1.7526  3.1904
  158SAPE   C3617699  -0.186   4.173   9.790  0.5307 -0.9905  0.0097
  158SAPE   H6X17700  -0.190   4.283   9.803 -3.3725 -1.2560  2.5249
  158SAPE   H6Y17701  -0.288   4.130   9.790  0.7458 -1.5304  0.8044
  158SAPE   C3717702  -0.133   4.113   9.662 -0.6311 -0.5436 -0.5320
  158SAPE   H7X17703  -0.138   4.003   9.674 -0.6857 -0.6744 -1.6753
  158SAPE   H7Y17704  -0.025   4.139   9.662 -0.5412 -0.9130 -0.3121
  158SAPE   C3817705  -0.212   4.149   9.542  0.6877 -0.7062  0.7311
  158SAPE   H8X17706  -0.218   4.259   9.530 -1.8429 -0.9706 -1.3600
  158SAPE   H8Y17707  -0.320   4.124   9.542  0.0876  1.4220 -1.8329
  158SAPE   C3917708  -0.148   4.109   9.415 -0.3919 -0.3006 -0.2795
  158SAPE   H9X17709  -0.149   3.998   9.412  0.9941 -0.3745  0.6644
  158SAPE   H9Y17710  -0.038   4.120   9.406 -0.2897 -1.1580 -0.2302
  158SAPE  C31017711  -0.209   4.176   9.290  1.2607 -0.5858 -0.3566
  158SAPE  H10X17712  -0.226   4.285   9.309 -0.4681 -0.4655 -2.2642
  158SAPE  H10Y17713  -0.315   4.146   9.276  1.1800  0.1344 -1.4280
  158SAPE  C31117714  -0.139   4.153   9.156  0.1667 -1.2833  0.1166
  158SAPE  H11X17715  -0.143   4.045   9.134 -1.8726 -1.2638  0.1747
  158SAPE  H11Y17716  -0.035   4.189   9.166  0.1108 -1.1782  0.3169
  158SAPE  C31217717  -0.200   4.240   9.048  0.7906 -0.1451 -0.1273
  158SAPE  H12X17718  -0.187   4.349   9.067 -0.8725 -0.0620  0.7648
  158SAPE  H12Y17719  -0.307   4.208   9.049  0.9262 -0.6471 -1.1066
  158SAPE  C31317720  -0.144   4.214   8.908 -0.0267 -0.3845  0.0120
  158SAPE  H13X17721  -0.179   4.113   8.877 -0.6238  0.0524 -0.7659
  158SAPE  H13Y17722  -0.034   4.199   8.917 -0.0877 -1.4366 -0.8147
  158SAPE  C31417723  -0.180   4.313   8.803 -0.2165 -0.2017 -0.1775
  158SAPE  H14X17724  -0.190   4.414   8.848 -0.6263  0.8461 -2.4387
  158SAPE  H14Y17725  -0.280   4.287   8.763 -0.5896  2.0459 -0.8708
  158SAPE  C31517726  -0.062   4.328   8.696  0.1319  0.0444 -0.0250
  158SAPE  H15X17727  -0.041   4.229   8.649  0.0623  0.4420 -0.8979
  158SAPE  H15Y17728   0.027   4.369   8.749 -0.5462  1.0636  0.3395
  158SAPE  C31617729  -0.097   4.423   8.577 -0.3519 -0.1165 -0.2750
  158SAPE  H16X17730  -0.204   4.405   8.552  0.0720 -1.0248 -1.5264
  158SAPE  H16Y17731  -0.031   4.402   8.490  1.1261 -2.0195  1.2046
  158SAPE  C31717732  -0.077   4.578   8.617  0.6011  0.1826 -0.5154
  158SAPE  H17X17733   0.025   4.579   8.659 -0.0782 -0.0669  1.2092
  158SAPE  H17Y17734  -0.148   4.602   8.698 -1.4625 -0.0623 -2.1572
  158SAPE  C31817735  -0.094   4.668   8.497  0.0018  0.5934 -0.3181
  158SAPE  H18X17736  -0.075   4.773   8.528  1.4413 -0.3516  2.3709
  158SAPE  H18Y17737  -0.190   4.640   8.449 -0.6219  0.5093  0.9344
  158SAPE  H18Z17738  -0.023   4.641   8.416 -0.2922  1.9007 -1.0460
  159SAPE     N17739   5.782   5.487   6.267 -0.4524 -0.2418 -0.3369
  159SAPE   HN117740   5.701   5.449   6.215  0.8449 -2.1980 -1.0391
  159SAPE   HN217741   5.747   5.581   6.295 -3.6923 -1.5967  0.7345
  159SAPE   HN317742   5.843   5.500   6.184 -0.3747 -1.1571 -0.4329
  159SAPE   C1217743   5.840   5.408   6.384 -0.0379 -0.3876 -0.4581
  159SAPE  H12A17744   5.847   5.300   6.360 -0.3423 -0.7151  0.8243
  159SAPE  H12B17745   5.768   5.416   6.468 -0.7841  1.3068 -1.2140
  159SAPE   C1117746   5.989   5.457   6.416  0.0429  0.4483  0.1758
  159SAPE  H11A17747   6.052   5.432   6.328 -1.6249 -2.7702 -0.2753
  159SAPE  H11B17748   6.026   5.405   6.507  1.1713 -0.1278 -0.5895
  159SAPE     P17749   6.123   5.665   6.475 -0.2398  0.1103  0.3044
  159SAPE   O1317750   6.217   5.610   6.380 -0.5297  0.1812  0.3105
  159SAPE   O1417751   6.101   5.810   6.467  0.2810  0.1347 -0.0700
  159SAPE   O1217752   5.983   5.596   6.447  0.0579  0.0459 -0.6760
  159SAPE   O1117753   6.165   5.624   6.622  0.4364 -0.1176  0.4801
  159SAPE    C117754   6.293   5.660   6.668 -0.3959 -0.3721  0.1742
  159SAPE    HA17755   6.321   5.574   6.733 -1.6753 -0.2770  0.8894
  159SAPE    HB17756   6.368   5.662   6.586 -0.1857 -1.9172  0.3025
  159SAPE    C217757   6.296   5.791   6.752 -0.2564 -0.4172 -0.1925
  159SAPE    HS17758   6.281   5.874   6.680  0.7734 -1.0914 -1.2278
  159SAPE   O2117759   6.427   5.790   6.820  0.4803  0.0142  0.1969
  159SAPE   C2117760   6.462   5.907   6.873 -0.2411  0.1366 -0.3654
  159SAPE   O2217761   6.402   6.013   6.855  0.8105  0.3663  0.1594
  159SAPE   C2217762   6.588   5.898   6.958  0.2083 -0.2090 -0.1688
  159SAPE   H2R17763   6.628   5.794   6.957 -0.2337 -0.4063  0.9000
  159SAPE   H2S17764   6.670   5.942   6.898  1.0146  0.1180  1.1457
  159SAPE    C317765   6.169   5.799   6.845  0.4303 -0.4073 -0.2151
  159SAPE    HX17766   6.071   5.799   6.793  0.9739 -1.5302 -1.2951
  159SAPE    HY17767   6.195   5.889   6.904 -0.7707 -1.3607  1.8631
  159SAPE   O3117768   6.178   5.684   6.938  0.0570 -0.2442  1.1029
  159SAPE   C3117769   6.098   5.703   7.046  0.1338  0.5538 -0.1410
  159SAPE   O3217770   6.028   5.800   7.069 -0.5013  0.1256  0.3797
  159SAPE   C3217771   6.097   5.572   7.140  0.3371 -0.2143  0.2422
  159SAPE   H2X17772   6.187   5.567   7.205  1.7117  0.4201 -1.5092
  159SAPE   H2Y17773   6.095   5.486   7.069  0.3305  2.1324 -2.8271
  159SAPE   C2317774   6.573   5.958   7.102 -0.1750  0.2471  0.2194
  159SAPE   H3R17775   6.508   6.047   7.087  0.9889  1.0940 -0.0004
  159SAPE   H3S17776   6.670   5.992   7.145 -1.8830 -0.5274  5.2829
  159SAPE   C2417777   6.503   5.865   7.200  0.3177 -0.4116  0.1240
  159SAPE   H4R17778   6.584   5.794   7.227  0.9955  0.3353  0.1182
  159SAPE   H4S17779   6.417   5.803   7.166  0.7117 -1.2625  0.6714
  159SAPE   C2517780   6.470   5.935   7.331 -0.1946  1.0737  0.5315
  159SAPE   H5R17781   6.553   5.991   7.378  1.3712  0.1735 -1.0315
  159SAPE   C2617782   6.348   5.933   7.389  0.3383 -0.2681  0.0757
  159SAPE   H6R17783   6.337   5.989   7.483 -0.0809 -0.9031  0.4159
  159SAPE   C2717784   6.214   5.873   7.339 -0.3997  0.1145  0.5592
  159SAPE   H7R17785   6.217   5.763   7.357 -1.1878  0.2766  1.8092
  159SAPE   H7S17786   6.210   5.873   7.228 -0.0133  1.7967  0.5212
  159SAPE   C2817787   6.088   5.929   7.393  0.2463 -0.6834  0.3132
  159SAPE   H8R17788   6.018   5.974   7.322  0.1134 -0.9659  0.2653
  159SAPE   C2917789   6.052   5.922   7.524 -0.5995 -0.0848 -0.3471
  159SAPE   H9R17790   5.957   5.970   7.551 -0.7949 -1.3970  1.4435
  159SAPE  C21017791   6.133   5.868   7.638  0.7585  0.0962  0.1937
  159SAPE  H10R17792   6.215   5.818   7.582 -1.0486  0.9703 -3.6091
  159SAPE  H10S17793   6.079   5.790   7.695  2.2897 -0.7279  0.5535
  159SAPE  C21117794   6.199   5.977   7.713 -0.2611  0.2534  0.2406
  159SAPE  H11R17795   6.173   6.080   7.686 -1.9793 -0.2051  0.0404
  159SAPE  C21217796   6.278   5.955   7.822  0.1737  0.4890 -0.1963
  159SAPE  H12R17797   6.312   6.045   7.875 -0.7506  0.9461 -0.3528
  159SAPE  C21317798   6.305   5.824   7.887 -0.1790  0.4325 -0.5208
  159SAPE  H13R17799   6.251   5.734   7.850 -3.1631  0.8688  2.3542
  159SAPE  H13S17800   6.264   5.849   7.987 -0.0029  0.4403 -0.4509
  159SAPE  C21417801   6.452   5.796   7.889  0.0124 -0.0392 -0.9045
  159SAPE  H14R17802   6.505   5.836   7.801  1.3578  0.3544  0.0580
  159SAPE  C21517803   6.520   5.724   7.981 -0.7936  0.1301  0.1194
  159SAPE  H15R17804   6.630   5.726   7.976 -0.7351  1.6374  1.3358
  159SAPE  C21617805   6.459   5.659   8.102 -0.0565 -0.9977  0.2793
  159SAPE  H16R17806   6.488   5.552   8.100  0.9187 -0.7398 -1.8272
  159SAPE  H16S17807   6.349   5.671   8.112  0.2304 -0.1370  3.5127
  159SAPE  C21717808   6.497   5.712   8.240  0.1486  0.0023  0.0915
  159SAPE  H17R17809   6.414   5.691   8.310 -0.9894  1.6154 -0.7057
  159SAPE  H17S17810   6.500   5.822   8.227 -0.8383 -0.0975 -1.2365
  159SAPE  C21817811   6.633   5.671   8.295 -0.0359 -0.2725  0.0715
  159SAPE  H18R17812   6.649   5.726   8.390 -0.7487 -2.7294  1.6957
  159SAPE  H18S17813   6.705   5.710   8.219 -2.3053 -0.8741 -2.5683
  159SAPE  C21917814   6.662   5.527   8.330 -0.2752  0.0163  0.1154
  159SAPE  H19R17815   6.758   5.524   8.386 -1.0531  1.0769  1.5752
  159SAPE  H19S17816   6.674   5.468   8.237  1.0047  1.4072 -0.6615
  159SAPE  C22017817   6.559   5.468   8.428  0.3572  0.1989 -0.1310
  159SAPE  H20R17818   6.456   5.493   8.395 -0.0423  1.2465  1.7991
  159SAPE  H20S17819   6.568   5.508   8.531  2.0331 -0.0199 -0.1571
  159SAPE  H20T17820   6.563   5.357   8.434  2.1435  0.2251 -0.1749
  159SAPE   C3317821   5.979   5.579   7.248 -0.6463  0.3118  0.4323
  159SAPE   H3X17822   5.884   5.609   7.200 -0.5682 -0.8479 -0.5076
  159SAPE   H3Y17823   6.006   5.656   7.323  0.0485 -0.1550  0.6796
  159SAPE   C3417824   5.951   5.447   7.318  0.0737  0.0709 -0.3525
  159SAPE   H4X17825   5.983   5.372   7.243  0.6666 -1.0221  0.9584
  159SAPE   H4Y17826   5.842   5.437   7.339 -0.5570  3.1385 -1.5123
  159SAPE   C3517827   6.027   5.431   7.453  0.7766  0.2354  0.1086
  159SAPE   H5X17828   6.136   5.454   7.448  0.5614  1.1756 -0.2726
  159SAPE   H5Y17829   6.012   5.327   7.489 -1.0273 -0.1456 -1.5626
  159SAPE   C3617830   5.979   5.522   7.562  0.1341 -0.3601 -0.3396
  159SAPE   H6X17831   5.870   5.531   7.578  0.5665 -0.2247  3.7453
  159SAPE   H6Y17832   6.012   5.628   7.548 -2.2351  0.4453 -0.2052
  159SAPE   C3717833   6.022   5.471   7.699  0.1417 -0.3205  0.6467
  159SAPE   H7X17834   6.131   5.487   7.715  0.1220 -1.2414  1.8400
  159SAPE   H7Y17835   6.001   5.362   7.708 -1.3244 -0.0935  0.1356
  159SAPE   C3817836   5.952   5.545   7.817 -0.0792  0.6849  0.3141
  159SAPE   H8X17837   5.842   5.535   7.810 -0.2332  2.1212  0.5081
  159SAPE   H8Y17838   5.973   5.653   7.801  1.0221  0.1190 -2.9679
  159SAPE   C3917839   5.995   5.510   7.956  0.3686 -0.1910  0.5275
  159SAPE   H9X17840   6.106   5.504   7.953  0.3366 -0.8435 -2.0536
  159SAPE   H9Y17841   5.962   5.404   7.958 -1.1050  0.2089 -0.7550
  159SAPE  C31017842   5.945   5.599   8.067  0.3419  0.8201  0.0620
  159SAPE  H10X17843   5.834   5.604   8.058  0.3960 -1.0329 -2.7009
  159SAPE  H10Y17844   5.982   5.704   8.071  0.9656  0.5564  2.2076
  159SAPE  C31117845   5.971   5.543   8.205 -0.2743  0.6776  0.5706
  159SAPE  H11X17846   6.075   5.577   8.223  0.0487  0.4042 -0.6686
  159SAPE  H11Y17847   5.966   5.432   8.210  1.4710  0.5723  0.5258
  159SAPE  C31217848   5.878   5.603   8.316 -0.5339  0.0613 -0.0994
  159SAPE  H12X17849   5.774   5.566   8.329 -0.7841  0.5581 -0.6229
  159SAPE  H12Y17850   5.866   5.711   8.291 -1.3644 -0.0764 -0.3261
  159SAPE  C31317851   5.961   5.611   8.446  0.2078  0.1817  0.3393
  159SAPE  H13X17852   6.062   5.648   8.419  0.7184  0.1805  2.1430
  159SAPE  H13Y17853   5.968   5.503   8.473 -1.0105 -0.8664 -3.0694
  159SAPE  C31417854   5.915   5.701   8.562  0.0016  0.8720 -0.2412
  159SAPE  H14X17855   5.865   5.797   8.538 -1.6941 -0.4127 -2.1245
  159SAPE  H14Y17856   5.998   5.720   8.634  0.6275  0.8043 -0.9293
  159SAPE  C31517857   5.809   5.623   8.645  0.0638  0.1359  0.4411
  159SAPE  H15X17858   5.844   5.517   8.649 -1.4397 -0.3599  1.6553
  159SAPE  H15Y17859   5.711   5.633   8.595 -0.9740 -1.1016  2.0931
  159SAPE  C31617860   5.801   5.677   8.794  0.1633  0.7633  0.4031
  159SAPE  H16X17861   5.889   5.740   8.818  0.9609 -0.7149  1.5298
  159SAPE  H16Y17862   5.825   5.582   8.846 -2.0887 -1.4652 -2.2545
  159SAPE  C31717863   5.681   5.760   8.830 -0.5570  0.7595 -0.1945
  159SAPE  H17X17864   5.681   5.774   8.941 -0.0156 -2.0356  0.2231
  159SAPE  H17Y17865   5.593   5.703   8.794 -0.0783 -0.5976  0.7075
  159SAPE  C31817866   5.678   5.893   8.758  0.0122  0.7794 -0.8951
  159SAPE  H18X17867   5.575   5.936   8.763 -0.2646  0.1506 -1.0597
  159SAPE  H18Y17868   5.702   5.876   8.651  0.8244 -0.3257 -0.5485
  159SAPE  H18Z17869   5.755   5.960   8.802  0.9968 -1.5336  1.1135
  160SAPE     N17870   6.121   0.830   6.491 -0.3725 -0.2476 -0.4870
  160SAPE   HN117871   6.048   0.770   6.534 -1.7206  0.6245 -1.4901
  160SAPE   HN217872   6.088   0.850   6.394 -2.3146 -2.4868 -0.3644
  160SAPE   HN317873   6.210   0.775   6.491  0.5674  1.2176 -0.5397
  160SAPE   C1217874   6.141   0.945   6.582  0.0439  0.1343 -0.3940
  160SAPE  H12A17875   6.250   0.960   6.566  0.0531 -0.3868 -0.8953
  160SAPE  H12B17876   6.119   0.915   6.686 -1.0186 -0.0854 -0.6724
  160SAPE   C1117877   6.044   1.060   6.554  0.3151  0.6139 -0.0371
  160SAPE  H11A17878   6.068   1.091   6.450 -0.0009 -0.2339 -0.3740
  160SAPE  H11B17879   6.069   1.134   6.633  0.1576  1.5716 -0.8551
  160SAPE     P17880   5.798   1.098   6.622 -0.4041 -0.2042 -0.0397
  160SAPE   O1317881   5.674   1.075   6.547 -0.2966  0.1702 -0.0149
  160SAPE   O1417882   5.812   1.040   6.758  0.2174  0.2373  0.5690
  160SAPE   O1217883   5.910   1.011   6.551  0.0182  0.5744 -0.0398
  160SAPE   O1117884   5.848   1.250   6.620 -0.4316  0.4795 -0.4502
  160SAPE    C117885   5.883   1.319   6.735  0.3108 -0.2353  0.4995
  160SAPE    HA17886   5.946   1.262   6.806  0.9443  0.1165  0.2293
  160SAPE    HB17887   5.949   1.404   6.709 -1.4401  1.9060  2.5889
  160SAPE    C217888   5.752   1.380   6.797  0.3419 -0.1707 -0.8619
  160SAPE    HS17889   5.796   1.444   6.877 -1.7069 -0.5646  0.6840
  160SAPE   O2117890   5.665   1.276   6.849 -0.2821  0.2221 -0.4346
  160SAPE   C2117891   5.708   1.224   6.967  0.5608  0.1013 -0.4421
  160SAPE   O2217892   5.811   1.265   7.023  0.3000  0.1345  0.1757
  160SAPE   C2217893   5.621   1.115   7.019 -0.1643  0.5459 -0.4534
  160SAPE   H2R17894   5.519   1.151   7.044 -1.0024 -1.2408 -1.1124
  160SAPE   H2S17895   5.607   1.041   6.937 -2.0393  0.2445  0.0882
  160SAPE    C317896   5.669   1.471   6.707  0.1275 -0.2447 -0.0690
  160SAPE    HX17897   5.664   1.428   6.605  1.4808 -1.1414  0.2263
  160SAPE    HY17898   5.713   1.572   6.690  0.5948 -0.6142 -1.1234
  160SAPE   O3117899   5.533   1.483   6.758 -0.2727 -0.1598  0.4282
  160SAPE   C3117900   5.516   1.552   6.869 -0.3268 -0.1598  0.2385
  160SAPE   O3217901   5.601   1.617   6.933  0.0454  0.1479 -0.1756
  160SAPE   C3217902   5.370   1.521   6.903  0.0204  0.0110  1.1165
  160SAPE   H2X17903   5.355   1.423   6.853  4.1701 -0.1880 -0.1347
  160SAPE   H2Y17904   5.304   1.588   6.844  0.8612 -1.7051 -1.9945
  160SAPE   C2317905   5.689   1.034   7.138 -0.1183  0.3482  0.8519
  160SAPE   H3R17906   5.785   1.001   7.094 -0.5122  1.8490 -1.3034
  160SAPE   H3S17907   5.637   0.938   7.157  1.1693 -1.2986 -3.1364
  160SAPE   C2417908   5.698   1.106   7.271  0.2464  0.0389 -0.0640
  160SAPE   H4R17909   5.778   1.179   7.246 -0.1495 -0.1106 -1.9071
  160SAPE   H4S17910   5.736   1.034   7.346 -1.8113 -0.1419  0.8969
  160SAPE   C2517911   5.563   1.160   7.314 -0.0626 -0.1710 -0.2353
  160SAPE   H5R17912   5.480   1.091   7.293 -0.3715 -0.0738  0.6600
  160SAPE   C2617913   5.535   1.277   7.371  0.4834 -0.7651 -0.2861
  160SAPE   H6R17914   5.430   1.294   7.399  0.8198 -0.1183  0.6047
  160SAPE   C2717915   5.636   1.383   7.412  0.4726 -0.3891  0.4410
  160SAPE   H7R17916   5.725   1.339   7.461 -0.0400  1.4017  3.1985
  160SAPE   H7S17917   5.589   1.441   7.494  0.4562  1.0682 -0.5433
  160SAPE   C2817918   5.680   1.479   7.307  0.5471 -0.0862 -0.4076
  160SAPE   H8R17919   5.695   1.441   7.205 -1.0571 -1.4525 -0.1795
  160SAPE   C2917920   5.690   1.614   7.328 -0.2932  0.9096 -0.0788
  160SAPE   H9R17921   5.712   1.677   7.240  1.2619 -0.7916 -0.9693
  160SAPE  C21017922   5.675   1.686   7.456  0.9381 -0.6524 -0.2583
  160SAPE  H10R17923   5.566   1.683   7.478 -0.0966  0.3573 -4.4898
  160SAPE  H10S17924   5.692   1.793   7.431 -1.1675 -0.3887 -0.7743
  160SAPE  C21117925   5.768   1.634   7.568 -0.2342  0.4680 -0.3920
  160SAPE  H11R17926   5.817   1.537   7.547  1.3267  0.2986  3.2929
  160SAPE  C21217927   5.807   1.700   7.683  0.2134  0.4122 -0.7939
  160SAPE  H12R17928   5.879   1.644   7.744 -3.0658 -1.7117  1.4592
  160SAPE  C21317929   5.765   1.842   7.730  0.5401 -0.0453 -0.0910
  160SAPE  H13R17930   5.735   1.904   7.643 -1.3541  3.4675  2.7477
  160SAPE  H13S17931   5.855   1.896   7.767  0.6084 -1.5139  2.0853
  160SAPE  C21417932   5.652   1.832   7.835 -0.0537 -0.6387 -0.3716
  160SAPE  H14R17933   5.552   1.818   7.792  0.2533 -2.7236 -0.5086
  160SAPE  C21517934   5.657   1.826   7.973 -0.0836 -0.0033  0.0494
  160SAPE  H15R17935   5.561   1.851   8.019 -0.9008 -1.1018 -1.0140
  160SAPE  C21617936   5.776   1.820   8.068  0.3610 -1.3009  0.5007
  160SAPE  H16R17937   5.779   1.717   8.110 -0.9862 -1.7055 -0.3419
  160SAPE  H16S17938   5.749   1.877   8.159 -2.2275 -0.5327 -0.6687
  160SAPE  C21717939   5.916   1.898   8.017 -0.0295 -0.3739  0.1331
  160SAPE  H17R17940   5.889   1.985   7.953 -0.6381 -0.2567  0.5492
  160SAPE  H17S17941   5.971   1.828   7.950 -0.0869 -0.8721  0.6005
  160SAPE  C21817942   6.008   1.941   8.136  0.2364  0.1332 -0.6449
  160SAPE  H18R17943   5.949   2.022   8.184 -0.5054 -0.4230 -0.6109
  160SAPE  H18S17944   6.102   1.994   8.111  0.8763 -1.0381 -0.7732
  160SAPE  C21917945   6.038   1.840   8.245 -0.3893 -0.4871 -0.0088
  160SAPE  H19R17946   5.943   1.788   8.270 -1.5592  1.1903 -0.7234
  160SAPE  H19S17947   6.073   1.889   8.338 -0.8072 -2.9839  1.5668
  160SAPE  C22017948   6.152   1.738   8.204 -0.2029 -0.3407  0.0172
  160SAPE  H20R17949   6.110   1.672   8.125  0.9321 -0.6979 -0.3108
  160SAPE  H20S17950   6.177   1.674   8.292 -0.3277  0.2049  0.4561
  160SAPE  H20T17951   6.244   1.781   8.159  0.3901 -1.3123  0.2720
  160SAPE   C3317952   5.340   1.514   7.052 -0.2041  0.9261 -0.5295
  160SAPE   H3X17953   5.394   1.598   7.102  1.9123  0.5204 -2.0280
  160SAPE   H3Y17954   5.399   1.429   7.091  1.1034  2.5615  1.2730
  160SAPE   C3417955   5.197   1.507   7.086  0.7681 -0.7101  0.2079
  160SAPE   H4X17956   5.145   1.428   7.027  0.1446 -1.4073  1.6377
  160SAPE   H4Y17957   5.146   1.602   7.059 -0.9921 -1.5273  0.5334
  160SAPE   C3517958   5.191   1.476   7.233 -0.3012  0.7322 -0.5894
  160SAPE   H5X17959   5.233   1.374   7.246 -1.5944  0.4368  1.8794
  160SAPE   H5Y17960   5.085   1.461   7.261 -0.1626 -0.5146 -0.6948
  160SAPE   C3617961   5.251   1.567   7.336  0.0368  0.1041  0.4558
  160SAPE   H6X17962   5.247   1.675   7.310 -0.9194 -0.5408 -2.3895
  160SAPE   H6Y17963   5.359   1.542   7.346 -0.1883 -0.4715  1.5191
  160SAPE   C3717964   5.193   1.551   7.479  0.2328 -0.4281 -0.5096
  160SAPE   H7X17965   5.195   1.445   7.511 -0.5416 -0.0435  0.8825
  160SAPE   H7Y17966   5.085   1.575   7.468 -0.7932 -2.1871  3.7784
  160SAPE   C3817967   5.250   1.641   7.588  0.5992  0.5704 -0.4010
  160SAPE   H8X17968   5.238   1.747   7.558 -0.2340 -0.1131 -2.7184
  160SAPE   H8Y17969   5.352   1.600   7.606 -1.0091 -3.9749 -0.3672
  160SAPE   C3917970   5.165   1.637   7.718  0.2505  0.1905  0.6324
  160SAPE   H9X17971   5.144   1.534   7.755  2.5563 -0.3762  0.4859
  160SAPE   H9Y17972   5.070   1.693   7.698  1.2633  1.8770  0.3385
  160SAPE  C31017973   5.247   1.723   7.822  0.2903 -0.1785  0.0674
  160SAPE  H10X17974   5.287   1.816   7.774  1.0146  0.1097  1.1869
  160SAPE  H10Y17975   5.334   1.663   7.856  0.5673 -0.6112 -1.3537
  160SAPE  C31117976   5.158   1.762   7.942  0.0096 -0.1216 -0.0062
  160SAPE  H11X17977   5.093   1.672   7.951  0.6656 -0.6969 -0.8389
  160SAPE  H11Y17978   5.088   1.844   7.918 -0.4020 -0.4785 -0.0436
  160SAPE  C31217979   5.225   1.807   8.066  0.6774 -0.1292 -0.3747
  160SAPE  H12X17980   5.289   1.897   8.049 -1.1103  1.3509  0.3295
  160SAPE  H12Y17981   5.279   1.718   8.104  0.1367  0.7660  2.7913
  160SAPE  C31317982   5.129   1.848   8.179  0.3742  0.5973 -0.9367
  160SAPE  H13X17983   5.075   1.761   8.222 -0.9287  1.7160 -0.2334
  160SAPE  H13Y17984   5.059   1.927   8.145  0.0449  0.0608 -1.5246
  160SAPE  C31417985   5.216   1.908   8.291  0.3097  0.8659 -0.0001
  160SAPE  H14X17986   5.154   1.954   8.371  1.8783 -0.0104  1.7877
  160SAPE  H14Y17987   5.285   1.988   8.256  2.1054 -0.1064  1.1769
  160SAPE  C31517988   5.305   1.809   8.366 -0.0386  0.2976 -0.3163
  160SAPE  H15X17989   5.378   1.769   8.293  0.3719  0.3194  0.0778
  160SAPE  H15Y17990   5.241   1.727   8.405  1.2881  0.5316  2.6245
  160SAPE  C31617991   5.369   1.875   8.488  0.0187 -0.6074  0.2232
  160SAPE  H16X17992   5.294   1.891   8.569 -0.3391 -0.3560 -0.1487
  160SAPE  H16Y17993   5.414   1.975   8.468 -0.7120 -0.2991  0.0656
  160SAPE  C31717994   5.495   1.794   8.537  0.4381 -0.3431 -0.9287
  160SAPE  H17X17995   5.458   1.690   8.550  0.0842 -0.8076 -4.4690
  160SAPE  H17Y17996   5.515   1.839   8.636 -1.3068  0.1068 -0.7441
  160SAPE  C31817997   5.608   1.780   8.437  0.1155 -0.6945  0.2607
  160SAPE  H18X17998   5.650   1.868   8.384 -0.5132 -1.2804 -1.2874
  160SAPE  H18Y17999   5.575   1.705   8.361  0.1067 -0.1778 -0.2514
  160SAPE  H18Z18000   5.691   1.724   8.485 -0.6554 -2.1034  0.0012
  161SAPE     N18001   1.442   0.433   6.493  0.6418  0.2166 -0.0989
  161SAPE   HN118002   1.440   0.334   6.461 -0.6858 -0.0538  0.7351
  161SAPE   HN218003   1.430   0.485   6.403 -0.2801 -1.4856 -1.0209
  161SAPE   HN318004   1.534   0.458   6.533  0.1337  2.1911 -0.0521
  161SAPE   C1218005   1.322   0.469   6.569  0.1318 -0.4821 -0.1842
  161SAPE  H12A18006   1.319   0.579   6.586 -1.7361 -0.6665  1.0075
  161SAPE  H12B18007   1.333   0.436   6.675  0.0635  1.1842  0.3835
  161SAPE   C1118008   1.197   0.412   6.505 -0.0929 -0.3884 -0.1242
  161SAPE  H11A18009   1.175   0.457   6.406  0.4100  0.1221 -0.0029
  161SAPE  H11B18010   1.120   0.438   6.581  1.1279  0.9849  0.6649
  161SAPE     P18011   1.074   0.183   6.482  0.0727 -0.3555  0.3095
  161SAPE   O1318012   0.976   0.263   6.404  0.1536 -0.0824 -0.4420
  161SAPE   O1418013   1.120   0.051   6.440 -0.0809 -0.1648  0.7019
  161SAPE   O1218014   1.205   0.270   6.496  0.3855 -0.0112 -0.2850
  161SAPE   O1118015   1.026   0.174   6.632 -0.0983 -0.4094  0.1842
  161SAPE    C118016   1.125   0.146   6.730  0.2298 -0.8477 -0.3239
  161SAPE    HA18017   1.199   0.066   6.707  1.2398 -0.0816  0.1923
  161SAPE    HB18018   1.188   0.235   6.751 -1.5562  0.6839 -1.1988
  161SAPE    C218019   1.060   0.100   6.866  0.5849 -0.5212 -0.4104
  161SAPE    HS18020   1.000   0.011   6.836  1.0438 -1.0236  0.1593
  161SAPE   O2118021   0.966   0.198   6.916  0.6505  0.0605  0.1405
  161SAPE   C2118022   0.871   0.140   6.994 -0.1515  0.2126  0.2969
  161SAPE   O2218023   0.853   0.021   7.007  0.2236  0.1269 -0.1398
  161SAPE   C2218024   0.813   0.252   7.079  0.5263  0.2117 -0.4135
  161SAPE   H2R18025   0.848   0.244   7.184 -0.8797 -1.5680 -0.0409
  161SAPE   H2S18026   0.844   0.345   7.027 -0.8594 -0.1975 -2.0481
  161SAPE    C318027   1.172   0.057   6.964 -0.2493  0.4847  0.8218
  161SAPE    HX18028   1.222   0.147   7.006  1.1202 -0.4251  1.2119
  161SAPE    HY18029   1.252  -0.001   6.913 -0.8326 -0.8325  1.3399
  161SAPE   O3118030   1.130  -0.034   7.074 -0.5828 -1.0023 -0.0752
  161SAPE   C3118031   1.104  -0.163   7.053  0.5760  0.1652 -0.3536
  161SAPE   O3218032   1.125  -0.226   6.954 -0.0808 -0.2957  0.4651
  161SAPE   C3218033   1.033  -0.227   7.175  1.2845 -0.5306  0.3427
  161SAPE   H2X18034   0.935  -0.174   7.174  0.0177 -2.5790 -3.1997
  161SAPE   H2Y18035   1.099  -0.203   7.261  1.0743 -1.7330  0.8650
  161SAPE   C2318036   0.659   0.245   7.104  0.3853  0.9980 -0.3449
  161SAPE   H3R18037   0.605   0.213   7.012 -1.4361  0.6166  0.8103
  161SAPE   H3S18038   0.614   0.340   7.137 -0.1577  0.4753  0.4544
  161SAPE   C2418039   0.624   0.130   7.216 -0.2490 -0.0463  0.6820
  161SAPE   H4R18040   0.665   0.031   7.186 -0.9755 -0.3590  0.6871
  161SAPE   H4S18041   0.515   0.111   7.208 -0.0256 -2.2695  1.8793
  161SAPE   C2518042   0.657   0.164   7.358 -0.7137 -0.3069  0.1580
  161SAPE   H5R18043   0.606   0.254   7.395 -0.2612  0.4197 -0.9684
  161SAPE   C2618044   0.738   0.105   7.445 -0.5206  0.0050  0.4029
  161SAPE   H6R18045   0.754   0.147   7.545  2.6081  0.8841 -0.3503
  161SAPE   C2718046   0.835  -0.009   7.415  0.0462  0.2915 -0.1453
  161SAPE   H7R18047   0.835  -0.033   7.307 -0.8944 -0.2557 -0.0285
  161SAPE   H7S18048   0.780  -0.091   7.466 -2.6129  2.0795  0.0727
  161SAPE   C2818049   0.977   0.020   7.455  0.1584 -0.7371  0.6537
  161SAPE   H8R18050   1.023   0.067   7.367 -0.5386 -1.5141 -0.1560
  161SAPE   C2918051   1.044   0.007   7.572  0.2586 -0.2631 -0.0124
  161SAPE   H9R18052   1.153   0.022   7.579  0.1568 -0.1835  1.6803
  161SAPE  C21018053   0.989  -0.047   7.699  0.4417  0.8400  0.2674
  161SAPE  H10R18054   1.056  -0.122   7.746 -1.4691  0.5169  2.6754
  161SAPE  H10S18055   0.886  -0.086   7.682 -0.3037  3.2234 -1.0909
  161SAPE  C21118056   0.992   0.059   7.806  0.4302 -0.1396 -0.6429
  161SAPE  H11R18057   0.919   0.135   7.774  2.2896  0.5334 -3.7665
  161SAPE  C21218058   1.078   0.082   7.909 -0.2905 -0.7708 -0.3184
  161SAPE  H12R18059   1.062   0.182   7.953 -0.0759  0.1686 -2.3001
  161SAPE  C21318060   1.194  -0.002   7.962 -0.7146 -0.3803 -0.4715
  161SAPE  H13R18061   1.246   0.066   8.033 -0.8922  0.3258 -1.0167
  161SAPE  H13S18062   1.279  -0.025   7.894  2.1186  0.2686  2.5433
  161SAPE  C21418063   1.158  -0.136   8.038 -0.3383 -0.2299 -0.1589
  161SAPE  H14R18064   1.118  -0.222   7.983  1.3186 -1.4816  0.5154
  161SAPE  C21518065   1.157  -0.149   8.178 -1.1108 -0.7512 -0.0184
  161SAPE  H15R18066   1.134  -0.246   8.225  0.3675 -1.1299 -0.0242
  161SAPE  C21618067   1.199  -0.045   8.283  0.2769  0.9469 -0.3230
  161SAPE  H16R18068   1.107  -0.048   8.345 -1.0956 -0.3082 -2.3021
  161SAPE  H16S18069   1.217   0.059   8.247  1.1262  0.6540 -0.7935
  161SAPE  C21718070   1.314  -0.102   8.369  0.1828  0.2009  0.7226
  161SAPE  H17R18071   1.404  -0.114   8.304 -0.9769  0.5407 -1.0223
  161SAPE  H17S18072   1.281  -0.197   8.416  2.0278 -0.9194 -0.1283
  161SAPE  C21818073   1.372   0.007   8.475  0.7486 -0.6808  0.6151
  161SAPE  H18R18074   1.304   0.043   8.556 -0.9670 -3.8430  0.7604
  161SAPE  H18S18075   1.398   0.094   8.411  0.0557 -1.4422 -0.7379
  161SAPE  C21918076   1.491  -0.044   8.555 -0.5850  0.2182 -0.3777
  161SAPE  H19R18077   1.547   0.037   8.606 -1.8427 -0.0817  1.5815
  161SAPE  H19S18078   1.573  -0.085   8.493  0.8171 -1.5588  2.4470
  161SAPE  C22018079   1.457  -0.152   8.648 -0.1237  0.4173 -1.2914
  161SAPE  H20R18080   1.428  -0.249   8.601  0.0364 -0.2645 -0.0382
  161SAPE  H20S18081   1.365  -0.117   8.700 -1.0871 -1.4256 -1.6634
  161SAPE  H20T18082   1.539  -0.178   8.719  1.3366  2.0140 -2.3336
  161SAPE   C3318083   1.011  -0.374   7.150  0.1220  0.5714 -0.9067
  161SAPE   H3X18084   1.098  -0.433   7.117 -0.9304 -2.9432  1.9937
  161SAPE   H3Y18085   0.932  -0.381   7.072 -0.1523  0.5444 -0.6322
  161SAPE   C3418086   0.961  -0.451   7.283 -0.3949 -0.3788  0.3584
  161SAPE   H4X18087   1.024  -0.426   7.370 -0.4121  0.4300  0.1480
  161SAPE   H4Y18088   0.950  -0.560   7.270 -3.2652 -0.1806  0.4335
  161SAPE   C3518089   0.829  -0.391   7.327 -0.1499 -0.0704  0.1042
  161SAPE   H5X18090   0.758  -0.402   7.242 -0.7748 -0.1689  0.6273
  161SAPE   H5Y18091   0.848  -0.286   7.356  1.1072 -0.7481  1.8863
  161SAPE   C3618092   0.769  -0.461   7.446  0.0815 -0.3528  0.0952
  161SAPE   H6X18093   0.843  -0.470   7.528 -1.1149 -0.8744  1.1404
  161SAPE   H6Y18094   0.738  -0.562   7.413 -3.6912  1.0152 -1.1143
  161SAPE   C3718095   0.642  -0.388   7.493 -0.6967 -0.0202  0.0826
  161SAPE   H7X18096   0.570  -0.360   7.413 -2.1554  2.6064  2.1396
  161SAPE   H7Y18097   0.680  -0.292   7.535  1.3095 -1.0161  0.7003
  161SAPE   C3818098   0.569  -0.480   7.590 -0.6738  0.2282  0.8116
  161SAPE   H8X18099   0.640  -0.510   7.671 -0.1528  0.0678  0.2993
  161SAPE   H8Y18100   0.523  -0.564   7.535 -1.8997  0.8994  0.7846
  161SAPE   C3918101   0.456  -0.404   7.655 -0.1732  0.7708  0.0809
  161SAPE   H9X18102   0.409  -0.341   7.576  0.9670  0.8794 -0.5382
  161SAPE   H9Y18103   0.498  -0.325   7.720  2.0725  2.3805 -3.0400
  161SAPE  C31018104   0.355  -0.497   7.729  0.2242 -0.5809 -0.0035
  161SAPE  H10X18105   0.421  -0.564   7.788 -0.0035 -1.1866 -0.4311
  161SAPE  H10Y18106   0.297  -0.553   7.653 -3.1779  0.9408  1.2615
  161SAPE  C31118107   0.258  -0.413   7.811 -0.1549  0.6825 -0.6489
  161SAPE  H11X18108   0.162  -0.466   7.829  0.0849 -0.0352 -1.4631
  161SAPE  H11Y18109   0.227  -0.323   7.752  0.0137 -0.3170 -2.3181
  161SAPE  C31218110   0.312  -0.368   7.949 -0.5671  0.1158 -0.0364
  161SAPE  H12X18111   0.404  -0.308   7.936 -0.5144  0.1924  0.6544
  161SAPE  H12Y18112   0.341  -0.457   8.009  0.1983  0.4177  0.0526
  161SAPE  C31318113   0.207  -0.302   8.027  0.6115  0.2809 -0.2259
  161SAPE  H13X18114   0.121  -0.371   8.038 -0.2329  1.5502  1.7923
  161SAPE  H13Y18115   0.175  -0.221   7.959  1.3324 -0.2798 -1.2489
  161SAPE  C31418116   0.259  -0.250   8.160  0.3591 -0.7291  0.8359
  161SAPE  H14X18117   0.349  -0.191   8.133  0.4969 -1.5034 -0.5105
  161SAPE  H14Y18118   0.304  -0.330   8.222  1.7454 -1.0852 -0.5689
  161SAPE  C31518119   0.160  -0.155   8.233  0.0658  0.3857 -0.8944
  161SAPE  H15X18120   0.136  -0.066   8.171 -0.3378  0.0670 -1.2024
  161SAPE  H15Y18121   0.200  -0.129   8.333  0.8438 -0.3994 -0.9889
  161SAPE  C31618122   0.027  -0.222   8.258 -0.2638  0.3047  0.2046
  161SAPE  H16X18123   0.059  -0.319   8.302  2.7587  0.1064 -2.0543
  161SAPE  H16Y18124  -0.042  -0.220   8.171 -1.0926  3.2549  0.8074
  161SAPE  C31718125  -0.042  -0.140   8.361  0.5694  0.4233  0.2554
  161SAPE  H17X18126  -0.042  -0.031   8.343  0.4432  0.0558 -2.4976
  161SAPE  H17Y18127   0.004  -0.152   8.461 -0.5615  0.5021  0.7906
  161SAPE  C31818128  -0.193  -0.172   8.384  0.0617  1.2448 -0.4378
  161SAPE  H18X18129  -0.248  -0.117   8.304  0.0058  1.8338 -0.0040
  161SAPE  H18Y18130  -0.224  -0.157   8.489 -0.2977  0.4755 -0.4280
  161SAPE  H18Z18131  -0.218  -0.276   8.356 -3.2583  2.1725 -1.4615
  162SAPE     N18132   0.509   3.258   5.831  0.5005  0.4704 -0.2838
  162SAPE   HN118133   0.531   3.162   5.866 -0.6410  0.0982 -0.5407
  162SAPE   HN218134   0.445   3.240   5.750  2.3630 -1.1730 -1.5015
  162SAPE   HN318135   0.590   3.302   5.783 -1.3866 -0.0047 -4.3254
  162SAPE   C1218136   0.436   3.332   5.937 -0.3491  0.1966 -0.5626
  162SAPE  H12A18137   0.340   3.281   5.964  1.3542 -2.8255  0.2750
  162SAPE  H12B18138   0.411   3.431   5.893 -3.2247 -0.1853 -0.0232
  162SAPE   C1118139   0.515   3.330   6.067 -0.0016 -0.2214  0.3296
  162SAPE  H11A18140   0.555   3.231   6.098  0.1981  0.3132  1.8823
  162SAPE  H11B18141   0.445   3.358   6.149  1.6916  0.9419  1.4358
  162SAPE     P18142   0.752   3.410   6.118 -0.1430 -0.0232 -0.1498
  162SAPE   O1318143   0.810   3.311   6.024  0.2312 -0.0563 -0.0838
  162SAPE   O1418144   0.826   3.542   6.114  0.2913  0.1345  0.3010
  162SAPE   O1218145   0.610   3.439   6.061 -0.5310  0.4624 -0.0854
  162SAPE   O1118146   0.725   3.344   6.266 -0.5986  0.3669  0.1114
  162SAPE    C118147   0.632   3.387   6.365 -0.4012  0.3909  0.6845
  162SAPE    HA18148   0.546   3.433   6.312  0.0031  1.2098  0.7330
  162SAPE    HB18149   0.600   3.298   6.424  0.8607  0.7036  1.8787
  162SAPE    C218150   0.697   3.494   6.453 -0.0638  0.0495 -0.5955
  162SAPE    HS18151   0.747   3.562   6.380 -0.5594  1.3684  0.2457
  162SAPE   O2118152   0.788   3.439   6.553  0.4469 -0.3908 -0.6843
  162SAPE   C2118153   0.837   3.528   6.634 -1.6512  0.4245 -0.2085
  162SAPE   O2218154   0.851   3.644   6.621  0.1635  0.1250 -0.4000
  162SAPE   C2218155   0.891   3.449   6.751 -0.4268 -0.1888  0.9499
  162SAPE   H2R18156   0.808   3.397   6.803 -0.5643  0.5217  1.4475
  162SAPE   H2S18157   0.960   3.376   6.704 -1.5612 -0.3543 -0.5412
  162SAPE    C318158   0.583   3.583   6.519  0.5745  0.6114  0.5244
  162SAPE    HX18159   0.519   3.634   6.444  0.3704 -0.9055 -0.3945
  162SAPE    HY18160   0.618   3.669   6.580  0.2073  1.9208 -1.0463
  162SAPE   O3118161   0.493   3.508   6.606  0.6422 -0.6780 -0.2346
  162SAPE   C3118162   0.512   3.502   6.737  0.8212  0.3844 -0.1179
  162SAPE   O3218163   0.594   3.566   6.798  0.5827 -0.2292 -0.5168
  162SAPE   C3218164   0.423   3.409   6.805 -0.6172  1.2725 -0.3472
  162SAPE   H2X18165   0.441   3.408   6.914  1.9404 -0.3048 -0.6819
  162SAPE   H2Y18166   0.453   3.307   6.772 -2.0197  0.9077 -0.5467
  162SAPE   C2318167   0.958   3.548   6.848 -0.5568  0.1902 -0.6126
  162SAPE   H3R18168   0.910   3.648   6.861 -3.1185 -1.3746  4.2313
  162SAPE   H3S18169   1.059   3.557   6.802 -0.0687 -1.8248  0.0012
  162SAPE   C2418170   0.983   3.493   6.985 -0.0456  0.1610 -0.8109
  162SAPE   H4R18171   1.040   3.398   6.971  0.6114 -0.2813  3.5838
  162SAPE   H4S18172   0.890   3.450   7.027  0.0653  0.1165 -0.6067
  162SAPE   C2518173   1.056   3.579   7.088  0.2698  0.3333  0.4489
  162SAPE   H5R18174   1.166   3.577   7.076  0.2278 -2.8500 -0.4320
  162SAPE   C2618175   1.000   3.661   7.179  0.2698 -0.5281 -0.3260
  162SAPE   H6R18176   1.073   3.721   7.235 -0.6127  1.2570 -1.0451
  162SAPE   C2718177   0.853   3.672   7.202 -0.4064  0.2678  0.3783
  162SAPE   H7R18178   0.807   3.671   7.100  0.8056  1.4435 -0.2057
  162SAPE   H7S18179   0.838   3.777   7.234 -0.3612  1.0609 -2.0050
  162SAPE   C2818180   0.800   3.566   7.294  0.4655 -0.2361 -0.2102
  162SAPE   H8R18181   0.864   3.533   7.378  1.2674  0.7753 -0.3923
  162SAPE   C2918182   0.673   3.512   7.282 -0.1462  0.1383 -0.1483
  162SAPE   H9R18183   0.640   3.433   7.352  4.3139 -1.1737  0.7602
  162SAPE  C21018184   0.573   3.541   7.171 -0.1540 -0.3752 -0.0838
  162SAPE  H10R18185   0.580   3.458   7.098  2.1729  0.3719 -0.7946
  162SAPE  H10S18186   0.590   3.626   7.100 -0.5705  0.9361  1.3197
  162SAPE  C21118187   0.433   3.534   7.224  0.9357  0.7457 -0.3623
  162SAPE  H11R18188   0.375   3.440   7.226  1.2323  0.5668  0.5470
  162SAPE  C21218189   0.371   3.638   7.275 -0.7968  0.8417 -1.4485
  162SAPE  H12R18190   0.263   3.625   7.297 -0.1705 -0.8364  1.1324
  162SAPE  C21318191   0.417   3.771   7.310  0.3956 -0.5310 -0.7885
  162SAPE  H13R18192   0.337   3.846   7.294 -0.6539 -1.1538  1.2827
  162SAPE  H13S18193   0.504   3.805   7.249  0.6152  0.4601  0.0422
  162SAPE  C21418194   0.478   3.788   7.452  0.1382 -0.4923  0.2892
  162SAPE  H14R18195   0.558   3.716   7.474  0.1062 -0.8818 -0.8021
  162SAPE  C21518196   0.442   3.884   7.535  0.5676 -0.6183 -0.1957
  162SAPE  H15R18197   0.503   3.906   7.625  0.5084  1.9205 -0.6849
  162SAPE  C21618198   0.346   3.995   7.495 -0.2978 -0.1892 -0.1607
  162SAPE  H16R18199   0.243   3.954   7.489 -1.3881  2.3609 -0.4570
  162SAPE  H16S18200   0.370   4.045   7.398 -3.6259  0.5200 -0.7610
  162SAPE  C21718201   0.341   4.116   7.594  0.7476  0.0642  0.2439
  162SAPE  H17R18202   0.323   4.067   7.692  1.3796  1.0302  0.8668
  162SAPE  H17S18203   0.270   4.192   7.555 -0.7374 -1.7369 -0.7037
  162SAPE  C21818204   0.477   4.184   7.612 -0.4720 -0.5833 -0.5283
  162SAPE  H18R18205   0.533   4.192   7.516 -0.1933  2.0234 -0.2213
  162SAPE  H18S18206   0.536   4.109   7.670  2.0661  1.0918 -0.7536
  162SAPE  C21918207   0.475   4.319   7.687  0.1967 -0.2449 -0.2999
  162SAPE  H19R18208   0.418   4.387   7.620  0.0904 -1.6438 -1.7196
  162SAPE  H19S18209   0.579   4.356   7.693 -0.4221  1.3337  2.1210
  162SAPE  C22018210   0.395   4.310   7.822 -0.4944  0.6884  0.1264
  162SAPE  H20R18211   0.370   4.413   7.855 -3.3105 -0.2617  1.3139
  162SAPE  H20S18212   0.448   4.253   7.901  1.4497  0.0619 -1.5503
  162SAPE  H20T18213   0.299   4.257   7.806  0.8437 -1.5006 -1.0807
  162SAPE   C3318214   0.274   3.418   6.786  0.5210  0.5942 -1.1487
  162SAPE   H3X18215   0.222   3.335   6.839 -2.3440  2.8322 -0.1790
  162SAPE   H3Y18216   0.243   3.399   6.681  0.0133 -0.0400 -0.8912
  162SAPE   C3418217   0.228   3.549   6.839  0.6140 -0.3763  0.2440
  162SAPE   H4X18218   0.275   3.634   6.786 -0.2099  0.0169  0.1323
  162SAPE   H4Y18219   0.251   3.565   6.947 -0.0970  1.1579  0.1885
  162SAPE   C3518220   0.076   3.572   6.811 -0.0997 -0.0093 -0.4768
  162SAPE   H5X18221   0.018   3.481   6.834 -1.8082  0.9703 -0.7043
  162SAPE   H5Y18222   0.070   3.604   6.705  1.7415  0.2256 -0.5408
  162SAPE   C3618223   0.030   3.685   6.905  0.3222  0.4030  0.4502
  162SAPE   H6X18224  -0.057   3.742   6.866 -0.1136 -0.8853 -0.5283
  162SAPE   H6Y18225   0.120   3.750   6.913  0.1581  0.6241  0.4938
  162SAPE   C3718226   0.014   3.645   7.053 -0.1780 -0.1306  0.5323
  162SAPE   H7X18227   0.095   3.583   7.096  0.7699 -0.2876 -1.3906
  162SAPE   H7Y18228  -0.073   3.578   7.066 -0.5697 -0.3242 -2.3864
  162SAPE   C3818229  -0.002   3.765   7.144  0.7794 -0.6583  0.0509
  162SAPE   H8X18230  -0.084   3.827   7.101 -0.0745 -2.5033 -1.1076
  162SAPE   H8Y18231   0.094   3.816   7.124  1.6088 -2.1515  0.0536
  162SAPE   C3918232  -0.028   3.729   7.282  0.5612 -0.3498 -0.3994
  162SAPE   H9X18233   0.044   3.660   7.330  2.7741  2.7242  1.0773
  162SAPE   H9Y18234  -0.130   3.687   7.291  0.1050  0.4160 -1.6702
  162SAPE  C31018235  -0.028   3.858   7.364 -0.3219  0.8154  0.4229
  162SAPE  H10X18236  -0.085   3.929   7.301 -2.1924 -0.5213  0.5088
  162SAPE  H10Y18237   0.076   3.897   7.366  0.3817 -0.5589 -2.5484
  162SAPE  C31118238  -0.076   3.846   7.508 -0.4271 -0.3159 -0.1563
  162SAPE  H11X18239  -0.004   3.781   7.562  2.2810  1.9727 -0.7093
  162SAPE  H11Y18240  -0.182   3.813   7.503 -1.2140  1.7286  1.2952
  162SAPE  C31218241  -0.051   3.982   7.576  0.1866  0.8471 -0.1057
  162SAPE  H12X18242  -0.100   4.057   7.511 -0.4233 -0.2815 -0.9920
  162SAPE  H12Y18243   0.058   4.000   7.576  0.2968  0.2336 -0.3723
  162SAPE  C31318244  -0.113   3.990   7.719  0.6119 -0.0463 -0.2287
  162SAPE  H13X18245  -0.218   3.956   7.710  0.9965 -0.8579 -2.3841
  162SAPE  H13Y18246  -0.115   4.099   7.737  2.7488  0.0515 -0.2826
  162SAPE  C31418247  -0.029   3.929   7.832 -0.1699 -0.8132  0.1563
  162SAPE  H14X18248   0.077   3.942   7.801 -0.1371 -0.4703  0.4002
  162SAPE  H14Y18249  -0.059   3.822   7.832  1.3471 -1.2701 -0.2244
  162SAPE  C31518250  -0.036   4.007   7.969  0.1417  0.3985  0.4042
  162SAPE  H15X18251  -0.142   4.014   7.998 -0.6334  0.0123 -2.0598
  162SAPE  H15Y18252   0.011   4.107   7.955  0.0194  0.3056 -0.8233
  162SAPE  C31618253   0.040   3.946   8.082  0.0968  0.0342 -0.3616
  162SAPE  H16X18254   0.014   3.839   8.095  1.2681 -0.2124  0.0888
  162SAPE  H16Y18255   0.024   4.001   8.177  1.2058  0.1873 -0.2414
  162SAPE  C31718256   0.187   3.942   8.058 -0.2667 -0.4859  0.5553
  162SAPE  H17X18257   0.204   3.921   7.950  0.7521 -0.9568  0.7922
  162SAPE  H17Y18258   0.231   3.872   8.132  0.3798  0.2973  0.9289
  162SAPE  C31818259   0.258   4.076   8.093 -0.1996  0.0063  0.4415
  162SAPE  H18X18260   0.293   4.073   8.199 -0.9628  1.6249  0.7670
  162SAPE  H18Y18261   0.193   4.164   8.077 -0.5280 -0.2585  0.3009
  162SAPE  H18Z18262   0.346   4.078   8.025 -0.2772  1.5977  0.3680
  163SAPE     N18263   5.773   0.755   6.817 -0.4149  0.5569  0.0982
  163SAPE   HN118264   5.842   0.703   6.758 -1.5012 -2.5275  1.3597
  163SAPE   HN218265   5.681   0.756   6.769 -0.8299  0.5763  0.8782
  163SAPE   HN318266   5.805   0.853   6.825 -0.1804  0.3862  1.5639
  163SAPE   C1218267   5.757   0.668   6.941  0.6503 -0.8198  0.8974
  163SAPE  H12A18268   5.677   0.707   7.007  0.5231 -0.1650  0.3615
  163SAPE  H12B18269   5.845   0.673   7.008  0.3553  1.0662  1.1796
  163SAPE   C1118270   5.715   0.527   6.890 -0.1822  0.0286 -0.1260
  163SAPE  H11A18271   5.706   0.463   6.980  2.9947 -0.8122 -0.2801
  163SAPE  H11B18272   5.804   0.491   6.834  0.3058  0.6356  0.2405
  163SAPE     P18273   5.506   0.397   6.796 -0.0354 -0.1025 -0.5557
  163SAPE   O1318274   5.450   0.356   6.927 -0.4188 -0.5858  0.2602
  163SAPE   O1418275   5.418   0.404   6.679  0.0107 -0.2335  0.4644
  163SAPE   O1218276   5.600   0.527   6.809  0.4890  0.4606  0.5099
  163SAPE   O1118277   5.629   0.308   6.761  0.5615 -0.3545 -0.2467
  163SAPE    C118278   5.623   0.164   6.769  0.7643 -0.0620  0.0491
  163SAPE    HA18279   5.525   0.130   6.810  0.7110  1.9835  1.8320
  163SAPE    HB18280   5.641   0.109   6.675  0.1582 -1.3310  0.6488
  163SAPE    C218281   5.730   0.099   6.864 -0.5377 -0.2612  0.7290
  163SAPE    HS18282   5.718  -0.011   6.870 -0.8516 -0.2626  0.1401
  163SAPE   O2118283   5.714   0.154   6.994 -0.3205 -0.0227  0.2868
  163SAPE   C2118284   5.612   0.097   7.057  0.7769 -0.3234  0.0384
  163SAPE   O2218285   5.539   0.007   7.017 -0.3342 -0.6233  0.2808
  163SAPE   C2218286   5.579   0.173   7.190  0.0600 -0.1198  0.7123
  163SAPE   H2R18287   5.668   0.233   7.218  0.4027  0.5007 -1.4710
  163SAPE   H2S18288   5.508   0.254   7.163 -0.1639 -0.2063  1.0421
  163SAPE    C318289   5.873   0.125   6.812 -0.5068  0.0503  0.1375
  163SAPE    HX18290   5.873   0.236   6.805 -3.8053  0.0645 -3.0440
  163SAPE    HY18291   5.869   0.089   6.707 -1.1012  0.0934  0.1370
  163SAPE   O3118292   5.973   0.076   6.898  0.1706  0.2589  0.0596
  163SAPE   C3118293   5.993  -0.058   6.903  0.5340  0.2076 -0.4447
  163SAPE   O3218294   5.936  -0.140   6.835 -0.2027  0.5772 -0.0210
  163SAPE   C3218295   6.098  -0.097   7.012 -0.4146 -0.5671  0.0781
  163SAPE   H2X18296   6.143   0.000   7.042 -0.1712 -0.2661 -1.2352
  163SAPE   H2Y18297   6.163  -0.162   6.951 -0.7357  0.6382 -1.6035
  163SAPE   C2318298   5.533   0.075   7.304  0.4274  0.1091  0.0585
  163SAPE   H3R18299   5.558   0.131   7.397  0.5463  2.2816 -1.2356
  163SAPE   H3S18300   5.589  -0.021   7.302  1.0202  0.4443 -2.6612
  163SAPE   C2418301   5.375   0.055   7.315 -0.0696  0.1509  0.3022
  163SAPE   H4R18302   5.351  -0.032   7.380 -1.4697 -0.9074 -1.5104
  163SAPE   H4S18303   5.341   0.023   7.214  0.9216  3.5835 -1.2234
  163SAPE   C2518304   5.305   0.183   7.362 -0.6985 -0.1916  0.2495
  163SAPE   H5R18305   5.311   0.260   7.284 -0.7213 -0.3241  0.1146
  163SAPE   C2618306   5.249   0.204   7.484  0.1634 -0.2145  0.1515
  163SAPE   H6R18307   5.217   0.306   7.508  0.1811 -0.2523  0.3386
  163SAPE   C2718308   5.248   0.102   7.600 -0.3371  0.2213  0.4676
  163SAPE   H7R18309   5.211   0.005   7.560 -1.3068  0.6788  0.2277
  163SAPE   H7S18310   5.168   0.123   7.675  0.0201 -1.2262  1.2797
  163SAPE   C2818311   5.387   0.087   7.658  0.0990  0.5266  0.6428
  163SAPE   H8R18312   5.463   0.057   7.585  0.8223  2.2089  0.6594
  163SAPE   C2918313   5.412   0.098   7.789  0.7386  0.3893  0.2342
  163SAPE   H9R18314   5.512   0.096   7.834  1.3742  1.8380 -1.0382
  163SAPE  C21018315   5.305   0.137   7.893  0.3899 -0.1524  0.1770
  163SAPE  H10R18316   5.230   0.056   7.884 -0.4492  0.5755  0.4948
  163SAPE  H10S18317   5.254   0.233   7.869  0.4160 -0.2081 -0.1087
  163SAPE  C21118318   5.359   0.156   8.036 -0.0654 -0.0942  0.1826
  163SAPE  H11R18319   5.424   0.244   8.040 -1.1998  0.9129 -1.9390
  163SAPE  C21218320   5.328   0.077   8.141  0.3369 -0.0732 -0.2066
  163SAPE  H12R18321   5.373   0.102   8.238 -0.6373 -0.5536  0.3871
  163SAPE  C21318322   5.228  -0.042   8.144  0.0596 -0.5801  0.0172
  163SAPE  H13R18323   5.224  -0.100   8.049  1.5228 -0.0110 -0.4161
  163SAPE  H13S18324   5.132   0.005   8.175  0.6289 -0.2006  1.2585
  163SAPE  C21418325   5.278  -0.132   8.247  0.7251  1.4781 -0.0719
  163SAPE  H14R18326   5.364  -0.195   8.223  0.4283  0.9734  0.1761
  163SAPE  C21518327   5.219  -0.145   8.363  0.4493 -0.1178 -0.6603
  163SAPE  H15R18328   5.257  -0.225   8.427 -0.3336 -2.0764 -2.5283
  163SAPE  C21618329   5.093  -0.058   8.410  0.0572  0.2659 -0.3654
  163SAPE  H16R18330   4.995  -0.098   8.377 -0.9456  1.3159  1.2170
  163SAPE  H16S18331   5.106   0.049   8.382 -2.5263  0.3630 -1.4699
  163SAPE  C21718332   5.089  -0.057   8.566 -0.2286 -0.2375  0.3201
  163SAPE  H17R18333   5.192  -0.050   8.609  0.4246 -0.1017 -1.2168
  163SAPE  H17S18334   5.046  -0.154   8.599  0.7689 -0.0579  2.3054
  163SAPE  C21818335   4.988   0.048   8.629  0.3196  0.5688  0.5161
  163SAPE  H18R18336   4.965   0.121   8.549  1.2119 -2.1920 -2.4776
  163SAPE  H18S18337   5.042   0.111   8.703 -0.0781 -0.0844  1.3760
  163SAPE  C21918338   4.855  -0.012   8.686  0.5291  0.2394 -0.0529
  163SAPE  H19R18339   4.796  -0.066   8.608 -0.1444 -0.9677  1.2549
  163SAPE  H19S18340   4.794   0.074   8.718 -1.1317 -0.3024 -1.5660
  163SAPE  C22018341   4.868  -0.118   8.797  0.2286 -0.8081  0.2253
  163SAPE  H20R18342   4.913  -0.207   8.747 -0.0258 -0.3972 -0.7750
  163SAPE  H20S18343   4.770  -0.148   8.840  1.7143 -0.9035  3.8649
  163SAPE  H20T18344   4.925  -0.087   8.886 -2.6210 -0.5646  2.1117
  163SAPE   C3318345   6.042  -0.170   7.127  0.6670 -0.8105 -0.2426
  163SAPE   H3X18346   6.130  -0.199   7.189  1.3113  3.4166  1.1406
  163SAPE   H3Y18347   5.986  -0.258   7.091 -0.9588 -0.2118  0.7452
  163SAPE   C3418348   5.939  -0.084   7.207 -0.1714 -0.1202 -0.1023
  163SAPE   H4X18349   5.895  -0.162   7.273  2.8971 -2.4381 -0.5200
  163SAPE   H4Y18350   5.871  -0.045   7.128 -0.3480 -0.3353 -0.0581
  163SAPE   C3518351   6.001   0.019   7.299  0.7240  0.1126  0.1384
  163SAPE   H5X18352   6.040   0.101   7.235  1.9322  0.3441  1.1385
  163SAPE   H5Y18353   6.087  -0.023   7.356  0.9992  0.5687  0.0610
  163SAPE   C3618354   5.903   0.082   7.393 -0.1465 -0.1679  0.4278
  163SAPE   H6X18355   5.863   0.004   7.461  2.2704 -0.7139  1.3108
  163SAPE   H6Y18356   5.809   0.122   7.348 -0.1145 -0.3126  0.2319
  163SAPE   C3718357   5.976   0.191   7.480 -0.1260  0.1940 -0.1950
  163SAPE   H7X18358   5.998   0.274   7.410  0.6426  0.5302  0.4292
  163SAPE   H7Y18359   6.076   0.151   7.508  0.9472  1.2488 -2.3127
  163SAPE   C3818360   5.890   0.240   7.594 -0.3758 -0.2987 -0.5181
  163SAPE   H8X18361   5.884   0.172   7.682 -2.3338  0.9627  0.3879
  163SAPE   H8Y18362   5.784   0.240   7.561 -0.9088  0.0710  1.1046
  163SAPE   C3918363   5.922   0.377   7.650 -0.9209 -0.0330 -1.2100
  163SAPE   H9X18364   5.834   0.430   7.691 -1.7001  0.3360 -3.2545
  163SAPE   H9Y18365   5.945   0.440   7.561  0.9072 -0.1627 -0.8768
  163SAPE  C31018366   6.035   0.377   7.759 -0.1005 -0.3140 -0.6422
  163SAPE  H10X18367   6.120   0.321   7.716  0.5187 -0.3760  0.6414
  163SAPE  H10Y18368   6.019   0.316   7.850  2.4131  0.0287  0.0886
  163SAPE  C31118369   6.063   0.517   7.809 -0.7690 -0.4970 -0.2053
  163SAPE  H11X18370   5.965   0.560   7.837 -0.3425 -0.6606  1.6882
  163SAPE  H11Y18371   6.092   0.581   7.723  1.5372 -0.2439  0.6719
  163SAPE  C31218372   6.165   0.506   7.925 -0.3796  0.3340  0.5693
  163SAPE  H12X18373   6.246   0.450   7.873 -2.7580 -2.2374 -0.6252
  163SAPE  H12Y18374   6.128   0.458   8.018 -0.6902  1.0042  0.8029
  163SAPE  C31318375   6.220   0.639   7.971  0.0928 -0.5736 -0.1009
  163SAPE  H13X18376   6.127   0.691   8.002  0.2076  0.7317 -1.7563
  163SAPE  H13Y18377   6.259   0.703   7.888 -1.4139 -2.6146 -2.5488
  163SAPE  C31418378   6.321   0.623   8.087 -0.8786 -0.5604 -0.2411
  163SAPE  H14X18379   6.402   0.559   8.047 -0.9996  0.1462 -1.7159
  163SAPE  H14Y18380   6.272   0.563   8.167 -1.3012  2.0970  1.6349
  163SAPE  C31518381   6.354   0.753   8.152 -0.3704  0.5790  0.3716
  163SAPE  H15X18382   6.258   0.789   8.196 -1.0993  1.1446 -1.5641
  163SAPE  H15Y18383   6.386   0.828   8.076 -0.5925  2.2123  1.8414
  163SAPE  C31618384   6.459   0.736   8.267 -0.1696  0.1640  0.5042
  163SAPE  H16X18385   6.553   0.711   8.212 -0.3618 -1.3052  0.8058
  163SAPE  H16Y18386   6.430   0.654   8.336  0.0369  0.0258  0.4275
  163SAPE  C31718387   6.486   0.863   8.351  0.2116 -0.0923 -0.3170
  163SAPE  H17X18388   6.392   0.901   8.397  1.3463  0.7257  1.4187
  163SAPE  H17Y18389   6.516   0.947   8.285 -1.6049 -0.4083 -1.6428
  163SAPE  C31818390   6.599   0.835   8.453  0.6642 -0.1041 -0.1688
  163SAPE  H18X18391   6.693   0.803   8.405  0.2794 -1.3142 -0.1423
  163SAPE  H18Y18392   6.580   0.757   8.530  3.9312 -0.1426  0.7435
  163SAPE  H18Z18393   6.628   0.921   8.517  3.0272  0.9236 -2.4465
  164SAPE     N18394   0.066   2.500   6.181  0.2872 -0.8021  0.5645
  164SAPE   HN118395   0.128   2.535   6.257  0.2146  0.2726  0.1318
  164SAPE   HN218396   0.123   2.427   6.134  1.3815 -1.1418  2.3253
  164SAPE   HN318397   0.062   2.582   6.118  2.2509 -1.6998 -0.8511
  164SAPE   C1218398  -0.059   2.455   6.233  1.1463 -0.5176 -0.7974
  164SAPE  H12A18399  -0.045   2.358   6.286  0.8726 -0.5688 -0.8161
  164SAPE  H12B18400  -0.132   2.452   6.149 -0.5548  0.3683  0.5760
  164SAPE   C1118401  -0.108   2.558   6.336 -0.8725 -0.4485  0.8296
  164SAPE  H11A18402  -0.038   2.562   6.422 -0.5685  2.1983  0.5317
  164SAPE  H11B18403  -0.206   2.524   6.375 -1.0216  0.8210  1.6128
  164SAPE     P18404  -0.216   2.792   6.344 -0.2433  0.1870  0.4758
  164SAPE   O1318405  -0.193   2.926   6.279 -0.1708 -0.1026  0.3000
  164SAPE   O1418406  -0.352   2.737   6.348 -0.3947  0.7461  0.2325
  164SAPE   O1218407  -0.119   2.684   6.276  0.2413 -0.0816  0.1419
  164SAPE   O1118408  -0.160   2.798   6.493  0.0741 -0.1207 -0.3729
  164SAPE    C118409  -0.229   2.712   6.591 -0.3702 -0.2749  0.0239
  164SAPE    HA18410  -0.271   2.620   6.546 -0.4163 -0.9991  1.4953
  164SAPE    HB18411  -0.165   2.678   6.675 -1.0628  0.4148  0.8507
  164SAPE    C218412  -0.338   2.776   6.675  0.5584 -0.1277 -0.8840
  164SAPE    HS18413  -0.393   2.840   6.602 -0.4284  1.6134  1.2599
  164SAPE   O2118414  -0.279   2.853   6.772  0.3528  0.3657 -0.3420
  164SAPE   C2118415  -0.340   2.956   6.812 -0.3554 -0.3795  0.0063
  164SAPE   O2218416  -0.448   2.997   6.772 -0.0315 -0.2279 -0.4345
  164SAPE   C2218417  -0.255   3.041   6.920  0.3623 -0.0071  0.2495
  164SAPE   H2R18418  -0.190   2.972   6.978  0.3596 -0.0963  0.1475
  164SAPE   H2S18419  -0.197   3.117   6.862  0.9706 -0.1214  0.6911
  164SAPE    C318420  -0.443   2.679   6.735  0.6368 -0.0445 -0.2020
  164SAPE    HX18421  -0.384   2.622   6.810  0.3591 -1.0077 -0.7025
  164SAPE    HY18422  -0.478   2.595   6.672  1.0657 -0.1037 -0.3652
  164SAPE   O3118423  -0.555   2.734   6.805 -1.2388  0.3428  1.1545
  164SAPE   C3118424  -0.664   2.770   6.732 -0.2569 -0.3770  0.0711
  164SAPE   O3218425  -0.682   2.738   6.614 -0.2906 -0.0930 -0.4858
  164SAPE   C3218426  -0.759   2.853   6.816  0.0046 -0.5856 -0.2823
  164SAPE   H2X18427  -0.820   2.897   6.734  0.8357  0.4951 -0.3387
  164SAPE   H2Y18428  -0.704   2.933   6.870 -0.6548  0.2714 -0.8452
  164SAPE   C2318429  -0.348   3.112   7.025 -0.3652 -0.3534  0.0484
  164SAPE   H3R18430  -0.445   3.066   7.052  0.1969 -2.0171 -0.6348
  164SAPE   H3S18431  -0.368   3.206   6.969  1.6663 -0.5820 -1.1655
  164SAPE   C2418432  -0.271   3.160   7.151 -0.4459  0.4666 -0.3127
  164SAPE   H4R18433  -0.233   3.066   7.197  0.5863 -0.0699 -2.1640
  164SAPE   H4S18434  -0.352   3.201   7.215  0.2013 -0.8552  1.4223
  164SAPE   C2518435  -0.152   3.243   7.136  0.1532 -0.0656 -0.7969
  164SAPE   H5R18436  -0.081   3.222   7.055 -1.0180 -2.7783 -1.2147
  164SAPE   C2618437  -0.119   3.340   7.228  0.3896  0.3294 -0.3947
  164SAPE   H6R18438  -0.025   3.394   7.212  0.8920 -0.4228 -0.0770
  164SAPE   C2718439  -0.193   3.376   7.355 -0.2607 -0.3687  0.2568
  164SAPE   H7R18440  -0.299   3.395   7.329  0.4749  1.0733 -1.9885
  164SAPE   H7S18441  -0.163   3.479   7.381  1.8897 -1.4434  2.4361
  164SAPE   C2818442  -0.176   3.294   7.474  0.6524  0.4845  1.1387
  164SAPE   H8R18443  -0.153   3.188   7.458 -0.0546  0.3979  0.6849
  164SAPE   C2918444  -0.180   3.338   7.602  0.6218  1.4619  0.0706
  164SAPE   H9R18445  -0.174   3.254   7.673 -2.4015  0.0759 -1.1394
  164SAPE  C21018446  -0.204   3.469   7.663 -0.5870 -0.4442  0.6152
  164SAPE  H10R18447  -0.259   3.536   7.594 -0.1962 -0.4395  0.3067
  164SAPE  H10S18448  -0.102   3.511   7.656 -0.8283 -0.1056 -1.8579
  164SAPE  C21118449  -0.260   3.472   7.805 -0.5427 -0.6353  0.3724
  164SAPE  H11R18450  -0.368   3.455   7.794 -0.3390 -0.7737 -1.8473
  164SAPE  C21218451  -0.196   3.486   7.922 -0.6124 -0.5681 -0.9747
  164SAPE  H12R18452  -0.249   3.477   8.018  0.9106  1.1683  0.1078
  164SAPE  C21318453  -0.041   3.489   7.929 -0.0723  0.0343  0.3238
  164SAPE  H13R18454  -0.013   3.589   7.969 -2.3260  0.3862  1.1652
  164SAPE  H13S18455   0.011   3.504   7.832  0.1860  0.0995  0.4713
  164SAPE  C21418456   0.024   3.374   8.012 -0.3435 -0.4856  0.2961
  164SAPE  H14R18457   0.040   3.279   7.959 -0.6458 -0.2860 -0.1562
  164SAPE  C21518458   0.061   3.385   8.141 -0.4653  0.0594  0.8608
  164SAPE  H15R18459   0.106   3.291   8.178 -0.9277 -1.0414 -1.2034
  164SAPE  C21618460   0.048   3.501   8.231 -0.1403 -0.3402 -0.5603
  164SAPE  H16R18461   0.023   3.595   8.178 -1.6437 -0.0326  0.6237
  164SAPE  H16S18462   0.143   3.517   8.287 -0.4172 -0.0220 -0.1731
  164SAPE  C21718463  -0.058   3.477   8.333 -0.4436 -0.1227  0.4923
  164SAPE  H17R18464  -0.049   3.390   8.402 -0.5095  0.6170  1.4525
  164SAPE  H17S18465  -0.144   3.445   8.270  0.4405 -1.1148 -0.2461
  164SAPE  C21818466  -0.096   3.596   8.421  0.0953  0.1053  0.0936
  164SAPE  H18R18467  -0.008   3.612   8.486 -0.1020 -1.2903  0.7506
  164SAPE  H18S18468  -0.172   3.557   8.493 -4.1002  2.6070 -2.5249
  164SAPE  C21918469  -0.145   3.721   8.346  0.8139  0.1971 -0.5175
  164SAPE  H19R18470  -0.226   3.684   8.281  1.2929 -0.1974 -0.8970
  164SAPE  H19S18471  -0.066   3.761   8.278  0.8914 -2.5877 -2.2219
  164SAPE  C22018472  -0.198   3.840   8.428 -0.4471  0.0761 -0.2352
  164SAPE  H20R18473  -0.183   3.937   8.376 -1.0701  0.4353  0.2517
  164SAPE  H20S18474  -0.143   3.842   8.525 -2.4687  1.2507  0.9739
  164SAPE  H20T18475  -0.306   3.834   8.454 -0.3396  1.3147  0.6063
  164SAPE   C3318476  -0.859   2.773   6.902  0.4532  0.0203 -0.5003
  164SAPE   H3X18477  -0.907   2.698   6.835  0.0289 -0.9679  0.8713
  164SAPE   H3Y18478  -0.944   2.839   6.928 -0.4479 -1.4395  0.4159
  164SAPE   C3418479  -0.798   2.701   7.024 -0.0814 -0.4879 -0.5867
  164SAPE   H4X18480  -0.697   2.666   6.993 -0.7112 -0.5904 -2.6908
  164SAPE   H4Y18481  -0.853   2.606   7.040 -1.3108  0.4057  0.6575
  164SAPE   C3518482  -0.797   2.770   7.167  0.5592  0.2967 -0.2665
  164SAPE   H5X18483  -0.784   2.693   7.246 -1.0069  0.7461  0.4695
  164SAPE   H5Y18484  -0.889   2.825   7.195 -0.9379 -1.6225 -1.1499
  164SAPE   C3618485  -0.678   2.866   7.176 -0.2264  0.2200 -0.5351
  164SAPE   H6X18486  -0.684   2.933   7.088 -0.4086 -1.9621 -2.2782
  164SAPE   H6Y18487  -0.594   2.801   7.144  0.4642  1.5180 -1.4574
  164SAPE   C3718488  -0.658   2.927   7.313 -0.1260 -0.0465  0.1218
  164SAPE   H7X18489  -0.633   2.836   7.371  1.7768 -1.5241 -2.7761
  164SAPE   H7Y18490  -0.753   2.974   7.345  0.9487  1.5493  1.0813
  164SAPE   C3818491  -0.550   3.030   7.307 -0.3189 -0.3821 -0.1411
  164SAPE   H8X18492  -0.577   3.097   7.223  0.5008  0.0270 -0.0839
  164SAPE   H8Y18493  -0.457   2.982   7.270  0.7735 -0.2158  2.1727
  164SAPE   C3918494  -0.523   3.099   7.438  0.4328  0.5649 -0.2455
  164SAPE   H9X18495  -0.617   3.143   7.479 -0.9311 -1.2633 -1.2544
  164SAPE   H9Y18496  -0.456   3.187   7.428  0.7202  0.5543  1.3122
  164SAPE  C31018497  -0.450   3.013   7.552  0.6655 -0.1647  0.8138
  164SAPE  H10X18498  -0.349   2.990   7.511 -0.3585 -0.0033 -2.0455
  164SAPE  H10Y18499  -0.516   2.925   7.570 -1.5668  0.6354 -2.5668
  164SAPE  C31118500  -0.434   3.104   7.677  0.0105 -0.4749  0.5680
  164SAPE  H11X18501  -0.430   3.208   7.638 -2.9206 -1.0540 -1.6013
  164SAPE  H11Y18502  -0.337   3.092   7.730 -0.5942  2.4794  2.6323
  164SAPE  C31218503  -0.555   3.100   7.770 -0.2566  0.0021 -0.6173
  164SAPE  H12X18504  -0.571   2.998   7.809  0.9570 -0.6784 -1.7991
  164SAPE  H12Y18505  -0.652   3.120   7.719 -0.3873 -1.1879 -0.8658
  164SAPE  C31318506  -0.555   3.190   7.899  0.5272 -0.5470  0.0123
  164SAPE  H13X18507  -0.658   3.175   7.937  0.4201 -1.2706 -0.5436
  164SAPE  H13Y18508  -0.550   3.291   7.853 -0.7240  0.5556  2.1413
  164SAPE  C31418509  -0.443   3.173   7.998 -0.2033  0.3785 -0.4561
  164SAPE  H14X18510  -0.341   3.175   7.953 -1.1754 -0.2125 -2.8201
  164SAPE  H14Y18511  -0.454   3.071   8.042 -1.5945 -0.2396 -2.1100
  164SAPE  C31518512  -0.454   3.267   8.120 -0.1021 -0.4698 -0.3975
  164SAPE  H15X18513  -0.556   3.264   8.164  0.0755  2.0312  0.3274
  164SAPE  H15Y18514  -0.438   3.368   8.078 -0.1064 -2.2310 -5.2710
  164SAPE  C31618515  -0.351   3.240   8.225 -0.5851  0.1880  0.8676
  164SAPE  H16X18516  -0.254   3.271   8.182  0.7729 -0.2410  3.4058
  164SAPE  H16Y18517  -0.327   3.132   8.237 -1.0944 -0.1938 -1.2058
  164SAPE  C31718518  -0.383   3.293   8.364  1.2153 -0.2331 -0.1838
  164SAPE  H17X18519  -0.435   3.390   8.351  1.9127  0.7644  3.3437
  164SAPE  H17Y18520  -0.291   3.307   8.424  0.3635 -0.8593  1.3106
  164SAPE  C31818521  -0.477   3.201   8.440  0.0507 -0.0402 -0.0145
  164SAPE  H18X18522  -0.497   3.257   8.534 -1.0440  1.6814 -1.2125
  164SAPE  H18Y18523  -0.438   3.101   8.469 -1.3529 -0.3866  0.7830
  164SAPE  H18Z18524  -0.574   3.179   8.391 -0.2956 -1.3221  1.1856
  165SAPE     N18525   1.040   6.092   5.912 -0.1466 -0.3088 -0.0085
  165SAPE   HN118526   0.946   6.079   5.955 -0.9589 -1.0873 -1.9148
  165SAPE   HN218527   1.065   6.192   5.927  0.8156 -0.7331  1.3745
  165SAPE   HN318528   1.038   6.084   5.808  0.3637 -0.8024  0.0107
  165SAPE   C1218529   1.143   5.988   5.951  0.8798  0.0340  0.7370
  165SAPE  H12A18530   1.221   5.994   5.871  0.3954  0.0245  0.2601
  165SAPE  H12B18531   1.089   5.892   5.946  0.8409  0.0717  0.4322
  165SAPE   C1118532   1.198   6.009   6.095 -0.7571  0.1032  0.0306
  165SAPE  H11A18533   1.272   6.092   6.090 -1.2639  0.5249 -4.8833
  165SAPE  H11B18534   1.262   5.920   6.112 -1.0301 -0.2617 -0.8613
  165SAPE     P18535   1.016   5.925   6.258 -0.3392  0.0893 -0.0712
  165SAPE   O1318536   0.926   5.986   6.355 -0.1973  0.3994 -0.1499
  165SAPE   O1418537   0.955   5.841   6.156  0.5372 -0.0952  0.5598
  165SAPE   O1218538   1.096   6.036   6.184  0.3358  0.2950  0.4554
  165SAPE   O1118539   1.121   5.838   6.330 -0.5360 -0.1573 -0.2044
  165SAPE    C118540   1.214   5.901   6.418  0.1943  0.4025  0.2676
  165SAPE    HA18541   1.314   5.870   6.382 -0.5061  1.3310 -2.8147
  165SAPE    HB18542   1.213   6.012   6.431  1.0185  0.5454 -0.7340
  165SAPE    C218543   1.195   5.846   6.563 -0.5378 -0.6083 -0.0033
  165SAPE    HS18544   1.287   5.876   6.617 -0.6852 -1.3900  0.6984
  165SAPE   O2118545   1.180   5.704   6.551  0.0075  0.6996  0.4169
  165SAPE   C2118546   1.229   5.645   6.652 -0.6006  0.6484 -0.1540
  165SAPE   O2218547   1.290   5.695   6.748 -0.1771  0.0240 -0.1110
  165SAPE   C2218548   1.212   5.487   6.641  0.0200 -0.4410  0.2479
  165SAPE   H2R18549   1.110   5.455   6.610  0.4262 -1.5825  0.0349
  165SAPE   H2S18550   1.292   5.448   6.575  0.5754  0.6401  0.2602
  165SAPE    C318551   1.082   5.923   6.633  0.2213 -0.1927 -0.6573
  165SAPE    HX18552   0.990   5.903   6.574 -1.0616  0.6777  0.9493
  165SAPE    HY18553   1.109   6.030   6.638 -1.1116  0.1507 -0.5355
  165SAPE   O3118554   1.061   5.879   6.776 -0.1004  0.3312 -0.8640
  165SAPE   C3118555   1.128   5.940   6.872  0.3580 -0.3884  0.5773
  165SAPE   O3218556   1.212   6.026   6.854 -0.1101 -1.0821  0.6162
  165SAPE   C3218557   1.072   5.894   7.005 -0.3753  0.2180 -0.0027
  165SAPE   H2X18558   1.082   5.783   7.013 -0.8579  0.3173  4.3020
  165SAPE   H2Y18559   0.963   5.913   7.008 -0.4889 -0.4467  0.2890
  165SAPE   C2318560   1.240   5.427   6.782  0.1858  0.6017 -0.0422
  165SAPE   H3R18561   1.340   5.459   6.819  0.6314 -3.0349  2.3947
  165SAPE   H3S18562   1.238   5.316   6.776 -0.9578  0.5709  0.6318
  165SAPE   C2418563   1.144   5.457   6.901 -0.9303  0.1183  0.2235
  165SAPE   H4R18564   1.042   5.422   6.876 -0.9107  0.4450 -0.3249
  165SAPE   H4S18565   1.140   5.569   6.901  0.4506  0.1787 -0.5107
  165SAPE   C2518566   1.187   5.387   7.029 -0.1964 -0.3705  0.3177
  165SAPE   H5R18567   1.175   5.278   7.030  1.1884 -0.5384  1.3724
  165SAPE   C2618568   1.249   5.445   7.131 -0.7495 -0.2666  0.7880
  165SAPE   H6R18569   1.261   5.384   7.222 -0.5569  0.9603  1.6064
  165SAPE   C2718570   1.283   5.592   7.147  0.4497  0.2703 -0.7268
  165SAPE   H7R18571   1.185   5.642   7.155  0.9963  1.3145 -0.3291
  165SAPE   H7S18572   1.334   5.630   7.056 -0.6169  0.9585 -1.0526
  165SAPE   C2818573   1.359   5.626   7.277  0.7180 -0.1504  0.4975
  165SAPE   H8R18574   1.465   5.656   7.271  0.2540  1.4244 -0.0726
  165SAPE   C2918575   1.307   5.609   7.403 -0.9362  0.6322  0.2855
  165SAPE   H9R18576   1.354   5.649   7.494  0.0213 -3.6362  1.9263
  165SAPE  C21018577   1.170   5.560   7.438 -0.5308 -0.7461 -0.0663
  165SAPE  H10R18578   1.110   5.525   7.351  0.1531 -2.1235 -0.0062
  165SAPE  H10S18579   1.117   5.647   7.482  1.6518  1.6963 -1.9728
  165SAPE  C21118580   1.188   5.450   7.539 -0.0196  0.1689 -0.3499
  165SAPE  H11R18581   1.175   5.348   7.500 -0.4465 -0.7238  1.9920
  165SAPE  C21218582   1.187   5.456   7.673 -0.8302 -0.0184 -0.1778
  165SAPE  H12R18583   1.184   5.362   7.729  1.3954 -0.8597 -1.3426
  165SAPE  C21318584   1.171   5.572   7.762 -0.0653  0.4678 -0.1782
  165SAPE  H13R18585   1.119   5.646   7.699  0.5492 -1.0640 -2.6229
  165SAPE  H13S18586   1.270   5.620   7.780 -0.2822  0.6543  0.5541
  165SAPE  C21418587   1.084   5.547   7.887 -0.4236 -0.1616 -0.9209
  165SAPE  H14R18588   1.049   5.443   7.895  0.1578 -0.6006 -3.3998
  165SAPE  C21518589   1.040   5.643   7.974 -0.0833 -0.8649  0.7240
  165SAPE  H15R18590   0.981   5.604   8.059 -0.7370  0.2515  0.8078
  165SAPE  C21618591   1.071   5.796   7.974  0.9208 -0.2381  0.7002
  165SAPE  H16R18592   0.990   5.870   7.956  0.6569 -0.3093  1.5745
  165SAPE  H16S18593   1.134   5.817   7.885 -1.8794 -1.0244 -1.6138
  165SAPE  C21718594   1.164   5.822   8.098 -0.1208 -0.0958 -0.0693
  165SAPE  H17R18595   1.197   5.927   8.084  0.1878 -0.1475  0.2526
  165SAPE  H17S18596   1.246   5.751   8.075 -0.5562 -0.5017 -0.3991
  165SAPE  C21818597   1.089   5.814   8.230  0.3296  0.5510 -0.0575
  165SAPE  H18R18598   1.035   5.719   8.247  0.2959  0.3825 -1.0364
  165SAPE  H18S18599   1.008   5.890   8.218  0.8708  0.8315 -2.6119
  165SAPE  C21918600   1.171   5.861   8.351 -0.0431 -0.0810  0.2011
  165SAPE  H19R18601   1.200   5.968   8.345 -2.2329  0.7617  2.6895
  165SAPE  H19S18602   1.258   5.796   8.375  0.8422  1.3801  1.1047
  165SAPE  C22018603   1.095   5.874   8.486  0.6554  0.1935 -0.2872
  165SAPE  H20R18604   1.025   5.961   8.479 -0.7609 -0.9700 -1.2779
  165SAPE  H20S18605   1.167   5.899   8.566 -0.0565 -1.6930  1.0034
  165SAPE  H20T18606   1.038   5.789   8.529 -1.8776  2.4287  1.0656
  165SAPE   C3318607   1.132   5.964   7.134  0.4583  0.4302  0.9349
  165SAPE   H3X18608   1.131   6.073   7.110 -3.9993 -0.1161 -3.0195
  165SAPE   H3Y18609   1.239   5.934   7.140  0.4136 -0.1356 -0.6858
  165SAPE   C3418610   1.045   5.941   7.257 -0.0194 -1.0037  0.6801
  165SAPE   H4X18611   1.038   5.830   7.266 -1.5123 -0.9385  0.5690
  165SAPE   H4Y18612   0.939   5.970   7.241  0.2153 -0.0130  0.8613
  165SAPE   C3518613   1.111   5.988   7.387  0.4218 -0.3008  0.2606
  165SAPE   H5X18614   1.158   6.088   7.375 -0.3631  0.2891  1.8426
  165SAPE   H5Y18615   1.190   5.917   7.419  0.4474 -0.2358  0.3440
  165SAPE   C3618616   1.016   5.993   7.504 -0.0693 -0.0035  0.1413
  165SAPE   H6X18617   0.963   5.896   7.512 -1.6236  0.4890 -2.8792
  165SAPE   H6Y18618   0.939   6.069   7.477  1.6831  1.6845 -0.3446
  165SAPE   C3718619   1.075   6.051   7.631  0.5209  0.6514  0.4739
  165SAPE   H7X18620   1.092   6.158   7.609  4.1911  0.2016  0.4276
  165SAPE   H7Y18621   1.163   5.984   7.646 -0.8668 -1.7441 -1.3697
  165SAPE   C3818622   0.977   6.043   7.744  0.0831  0.5088 -0.4178
  165SAPE   H8X18623   1.034   6.043   7.839  1.1480 -1.3028 -1.0085
  165SAPE   H8Y18624   0.925   5.945   7.751  1.8095 -0.3997  0.0963
  165SAPE   C3918625   0.878   6.157   7.764  0.3129 -0.1309  0.1382
  165SAPE   H9X18626   0.795   6.140   7.692 -0.2298 -2.4851  1.2402
  165SAPE   H9Y18627   0.913   6.261   7.746  0.0316 -0.1271 -0.4013
  165SAPE  C31018628   0.824   6.167   7.912  0.1839 -0.4933  0.6161
  165SAPE  H10X18629   0.911   6.167   7.981  1.3684  1.2416 -0.7505
  165SAPE  H10Y18630   0.756   6.086   7.946 -0.9235  0.6658  1.2483
  165SAPE  C31118631   0.753   6.302   7.937 -0.1221 -0.3190  1.1728
  165SAPE  H11X18632   0.671   6.309   7.863  1.6447  0.4453 -0.8288
  165SAPE  H11Y18633   0.818   6.392   7.945 -0.9189  0.4022 -0.2070
  165SAPE  C31218634   0.675   6.300   8.068 -0.2095  0.2287  0.0256
  165SAPE  H12X18635   0.586   6.234   8.056 -0.0582 -0.4824  2.2456
  165SAPE  H12Y18636   0.636   6.402   8.090  0.2476  0.2303  0.8800
  165SAPE  C31318637   0.743   6.273   8.205  0.4178  0.0796  0.5752
  165SAPE  H13X18638   0.825   6.345   8.226  2.0835 -1.5131 -0.1563
  165SAPE  H13Y18639   0.799   6.177   8.203  0.7614  0.2791 -1.3225
  165SAPE  C31418640   0.640   6.263   8.317 -0.7409  1.3875 -0.3641
  165SAPE  H14X18641   0.562   6.190   8.286  0.5491 -0.7125  1.1496
  165SAPE  H14Y18642   0.589   6.359   8.342 -1.0899  1.5145 -1.4826
  165SAPE  C31518643   0.701   6.204   8.452 -0.4477 -0.2989  0.0779
  165SAPE  H15X18644   0.739   6.103   8.425  1.1050 -0.1059  1.3953
  165SAPE  H15Y18645   0.623   6.179   8.527  0.4844 -1.5143  0.6802
  165SAPE  C31618646   0.799   6.306   8.524  0.3664  0.1574  0.1484
  165SAPE  H16X18647   0.755   6.407   8.526 -0.4982 -0.2216  0.7431
  165SAPE  H16Y18648   0.895   6.317   8.469  1.1591  0.4307  1.5477
  165SAPE  C31718649   0.842   6.274   8.670  0.6143 -0.5241 -0.9892
  165SAPE  H17X18650   0.755   6.276   8.738  0.4267  0.7880 -1.2366
  165SAPE  H17Y18651   0.921   6.347   8.701  0.4029 -0.5991 -0.2717
  165SAPE  C31818652   0.921   6.147   8.686 -0.3386  0.2495 -0.1784
  165SAPE  H18X18653   0.873   6.063   8.633 -1.0503  1.6125 -1.7857
  165SAPE  H18Y18654   0.933   6.124   8.794 -3.3383  1.5163  0.5290
  165SAPE  H18Z18655   1.026   6.157   8.651 -0.2183 -0.2141  0.0415
  166SAPE     N18656   4.882   3.240   6.044  0.0123 -0.0399 -0.1866
  166SAPE   HN118657   4.799   3.195   5.999 -0.4558  0.1861  0.4367
  166SAPE   HN218658   4.963   3.175   6.048  0.1257 -0.1390 -2.6587
  166SAPE   HN318659   4.861   3.266   6.142  2.6196 -0.0565  0.4401
  166SAPE   C1218660   4.920   3.369   5.973 -0.0382  0.5104 -0.4352
  166SAPE  H12A18661   4.958   3.339   5.874  2.2645  1.8208 -0.0040
  166SAPE  H12B18662   4.988   3.425   6.041  0.5163  0.0257 -0.5841
  166SAPE   C1118663   4.788   3.452   5.958 -0.9466  0.1041  0.2375
  166SAPE  H11A18664   4.733   3.454   6.055  0.7161 -0.6729  1.2425
  166SAPE  H11B18665   4.725   3.402   5.881  0.4983  0.2869 -1.1128
  166SAPE     P18666   4.716   3.702   5.951  0.2302 -0.0169 -0.1167
  166SAPE   O1318667   4.780   3.830   5.912 -0.0558 -0.4850 -0.3416
  166SAPE   O1418668   4.586   3.671   5.892  0.0346 -0.0718 -0.0759
  166SAPE   O1218669   4.820   3.587   5.910 -0.2125 -0.6062  0.0121
  166SAPE   O1118670   4.717   3.706   6.107 -0.0795 -0.0007 -0.5464
  166SAPE    C118671   4.839   3.729   6.186  0.1537  0.2133 -0.3898
  166SAPE    HA18672   4.931   3.738   6.126 -0.2940  3.5622 -0.7477
  166SAPE    HB18673   4.831   3.819   6.252  3.2701  0.6741 -0.5189
  166SAPE    C218674   4.868   3.608   6.279  0.3594  0.1286  0.3767
  166SAPE    HS18675   4.890   3.522   6.212 -1.9413 -0.6242  0.5264
  166SAPE   O2118676   4.759   3.577   6.365 -0.2670 -0.6266 -0.0371
  166SAPE   C2118677   4.710   3.453   6.352 -0.1324 -0.0267 -0.2334
  166SAPE   O2218678   4.755   3.365   6.282 -0.1736  0.8839 -0.2538
  166SAPE   C2218679   4.591   3.429   6.449 -0.2460 -0.5158  0.1208
  166SAPE   H2R18680   4.560   3.524   6.498 -0.5393 -1.5692  2.0929
  166SAPE   H2S18681   4.504   3.407   6.384 -0.0338  0.9564 -0.7075
  166SAPE    C318682   4.981   3.651   6.373  0.3115 -0.0090  0.1896
  166SAPE    HX18683   4.949   3.731   6.443  0.0176  0.4741 -0.4892
  166SAPE    HY18684   5.065   3.695   6.314  0.5451 -1.3290 -0.5074
  166SAPE   O3118685   5.031   3.551   6.464 -0.2132 -0.4335  0.4031
  166SAPE   C3118686   5.138   3.580   6.528  0.0285  0.3586 -1.0383
  166SAPE   O3218687   5.196   3.687   6.525 -0.0532  0.1766  0.1607
  166SAPE   C3218688   5.180   3.464   6.606 -0.3685  0.4199  0.6345
  166SAPE   H2X18689   5.223   3.389   6.536 -1.9524 -0.7710  0.8591
  166SAPE   H2Y18690   5.084   3.426   6.648 -0.7354  1.0584  0.3896
  166SAPE   C2318691   4.630   3.328   6.565  0.2844 -0.2797  0.2186
  166SAPE   H3R18692   4.642   3.226   6.522  2.3463  0.1191 -0.2611
  166SAPE   H3S18693   4.543   3.315   6.632 -0.0643 -0.6582 -0.3001
  166SAPE   C2418694   4.750   3.360   6.650 -0.3903  0.1821 -0.3514
  166SAPE   H4R18695   4.843   3.346   6.591 -1.6239  2.4328 -3.0765
  166SAPE   H4S18696   4.747   3.286   6.733 -1.0591  2.8357  2.1703
  166SAPE   C2518697   4.745   3.504   6.708  0.6135 -0.0357  0.1480
  166SAPE   H5R18698   4.729   3.576   6.626 -2.0659 -1.3624 -0.6289
  166SAPE   C2618699   4.737   3.544   6.836  0.6140  0.1507  0.0569
  166SAPE   H6R18700   4.739   3.653   6.849  0.2627 -0.0941  2.6054
  166SAPE   C2718701   4.741   3.459   6.962  0.1185 -0.4444 -0.0684
  166SAPE   H7R18702   4.832   3.491   7.017  0.3319  0.4367 -0.9033
  166SAPE   H7S18703   4.758   3.352   6.940  1.8316 -0.5276  1.4661
  166SAPE   C2818704   4.629   3.493   7.067 -0.4471  0.4996 -0.6971
  166SAPE   H8R18705   4.547   3.558   7.032  0.3426  3.3263  2.2029
  166SAPE   C2918706   4.617   3.430   7.186  0.4275 -0.2255  0.4403
  166SAPE   H9R18707   4.532   3.456   7.251 -0.1445 -2.8251  0.8315
  166SAPE  C21018708   4.709   3.320   7.244 -0.2341 -0.0595 -0.1565
  166SAPE  H10R18709   4.722   3.244   7.163 -2.8567 -0.9717  0.1807
  166SAPE  H10S18710   4.648   3.252   7.307 -3.2359  0.0644 -2.6787
  166SAPE  C21118711   4.837   3.375   7.298  0.0627 -0.0436  0.1260
  166SAPE  H11R18712   4.912   3.399   7.222 -0.3093  1.9154  0.3364
  166SAPE  C21218713   4.862   3.413   7.423 -0.4788 -0.0547  0.5233
  166SAPE  H12R18714   4.966   3.438   7.445  0.1349 -2.7678  1.0431
  166SAPE  C21318715   4.767   3.406   7.540 -0.0670 -0.4341 -0.3403
  166SAPE  H13R18716   4.663   3.389   7.507 -0.7786 -1.7712  2.3393
  166SAPE  H13S18717   4.761   3.506   7.588 -0.8652 -1.6927  2.3668
  166SAPE  C21418718   4.797   3.302   7.645  0.5258 -0.1064  0.1519
  166SAPE  H14R18719   4.791   3.198   7.611 -0.6551  0.0248 -0.0865
  166SAPE  C21518720   4.813   3.317   7.778 -0.2012 -0.0266  0.2909
  166SAPE  H15R18721   4.840   3.231   7.840  1.5330 -0.0062 -0.3705
  166SAPE  C21618722   4.801   3.443   7.860 -0.2562 -0.5840 -0.7927
  166SAPE  H16R18723   4.840   3.528   7.801 -1.9024 -0.3181 -1.5445
  166SAPE  H16S18724   4.883   3.426   7.934  0.7372  0.8862 -1.4885
  166SAPE  C21718725   4.661   3.483   7.918  0.4260 -0.8099 -0.0726
  166SAPE  H17R18726   4.581   3.480   7.841  0.3560  0.5945 -0.0654
  166SAPE  H17S18727   4.669   3.587   7.955  1.1248 -0.7476 -0.3798
  166SAPE  C21818728   4.622   3.405   8.047  0.2712  0.2986  0.4183
  166SAPE  H18R18729   4.628   3.305   7.997 -1.0828  0.5248 -0.2612
  166SAPE  H18S18730   4.518   3.434   8.073  0.6036  2.8578 -0.7831
  166SAPE  C21918731   4.724   3.433   8.164 -0.2803 -0.1065 -0.3770
  166SAPE  H19R18732   4.825   3.404   8.128  0.2961 -0.3889  1.3642
  166SAPE  H19S18733   4.687   3.363   8.242 -2.8522  1.5935  0.0467
  166SAPE  C22018734   4.711   3.576   8.217 -0.3289 -0.5623  0.4333
  166SAPE  H20R18735   4.765   3.590   8.313 -1.1971  2.4249  0.5944
  166SAPE  H20S18736   4.604   3.602   8.235  0.5993  0.9923  5.3213
  166SAPE  H20T18737   4.752   3.655   8.151 -1.9608  0.9363  1.1211
  166SAPE   C3318738   5.268   3.492   6.728 -0.5491  0.1540  0.4665
  166SAPE   H3X18739   5.340   3.571   6.699 -0.1949 -0.2245  0.3064
  166SAPE   H3Y18740   5.331   3.402   6.747  0.6006  1.2418  2.1269
  166SAPE   C3418741   5.189   3.509   6.854  0.9421 -0.1080 -0.1946
  166SAPE   H4X18742   5.117   3.425   6.854  0.4369  0.2698 -1.9187
  166SAPE   H4Y18743   5.132   3.605   6.844 -1.5480 -1.6872 -2.9943
  166SAPE   C3518744   5.273   3.495   6.984 -0.1709 -0.1153  0.1078
  166SAPE   H5X18745   5.342   3.581   7.002  0.8735 -0.4069 -2.1980
  166SAPE   H5Y18746   5.334   3.402   6.991  1.8472  1.1990  0.8106
  166SAPE   C3618747   5.177   3.480   7.108 -0.1838  0.3644  0.4688
  166SAPE   H6X18748   5.103   3.399   7.090 -0.1711  0.0570  1.7106
  166SAPE   H6Y18749   5.107   3.567   7.105  0.8757  1.3672  2.6430
  166SAPE   C3718750   5.252   3.450   7.243 -0.4971 -0.3018 -0.5873
  166SAPE   H7X18751   5.176   3.461   7.324 -1.3859 -2.5290 -1.0511
  166SAPE   H7Y18752   5.329   3.529   7.256 -1.2752  0.2036  1.3280
  166SAPE   C3818753   5.317   3.312   7.246  0.3892 -0.1583  0.4104
  166SAPE   H8X18754   5.382   3.280   7.162  0.4943  1.7610 -0.2801
  166SAPE   H8Y18755   5.236   3.237   7.252  1.0024 -0.8607  0.0403
  166SAPE   C3918756   5.396   3.292   7.376 -0.1630  0.2637 -0.4415
  166SAPE   H9X18757   5.484   3.360   7.385  2.6462 -3.2948  1.5366
  166SAPE   H9Y18758   5.450   3.195   7.373 -1.1844 -0.3745  0.8026
  166SAPE  C31018759   5.317   3.303   7.506 -0.1136  0.2465 -0.2985
  166SAPE  H10X18760   5.241   3.224   7.526 -0.6955  1.1090  1.0742
  166SAPE  H10Y18761   5.256   3.396   7.504 -0.4834  0.0118 -2.6665
  166SAPE  C31118762   5.392   3.315   7.643 -0.1682  0.5747  0.1096
  166SAPE  H11X18763   5.440   3.414   7.631 -0.7020  0.6514 -1.8729
  166SAPE  H11Y18764   5.469   3.237   7.628  0.8584  1.4055  1.0112
  166SAPE  C31218765   5.303   3.308   7.769 -0.7474 -0.2938 -0.7240
  166SAPE  H12X18766   5.243   3.214   7.770 -2.4788  0.7650 -0.0787
  166SAPE  H12Y18767   5.231   3.392   7.769 -1.7463 -1.1216 -0.6051
  166SAPE  C31318768   5.387   3.342   7.899 -0.1752  0.2282  0.4588
  166SAPE  H13X18769   5.418   3.449   7.888  0.5654 -0.1863 -2.1585
  166SAPE  H13Y18770   5.471   3.270   7.897  0.1140  0.4788  1.8254
  166SAPE  C31418771   5.295   3.322   8.023 -0.0243  0.2184 -0.4203
  166SAPE  H14X18772   5.239   3.227   8.016  1.9080 -0.9273 -1.0519
  166SAPE  H14Y18773   5.213   3.398   8.017 -0.9231 -0.7844 -1.2262
  166SAPE  C31518774   5.363   3.318   8.162  0.4890 -0.3966 -0.5748
  166SAPE  H15X18775   5.441   3.393   8.184  1.1540 -1.1848 -0.1876
  166SAPE  H15Y18776   5.414   3.219   8.173  1.2742  0.0783  0.1387
  166SAPE  C31618777   5.265   3.321   8.278  0.6894 -0.2778  0.3333
  166SAPE  H16X18778   5.187   3.242   8.268 -1.6893  1.9149  0.7340
  166SAPE  H16Y18779   5.215   3.419   8.270  1.1457 -0.0618  0.0265
  166SAPE  C31718780   5.340   3.312   8.407 -0.6674  0.0984 -0.6670
  166SAPE  H17X18781   5.434   3.371   8.402  0.3179 -0.8391  3.1970
  166SAPE  H17Y18782   5.364   3.206   8.429  1.1401  0.9506  2.0389
  166SAPE  C31818783   5.263   3.370   8.532 -0.2089  0.0550  0.2339
  166SAPE  H18X18784   5.161   3.329   8.550  1.0451 -2.4246  2.4303
  166SAPE  H18Y18785   5.255   3.481   8.521 -2.7076 -0.2608 -2.2473
  166SAPE  H18Z18786   5.311   3.348   8.630 -0.6298 -4.3228 -0.3721
  167SAPE     N18787   2.818   3.870   6.057  0.2826 -0.4813  0.0514
  167SAPE   HN118788   2.816   3.824   5.964 -3.8873 -0.1930 -0.1690
  167SAPE   HN218789   2.751   3.949   6.053 -1.0098 -1.5889 -1.2916
  167SAPE   HN318790   2.912   3.909   6.078  0.0395 -0.1465  0.5343
  167SAPE   C1218791   2.792   3.756   6.147  0.6966  0.4222  0.3271
  167SAPE  H12A18792   2.850   3.766   6.242 -0.3631 -0.4133  1.0847
  167SAPE  H12B18793   2.834   3.666   6.098  0.5808  0.8188 -0.5087
  167SAPE   C1118794   2.643   3.718   6.162  0.4900  0.4068 -0.0438
  167SAPE  H11A18795   2.639   3.628   6.227 -0.1118  0.5269  0.0938
  167SAPE  H11B18796   2.587   3.690   6.070  0.2133  0.8457 -0.0099
  167SAPE     P18797   2.410   3.822   6.254 -0.1148 -0.3183 -0.2407
  167SAPE   O1318798   2.367   3.958   6.289  0.2407 -0.5700 -0.4666
  167SAPE   O1418799   2.341   3.770   6.131  0.6460 -0.1306 -0.1935
  167SAPE   O1218800   2.570   3.824   6.227 -0.0941  0.2302  0.0598
  167SAPE   O1118801   2.389   3.723   6.378  0.1122 -0.0882  0.3041
  167SAPE    C118802   2.493   3.715   6.479 -0.2579  0.4498  0.2623
  167SAPE    HA18803   2.535   3.612   6.475 -1.5638 -0.1363  0.8183
  167SAPE    HB18804   2.567   3.797   6.465 -1.4657  1.5096 -0.0724
  167SAPE    C218805   2.439   3.729   6.624  0.1590 -0.3182  0.2698
  167SAPE    HS18806   2.337   3.687   6.611 -1.0749  2.5795 -0.1997
  167SAPE   O2118807   2.423   3.870   6.650 -0.8368 -0.0932 -0.0307
  167SAPE   C2118808   2.328   3.903   6.729 -0.4700 -0.4150  0.2703
  167SAPE   O2218809   2.235   3.825   6.760  0.2674  0.1702  0.1539
  167SAPE   C2218810   2.346   4.060   6.758 -0.2110 -0.1161 -0.3042
  167SAPE   H2R18811   2.444   4.061   6.810 -0.0446 -2.4965 -0.4763
  167SAPE   H2S18812   2.363   4.108   6.659  1.3808 -0.0581 -0.0235
  167SAPE    C318813   2.521   3.660   6.735 -0.0152  0.4970  0.0702
  167SAPE    HX18814   2.623   3.703   6.741 -0.5422  2.5042 -2.7446
  167SAPE    HY18815   2.537   3.554   6.708  0.1722  0.0486  1.8478
  167SAPE   O3118816   2.460   3.681   6.868  0.1676  0.4609  0.4502
  167SAPE   C3118817   2.390   3.585   6.925 -0.0216  0.3568  0.2696
  167SAPE   O3218818   2.358   3.479   6.878 -0.4718  0.0015  0.4684
  167SAPE   C3218819   2.382   3.620   7.074 -0.2598 -0.2398 -0.4397
  167SAPE   H2X18820   2.352   3.725   7.096 -3.1530 -1.2494  0.9529
  167SAPE   H2Y18821   2.487   3.604   7.108  0.0564 -1.9297 -2.0965
  167SAPE   C2318822   2.234   4.114   6.845 -0.4374  0.4924 -0.0007
  167SAPE   H3R18823   2.134   4.075   6.818 -1.1214  1.3904  1.1090
  167SAPE   H3S18824   2.224   4.224   6.830  3.7881  1.0168 -0.2459
  167SAPE   C2418825   2.260   4.105   6.995 -0.3858  0.4234  0.2288
  167SAPE   H4R18826   2.219   4.195   7.046 -1.0378  0.6771 -0.7295
  167SAPE   H4S18827   2.369   4.102   7.013 -0.0969  3.1212 -0.7244
  167SAPE   C2518828   2.198   3.980   7.055  0.1766 -0.9554  0.1576
  167SAPE   H5R18829   2.126   3.931   6.987 -0.7986  1.2526 -0.5040
  167SAPE   C2618830   2.229   3.928   7.171  0.0436 -0.4005 -0.1594
  167SAPE   H6R18831   2.175   3.833   7.186  1.4598 -1.3072 -0.5718
  167SAPE   C2718832   2.316   3.984   7.281  0.3105  0.4629 -0.3639
  167SAPE   H7R18833   2.376   4.069   7.241  1.5307 -0.9859 -1.7932
  167SAPE   H7S18834   2.401   3.916   7.306  1.1016  2.2018  1.9160
  167SAPE   C2818835   2.238   4.023   7.403 -0.2150 -0.0306 -0.4116
  167SAPE   H8R18836   2.130   4.039   7.388 -0.1101  0.3485 -0.7738
  167SAPE   C2918837   2.284   4.049   7.530  0.2355  0.3408 -0.4128
  167SAPE   H9R18838   2.210   4.059   7.612 -0.2652 -0.2242 -0.7912
  167SAPE  C21018839   2.427   4.031   7.574 -0.2429  0.7763 -1.1222
  167SAPE  H10R18840   2.501   4.002   7.496  0.9860 -0.9226  0.5804
  167SAPE  H10S18841   2.430   3.941   7.639  0.4762  2.0870  0.7505
  167SAPE  C21118842   2.461   4.159   7.657  0.5410 -0.7356  0.7392
  167SAPE  H11R18843   2.436   4.247   7.597 -3.3994 -1.7976  0.5596
  167SAPE  C21218844   2.503   4.162   7.781  0.2058  0.0794  0.3364
  167SAPE  H12R18845   2.518   4.258   7.833 -0.2676  0.0419  0.5423
  167SAPE  C21318846   2.518   4.041   7.871 -0.6281  0.3358  0.5631
  167SAPE  H13R18847   2.621   4.035   7.911 -0.6178 -2.2267  0.2754
  167SAPE  H13S18848   2.496   3.949   7.813 -0.4461  0.4940  0.2408
  167SAPE  C21418849   2.422   4.046   7.984  0.1021  0.1357 -0.1477
  167SAPE  H14R18850   2.339   3.974   7.977 -0.5881  0.6717  1.7184
  167SAPE  C21518851   2.421   4.127   8.085  0.3157 -0.1844 -0.1983
  167SAPE  H15R18852   2.331   4.117   8.147  0.8369 -1.2556  0.4179
  167SAPE  C21618853   2.518   4.236   8.125 -0.3230  0.3042 -0.2213
  167SAPE  H16R18854   2.465   4.333   8.133 -1.2379 -0.3096  2.4093
  167SAPE  H16S18855   2.595   4.245   8.046 -1.4218  1.0095 -1.2442
  167SAPE  C21718856   2.586   4.204   8.259  0.1171 -0.4357 -0.3064
  167SAPE  H17R18857   2.675   4.266   8.283  0.2358 -1.2266  1.4476
  167SAPE  H17S18858   2.647   4.112   8.245  0.7682 -0.0119 -0.2925
  167SAPE  C21818859   2.499   4.193   8.382  0.2937 -0.3197  0.6441
  167SAPE  H18R18860   2.419   4.122   8.352  1.5807 -0.3421 -3.2065
  167SAPE  H18S18861   2.458   4.293   8.407  0.8582  0.7845 -2.3960
  167SAPE  C21918862   2.564   4.136   8.510  0.6973  0.3158 -0.0733
  167SAPE  H19R18863   2.497   4.161   8.595  2.1265 -3.0604  2.2461
  167SAPE  H19S18864   2.665   4.179   8.529  1.4018 -0.9588 -0.7876
  167SAPE  C22018865   2.573   3.975   8.502  0.1431 -0.3961 -0.1561
  167SAPE  H20R18866   2.618   3.931   8.594 -1.7868 -1.5048  0.3195
  167SAPE  H20S18867   2.637   3.941   8.419 -0.3761 -0.9359 -0.3499
  167SAPE  H20T18868   2.474   3.925   8.490  0.5664 -1.7094  1.4090
  167SAPE   C3318869   2.291   3.530   7.156  0.6227 -0.5934 -0.0935
  167SAPE   H3X18870   2.296   3.423   7.127 -0.2131 -0.4509 -0.8210
  167SAPE   H3Y18871   2.186   3.549   7.125  0.3498  1.6841  1.9358
  167SAPE   C3418872   2.291   3.562   7.309 -0.1279  0.1678  1.2020
  167SAPE   H4X18873   2.298   3.673   7.318  0.9268  0.1989  0.1942
  167SAPE   H4Y18874   2.391   3.524   7.338  0.9507  1.8169 -0.1059
  167SAPE   C3518875   2.177   3.508   7.383 -0.1087 -0.4548 -0.2390
  167SAPE   H5X18876   2.182   3.398   7.400  0.3372 -0.1547  1.9229
  167SAPE   H5Y18877   2.081   3.526   7.330  0.4175  0.3466 -0.9361
  167SAPE   C3618878   2.170   3.568   7.523 -0.3572  0.1498 -0.1957
  167SAPE   H6X18879   2.278   3.561   7.549  0.4570  2.5243 -2.4746
  167SAPE   H6Y18880   2.098   3.509   7.583 -0.5856  0.1285 -0.4902
  167SAPE   C3718881   2.125   3.710   7.538  0.1325  0.2531 -0.1517
  167SAPE   H7X18882   2.045   3.716   7.461 -0.0023  0.9124  0.0366
  167SAPE   H7Y18883   2.191   3.790   7.499  0.9351 -0.8469 -1.0924
  167SAPE   C3818884   2.081   3.738   7.680 -0.4456  0.3072  0.0895
  167SAPE   H8X18885   2.002   3.667   7.710 -0.1326 -1.6379 -3.2004
  167SAPE   H8Y18886   2.040   3.840   7.699  0.0003  0.3450  0.8837
  167SAPE   C3918887   2.201   3.723   7.778  0.2436  0.1002 -0.4234
  167SAPE   H9X18888   2.291   3.787   7.765 -0.0905  0.9138  1.0846
  167SAPE   H9Y18889   2.236   3.618   7.772  1.7824  0.6032 -0.6087
  167SAPE  C31018890   2.151   3.733   7.927  0.3096 -0.0292  0.3387
  167SAPE  H10X18891   2.060   3.675   7.952  0.2522 -0.9756 -1.8681
  167SAPE  H10Y18892   2.121   3.838   7.947 -0.3529 -0.5664  2.4820
  167SAPE  C31118893   2.246   3.696   8.043 -0.1097  0.4985  0.3162
  167SAPE  H11X18894   2.352   3.724   8.022  0.4297 -0.6948  1.3380
  167SAPE  H11Y18895   2.250   3.588   8.068  0.0036  0.5302  0.4394
  167SAPE  C31218896   2.214   3.757   8.176 -0.5135 -0.8355 -0.3621
  167SAPE  H12X18897   2.216   3.868   8.162 -0.7107 -0.9654 -1.5286
  167SAPE  H12Y18898   2.280   3.736   8.262 -0.2422 -0.5673 -0.5020
  167SAPE  C31318899   2.069   3.722   8.222  0.7192 -0.6454 -0.3627
  167SAPE  H13X18900   1.992   3.765   8.155 -1.7170 -1.2601  1.8587
  167SAPE  H13Y18901   2.044   3.775   8.317 -1.8056 -0.6303 -0.9505
  167SAPE  C31418902   2.039   3.574   8.244  0.2179  0.7926 -0.5141
  167SAPE  H14X18903   2.113   3.544   8.322  1.8962  0.8440 -2.0274
  167SAPE  H14Y18904   2.061   3.512   8.154  1.3162  1.0355 -0.4312
  167SAPE  C31518905   1.898   3.534   8.294 -0.1387  0.1587 -0.0342
  167SAPE  H15X18906   1.826   3.589   8.230 -0.6434 -0.0314  0.3577
  167SAPE  H15Y18907   1.882   3.570   8.398 -0.4693 -1.8145  0.6357
  167SAPE  C31618908   1.867   3.382   8.292  0.7837  1.1538  0.3055
  167SAPE  H16X18909   1.948   3.330   8.347 -0.2214  0.6129  1.3127
  167SAPE  H16Y18910   1.865   3.337   8.191 -0.4798  1.0192  0.3704
  167SAPE  C31718911   1.741   3.336   8.363  0.1566  0.1686 -0.7160
  167SAPE  H17X18912   1.650   3.352   8.301  0.5224  0.6068 -1.1488
  167SAPE  H17Y18913   1.718   3.380   8.462 -1.1689  0.1068 -0.9795
  167SAPE  C31818914   1.739   3.183   8.384 -0.1034  0.0859 -0.0131
  167SAPE  H18X18915   1.825   3.158   8.449 -0.9261 -1.0689  0.6710
  167SAPE  H18Y18916   1.751   3.126   8.289 -0.7382  0.3773 -0.2761
  167SAPE  H18Z18917   1.647   3.158   8.442 -0.7701  3.0156  0.3590
  168SAPE     N18918   0.683   4.288   6.447  0.7368 -0.1052 -0.5017
  168SAPE   HN118919   0.591   4.337   6.452  1.9784  2.2075  3.4812
  168SAPE   HN218920   0.678   4.211   6.377 -1.3098 -0.3997 -0.1007
  168SAPE   HN318921   0.708   4.254   6.542  0.5181  1.5078  0.1572
  168SAPE   C1218922   0.790   4.387   6.417  0.7092 -0.1668  0.1954
  168SAPE  H12A18923   0.780   4.408   6.308 -0.9946 -2.0924 -0.0717
  168SAPE  H12B18924   0.882   4.326   6.431 -0.4416 -1.8542  0.7036
  168SAPE   C1118925   0.777   4.509   6.516  0.0287  0.2994 -0.2180
  168SAPE  H11A18926   0.785   4.475   6.621  1.9443  2.0108  0.2531
  168SAPE  H11B18927   0.677   4.551   6.492 -0.7582 -1.8178 -0.8564
  168SAPE     P18928   0.866   4.731   6.403 -0.2539  0.3047 -0.3258
  168SAPE   O1318929   0.888   4.680   6.269 -0.1572 -0.2143 -0.3433
  168SAPE   O1418930   0.744   4.807   6.434 -0.4501  0.6323  0.3336
  168SAPE   O1218931   0.877   4.612   6.503  0.7766  0.0919 -0.7863
  168SAPE   O1118932   0.995   4.822   6.433 -0.4298 -0.3178 -0.1415
  168SAPE    C118933   1.112   4.757   6.444 -0.1913 -0.4134  0.5742
  168SAPE    HA18934   1.100   4.647   6.453 -0.1877 -0.4548  0.0566
  168SAPE    HB18935   1.173   4.761   6.352 -0.8756 -2.2197 -0.0137
  168SAPE    C218936   1.193   4.815   6.564  0.3916  0.3586 -0.4741
  168SAPE    HS18937   1.295   4.773   6.558  0.3010  0.0738 -0.0724
  168SAPE   O2118938   1.132   4.790   6.690  0.3250 -0.1739  0.3335
  168SAPE   C2118939   1.116   4.667   6.725 -0.2758 -0.4463 -0.2099
  168SAPE   O2218940   1.162   4.570   6.669 -0.2488  0.4805 -0.2687
  168SAPE   C2218941   1.015   4.660   6.838 -0.1834 -0.4457 -0.1353
  168SAPE   H2R18942   1.013   4.757   6.893 -0.3579 -0.3815 -0.2536
  168SAPE   H2S18943   0.914   4.659   6.791 -0.3347 -3.4195  0.1165
  168SAPE    C318944   1.220   4.966   6.544 -0.0744 -0.0964 -0.1957
  168SAPE    HX18945   1.118   5.005   6.522  0.3195  0.0207 -1.9539
  168SAPE    HY18946   1.263   4.981   6.442 -1.8274  3.7397 -0.5433
  168SAPE   O3118947   1.283   5.037   6.648  0.2099  0.0984  0.1236
  168SAPE   C3118948   1.421   5.055   6.641 -0.2830  0.1972 -0.0842
  168SAPE   O3218949   1.489   5.017   6.548  0.6474  0.4048  0.1433
  168SAPE   C3218950   1.476   5.095   6.774 -0.9885  0.4444 -0.4265
  168SAPE   H2X18951   1.498   5.204   6.769  1.2342  0.1136  0.6228
  168SAPE   H2Y18952   1.571   5.038   6.782 -2.3849 -2.2633 -1.8130
  168SAPE   C2318953   1.031   4.541   6.934 -0.0144  0.3937  0.0219
  168SAPE   H3R18954   1.009   4.451   6.873 -2.2930  1.4731 -0.8619
  168SAPE   H3S18955   0.951   4.549   7.011 -1.1777  1.3373 -1.2306
  168SAPE   C2418956   1.174   4.529   6.996 -0.0218 -0.4281  0.0863
  168SAPE   H4R18957   1.232   4.479   6.915 -1.6841 -2.4547  0.0490
  168SAPE   H4S18958   1.158   4.447   7.070  0.9010 -0.5682  0.1488
  168SAPE   C2518959   1.231   4.652   7.064 -0.0311  0.5153 -0.1828
  168SAPE   H5R18960   1.319   4.695   7.014  1.6807 -1.2229  1.1656
  168SAPE   C2618961   1.192   4.696   7.185  0.1224  0.7220  0.4253
  168SAPE   H6R18962   1.245   4.781   7.230 -0.3944  1.1639  0.2133
  168SAPE   C2718963   1.090   4.633   7.279  0.2940 -0.4263 -0.2169
  168SAPE   H7R18964   1.018   4.562   7.233  1.0785 -1.2665 -0.1645
  168SAPE   H7S18965   1.032   4.714   7.328  0.1594  0.6508 -2.0499
  168SAPE   C2818966   1.156   4.537   7.374  0.1827 -0.4551  0.2684
  168SAPE   H8R18967   1.240   4.482   7.329  2.0247  1.1506  1.5908
  168SAPE   C2918968   1.137   4.526   7.506 -0.6310  0.5404  0.9154
  168SAPE   H9R18969   1.202   4.454   7.557  0.6358  0.7567 -0.3298
  168SAPE  C21018970   1.039   4.607   7.589  0.0400  0.8913  0.0725
  168SAPE  H10R18971   0.978   4.547   7.660 -0.3781  1.1229 -0.0884
  168SAPE  H10S18972   0.964   4.664   7.531 -0.8582  0.9314  1.2311
  168SAPE  C21118973   1.133   4.699   7.669  0.1858 -0.4504  0.1809
  168SAPE  H11R18974   1.188   4.774   7.609  2.5070 -1.9492  0.3203
  168SAPE  C21218975   1.136   4.717   7.801 -0.4965 -0.2692 -0.1069
  168SAPE  H12R18976   1.220   4.777   7.839 -1.2148 -0.8696  2.6722
  168SAPE  C21318977   1.070   4.642   7.913  0.4832  0.1680 -0.2625
  168SAPE  H13R18978   1.139   4.647   8.000 -1.6580  0.7983  1.4821
  168SAPE  H13S18979   1.062   4.535   7.882 -1.4581  0.4775 -0.9494
  168SAPE  C21418980   0.936   4.700   7.942  0.5105 -0.4492 -0.3897
  168SAPE  H14R18981   0.882   4.750   7.860  0.5794  0.6334  0.2049
  168SAPE  C21518982   0.887   4.724   8.064  0.2930 -0.4605 -0.3995
  168SAPE  H15R18983   0.792   4.778   8.078  0.9135  0.6295 -0.2574
  168SAPE  C21618984   0.951   4.689   8.198 -0.1673 -0.2080  0.2144
  168SAPE  H16R18985   1.045   4.634   8.177 -0.2397  0.0764 -0.9507
  168SAPE  H16S18986   0.893   4.604   8.240 -0.0765 -0.3810 -0.0069
  168SAPE  C21718987   0.954   4.806   8.298 -0.3128 -0.5018  0.4995
  168SAPE  H17R18988   0.859   4.823   8.354  0.4236  0.5395  1.4715
  168SAPE  H17S18989   0.973   4.907   8.256 -0.6200 -0.3612  0.6906
  168SAPE  C21818990   1.070   4.792   8.397  0.0889  0.6177  0.2745
  168SAPE  H18R18991   1.097   4.686   8.416  0.0933  0.8195  1.4692
  168SAPE  H18S18992   1.034   4.829   8.496 -2.5020 -0.5650 -0.1358
  168SAPE  C21918993   1.206   4.861   8.365  0.0644  0.5204 -0.3499
  168SAPE  H19R18994   1.275   4.835   8.447  2.3600  0.6109 -2.1515
  168SAPE  H19S18995   1.200   4.972   8.359  1.0529  0.5752 -0.4455
  168SAPE  C22018996   1.272   4.817   8.232 -0.2946 -0.7049  0.0575
  168SAPE  H20R18997   1.314   4.719   8.262  1.1765  0.5938  2.5705
  168SAPE  H20S18998   1.355   4.881   8.195 -0.6189 -0.3275 -0.0252
  168SAPE  H20T18999   1.198   4.800   8.151 -1.4157 -0.4714  1.0146
  168SAPE   C3319000   1.381   5.078   6.897 -0.3483 -0.6069  0.1544
  168SAPE   H3X19001   1.370   4.971   6.925 -0.8107 -0.6150 -0.0544
  168SAPE   H3Y19002   1.276   5.113   6.888  0.4255  1.8367 -0.0669
  168SAPE   C3419003   1.448   5.138   7.025 -0.1252  0.3547  0.4642
  168SAPE   H4X19004   1.447   5.249   7.024 -0.3996  0.3635 -2.0263
  168SAPE   H4Y19005   1.553   5.101   7.024  0.2161  1.3051  0.0688
  168SAPE   C3519006   1.385   5.090   7.158  0.0840 -0.5033  0.2618
  168SAPE   H5X19007   1.367   4.982   7.137 -0.9032 -0.3076  0.0506
  168SAPE   H5Y19008   1.290   5.146   7.171 -0.2352 -0.7970 -0.7071
  168SAPE   C3619009   1.470   5.103   7.284 -0.6057  1.0867  0.0601
  168SAPE   H6X19010   1.485   5.213   7.295  3.9893  0.4645  2.7858
  168SAPE   H6Y19011   1.573   5.063   7.272 -1.3705 -0.9586 -0.0620
  168SAPE   C3719012   1.389   5.047   7.400  1.3382 -0.5120 -0.2755
  168SAPE   H7X19013   1.401   4.937   7.394 -1.9814 -0.8944 -2.5885
  168SAPE   H7Y19014   1.280   5.046   7.381  1.2646  2.4072 -0.4969
  168SAPE   C3819015   1.438   5.113   7.529 -0.2626 -0.1229 -0.2436
  168SAPE   H8X19016   1.413   5.221   7.518  0.6017 -0.0817 -2.2020
  168SAPE   H8Y19017   1.547   5.093   7.529  0.0729  1.5257 -0.8733
  168SAPE   C3919018   1.357   5.057   7.648 -0.5146  0.3301  0.0224
  168SAPE   H9X19019   1.372   4.948   7.660 -0.6886  0.2776 -0.2214
  168SAPE   H9Y19020   1.249   5.072   7.630 -0.6348 -0.8394 -0.3008
  168SAPE  C31019021   1.392   5.133   7.775 -0.0044  0.3943  0.1506
  168SAPE  H10X19022   1.390   5.241   7.747  1.2479 -0.0406 -1.8059
  168SAPE  H10Y19023   1.495   5.113   7.810 -0.3442 -2.2732 -0.2005
  168SAPE  C31119024   1.292   5.121   7.896 -0.0292  0.5764 -0.1665
  168SAPE  H11X19025   1.283   5.015   7.928  1.8886  0.4290  0.0073
  168SAPE  H11Y19026   1.199   5.158   7.848 -0.6269  0.2786  0.7396
  168SAPE  C31219027   1.331   5.199   8.017  0.2116  0.1853 -0.0092
  168SAPE  H12X19028   1.419   5.151   8.064 -0.3788 -0.2731  0.6549
  168SAPE  H12Y19029   1.252   5.184   8.094 -0.5918  0.6656 -0.7272
  168SAPE  C31319030   1.372   5.343   7.996 -0.5898  0.4296 -1.4316
  168SAPE  H13X19031   1.286   5.394   7.947 -0.6052  0.4993 -1.3328
  168SAPE  H13Y19032   1.463   5.363   7.936 -0.0224  0.0076 -0.7315
  168SAPE  C31419033   1.395   5.398   8.139  0.7922  0.1475  0.0993
  168SAPE  H14X19034   1.440   5.499   8.133 -2.0111  1.7728  3.0478
  168SAPE  H14Y19035   1.475   5.337   8.186  1.5491 -0.4564 -1.8861
  168SAPE  C31519036   1.272   5.408   8.233  0.5918  0.3524 -0.1929
  168SAPE  H15X19037   1.241   5.303   8.254  3.5838 -0.3575  1.3325
  168SAPE  H15Y19038   1.197   5.473   8.183 -0.0166 -1.2140 -1.3878
  168SAPE  C31619039   1.304   5.490   8.362 -0.5952  0.0628  0.0490
  168SAPE  H16X19040   1.347   5.587   8.328  1.2333  0.1487  2.3420
  168SAPE  H16Y19041   1.374   5.429   8.422  1.1142  0.7918 -1.1272
  168SAPE  C31719042   1.176   5.497   8.457 -0.3366  1.0975  0.2485
  168SAPE  H17X19043   1.088   5.526   8.396 -2.1588 -1.3790  1.5493
  168SAPE  H17Y19044   1.200   5.574   8.533  1.2970 -0.0778  0.9673
  168SAPE  C31819045   1.146   5.365   8.533 -0.6434 -0.4021 -0.3623
  168SAPE  H18X19046   1.064   5.387   8.605  0.2759 -2.0653  1.3029
  168SAPE  H18Y19047   1.227   5.324   8.598 -1.3184 -0.7279  0.3001
  168SAPE  H18Z19048   1.119   5.289   8.456 -1.3768  0.2219 -0.7321
  169SAPE     N19049   0.671   2.302   6.376 -0.0611  0.2041  0.5143
  169SAPE   HN119050   0.624   2.224   6.426  1.8556 -0.5498  1.2366
  169SAPE   HN219051   0.754   2.259   6.331 -1.2648  0.5618 -2.3026
  169SAPE   HN319052   0.699   2.382   6.436  2.0680  1.7550 -2.3215
  169SAPE   C1219053   0.584   2.353   6.260 -0.1901  0.5741 -0.2914
  169SAPE  H12A19054   0.549   2.262   6.206 -2.2816 -1.3320  3.8131
  169SAPE  H12B19055   0.643   2.424   6.198 -0.7228  2.1684  0.9694
  169SAPE   C1119056   0.463   2.424   6.321  0.5840  0.2401 -0.0834
  169SAPE  H11A19057   0.430   2.365   6.410 -2.7765  0.7702 -0.8742
  169SAPE  H11B19058   0.372   2.420   6.258  1.2603  2.5208 -1.2851
  169SAPE     P19059   0.377   2.656   6.394  0.1836 -0.7462 -0.0486
  169SAPE   O1319060   0.430   2.794   6.367 -0.2894  0.3102 -0.2671
  169SAPE   O1419061   0.244   2.618   6.342  0.4160  0.3751 -0.4115
  169SAPE   O1219062   0.492   2.555   6.352  0.3460  0.3596  0.2940
  169SAPE   O1119063   0.374   2.636   6.545 -0.5708 -0.3223 -0.4987
  169SAPE    C119064   0.480   2.681   6.629 -0.2325 -0.1150  0.0685
  169SAPE    HA19065   0.575   2.705   6.576  1.9376 -1.9214  2.8815
  169SAPE    HB19066   0.438   2.767   6.686 -0.2535 -0.9606  1.3622
  169SAPE    C219067   0.531   2.590   6.740  0.7034 -0.4541  0.0622
  169SAPE    HS19068   0.564   2.498   6.689 -0.4760 -1.9918  1.9317
  169SAPE   O2119069   0.420   2.558   6.826  0.1105 -0.2706  0.1248
  169SAPE   C2119070   0.418   2.450   6.890  0.2325  1.2630 -0.1654
  169SAPE   O2219071   0.498   2.356   6.888 -0.3514 -0.5756 -0.5766
  169SAPE   C2219072   0.294   2.443   6.976 -0.6919  0.1154  0.6864
  169SAPE   H2R19073   0.247   2.542   6.960 -0.7529 -0.2957 -2.0792
  169SAPE   H2S19074   0.222   2.375   6.925 -0.6498  0.9209 -0.4919
  169SAPE    C319075   0.652   2.658   6.815 -0.6233  0.5323 -0.0788
  169SAPE    HX19076   0.597   2.741   6.864 -1.3724  0.3364 -0.5747
  169SAPE    HY19077   0.725   2.701   6.743 -0.9491  0.8760 -0.2055
  169SAPE   O3119078   0.714   2.573   6.915 -0.7991 -0.1695 -0.5928
  169SAPE   C3119079   0.742   2.636   7.034 -0.1783 -0.1719 -0.7490
  169SAPE   O3219080   0.702   2.745   7.069  0.0057  0.2333  0.8870
  169SAPE   C3219081   0.826   2.545   7.121  0.0049  0.0065 -0.3094
  169SAPE   H2X19082   0.922   2.601   7.130  1.3002 -2.3244  1.3361
  169SAPE   H2Y19083   0.857   2.454   7.065 -1.2789 -0.6832  0.0803
  169SAPE   C2319084   0.328   2.403   7.122 -0.2629  0.2611  0.5173
  169SAPE   H3R19085   0.436   2.412   7.147 -0.9501  3.7030  2.9650
  169SAPE   H3S19086   0.299   2.297   7.135  0.3079 -0.1109 -1.0356
  169SAPE   C2419087   0.248   2.489   7.220  1.0268 -0.2994 -0.1278
  169SAPE   H4R19088   0.139   2.470   7.207  0.9232  1.4414 -2.7168
  169SAPE   H4S19089   0.256   2.596   7.189  0.7361 -0.1671  0.2527
  169SAPE   C2519090   0.265   2.463   7.368  0.2658 -0.0320  0.2170
  169SAPE   H5R19091   0.232   2.362   7.397 -2.4110  1.3795  2.5042
  169SAPE   C2619092   0.323   2.538   7.462  0.7271 -0.7908  0.5435
  169SAPE   H6R19093   0.339   2.494   7.561 -1.7558 -0.6112  1.0879
  169SAPE   C2719094   0.387   2.679   7.435  0.0889 -0.6541 -0.0928
  169SAPE   H7R19095   0.401   2.696   7.326  0.4447  0.4406  0.1090
  169SAPE   H7S19096   0.492   2.671   7.469  0.6987  0.6051 -1.5781
  169SAPE   C2819097   0.325   2.797   7.502  0.2340 -1.0920 -0.0524
  169SAPE   H8R19098   0.278   2.859   7.424  3.5830  0.0974 -1.2954
  169SAPE   C2919099   0.336   2.831   7.634 -0.6110  0.4262 -0.0589
  169SAPE   H9R19100   0.290   2.925   7.669 -2.5131 -0.9036  1.1909
  169SAPE  C21019101   0.408   2.741   7.742 -0.1087 -0.0133  0.0309
  169SAPE  H10R19102   0.502   2.793   7.769  1.9558 -3.2075 -0.4150
  169SAPE  H10S19103   0.438   2.651   7.684  0.7008  0.4698 -0.3146
  169SAPE  C21119104   0.326   2.703   7.857  0.8257  0.7542  0.2037
  169SAPE  H11R19105   0.232   2.648   7.838  0.5649  1.5491 -0.8660
  169SAPE  C21219106   0.346   2.713   7.989 -0.3500  0.1589 -0.2227
  169SAPE  H12R19107   0.263   2.678   8.052 -1.5929 -1.3856 -2.5563
  169SAPE  C21319108   0.469   2.772   8.048  0.0333 -0.2764 -0.3562
  169SAPE  H13R19109   0.449   2.869   8.098  0.5581 -0.2918 -0.1068
  169SAPE  H13S19110   0.541   2.794   7.966 -1.6897  1.0652 -1.5783
  169SAPE  C21419111   0.533   2.672   8.140 -0.5296 -0.0255 -0.3306
  169SAPE  H14R19112   0.618   2.626   8.088  0.9375  2.9717 -0.7847
  169SAPE  C21519113   0.516   2.646   8.270  0.5070 -0.4962  0.0824
  169SAPE  H15R19114   0.560   2.555   8.312 -0.8011 -1.2384 -0.1209
  169SAPE  C21619115   0.420   2.717   8.367  0.5650  0.7748 -0.1231
  169SAPE  H16R19116   0.351   2.783   8.309  0.6400  1.0258  0.0715
  169SAPE  H16S19117   0.478   2.777   8.440 -0.7395  0.8902  0.8700
  169SAPE  C21719118   0.329   2.627   8.452  0.4859 -0.3460  0.5026
  169SAPE  H17R19119   0.385   2.586   8.539  0.3053  1.9949  1.8173
  169SAPE  H17S19120   0.287   2.545   8.390 -1.2430  0.2634  0.8173
  169SAPE  C21819121   0.203   2.708   8.511  0.2526  0.0167 -0.1987
  169SAPE  H18R19122   0.139   2.735   8.425  0.9589  0.5048 -0.5787
  169SAPE  H18S19123   0.243   2.797   8.565  0.2090 -0.4056  0.5400
  169SAPE  C21919124   0.121   2.629   8.622  0.3928  0.2794 -0.5343
  169SAPE  H19R19125   0.184   2.572   8.694 -1.4313 -1.9916 -0.6044
  169SAPE  H19S19126   0.062   2.552   8.568  0.2812 -1.6784  2.1681
  169SAPE  C22019127   0.034   2.724   8.702 -0.2977 -0.1325  0.1420
  169SAPE  H20R19128  -0.032   2.674   8.775 -1.9268  1.2875 -0.2872
  169SAPE  H20S19129  -0.030   2.784   8.633  1.5127  2.7663  0.8223
  169SAPE  H20T19130   0.094   2.793   8.765  0.8106 -2.0917  1.3447
  169SAPE   C3319131   0.782   2.532   7.268 -0.0830  0.3590 -0.3359
  169SAPE   H3X19132   0.784   2.421   7.280  5.7164  0.3679  1.6923
  169SAPE   H3Y19133   0.678   2.567   7.288  0.6148  1.5445  1.5384
  169SAPE   C3419134   0.875   2.573   7.379 -1.0163  0.0400 -0.6822
  169SAPE   H4X19135   0.873   2.682   7.401  0.9541 -0.1355  0.6228
  169SAPE   H4Y19136   0.978   2.543   7.348 -1.0743 -0.0974 -0.7424
  169SAPE   C3519137   0.849   2.517   7.513 -0.3010  0.0958  0.3470
  169SAPE   H5X19138   0.945   2.502   7.567  1.7067 -0.8402 -3.1713
  169SAPE   H5Y19139   0.813   2.413   7.493 -1.4249  0.7892 -1.5445
  169SAPE   C3619140   0.742   2.590   7.593 -0.1718 -0.0443  0.2137
  169SAPE   H6X19141   0.648   2.577   7.534  2.8556 -4.1029 -4.5626
  169SAPE   H6Y19142   0.770   2.696   7.607  1.7409  0.2058 -3.8945
  169SAPE   C3719143   0.716   2.517   7.723  0.5569 -0.8611 -0.1199
  169SAPE   H7X19144   0.742   2.410   7.714  0.5403 -0.8985  0.2796
  169SAPE   H7Y19145   0.606   2.526   7.740  0.6107  1.9893 -0.7634
  169SAPE   C3819146   0.777   2.589   7.848 -0.3998 -0.0647 -0.1092
  169SAPE   H8X19147   0.754   2.543   7.947  0.2962  0.9875  0.5655
  169SAPE   H8Y19148   0.734   2.692   7.849  0.4744  0.3071  0.0591
  169SAPE   C3919149   0.931   2.609   7.837  0.2584  0.8354  0.5178
  169SAPE   H9X19150   0.956   2.685   7.761 -0.3535  0.1911 -0.3471
  169SAPE   H9Y19151   0.976   2.509   7.818  0.6223  0.3582  3.3854
  169SAPE  C31019152   0.999   2.650   7.966 -0.9892  0.3585  0.4263
  169SAPE  H10X19153   0.986   2.572   8.045  2.6344 -0.7929  0.1204
  169SAPE  H10Y19154   0.955   2.744   8.006 -1.6615  0.0055  0.5292
  169SAPE  C31119155   1.150   2.676   7.933  0.3519  0.8337  1.1083
  169SAPE  H11X19156   1.151   2.726   7.834 -2.4354 -1.9932 -0.5538
  169SAPE  H11Y19157   1.203   2.579   7.915  0.5583  1.0505  0.5150
  169SAPE  C31219158   1.245   2.739   8.033 -0.0139 -0.6649  0.1854
  169SAPE  H12X19159   1.260   2.667   8.116 -0.1722  0.7303  1.4669
  169SAPE  H12Y19160   1.211   2.838   8.069  4.5487  1.1014  0.2754
  169SAPE  C31319161   1.389   2.749   7.986 -0.8066 -0.8347  0.0082
  169SAPE  H13X19162   1.430   2.663   7.928  0.6408  0.5496 -1.1222
  169SAPE  H13Y19163   1.450   2.753   8.079 -1.3689  0.8583  0.3450
  169SAPE  C31419164   1.426   2.873   7.909  0.3715 -0.2420 -0.3275
  169SAPE  H14X19165   1.387   2.961   7.965  0.4811  0.0252 -0.6668
  169SAPE  H14Y19166   1.383   2.866   7.807 -0.4482  0.2495 -0.0244
  169SAPE  C31519167   1.580   2.899   7.894 -0.3816 -0.1182 -0.0710
  169SAPE  H15X19168   1.614   2.958   7.981  1.0909 -0.4905 -0.3752
  169SAPE  H15Y19169   1.584   2.979   7.817 -1.2884  3.5317  3.3231
  169SAPE  C31619170   1.673   2.786   7.850  0.5420  0.2852 -0.5680
  169SAPE  H16X19171   1.652   2.744   7.750  2.5123 -1.2595 -0.4071
  169SAPE  H16Y19172   1.683   2.692   7.909  0.9158 -0.6607 -2.1099
  169SAPE  C31719173   1.818   2.845   7.846  0.4413  0.0800  0.3193
  169SAPE  H17X19174   1.840   2.874   7.951 -0.0279 -0.1205  0.4754
  169SAPE  H17Y19175   1.802   2.938   7.787 -0.2415 -0.5229 -0.4729
  169SAPE  C31819176   1.930   2.747   7.802 -0.2353  0.0625 -0.0708
  169SAPE  H18X19177   1.929   2.741   7.691  0.3921 -0.5051 -0.0520
  169SAPE  H18Y19178   1.919   2.648   7.850 -1.2376 -0.6323 -1.6532
  169SAPE  H18Z19179   2.025   2.795   7.834 -0.3284 -0.6189  1.2986
  170SAPE     N19180   2.129   2.505   6.453  0.5616  0.3839 -0.1551
  170SAPE   HN119181   2.047   2.487   6.515  1.4347 -1.5262  0.5448
  170SAPE   HN219182   2.207   2.483   6.518 -1.0145 -0.2727  1.6168
  170SAPE   HN319183   2.129   2.606   6.430 -1.3108  1.1861  2.7602
  170SAPE   C1219184   2.129   2.423   6.326  0.1155  0.7604  0.4620
  170SAPE  H12A19185   2.032   2.452   6.279 -0.8858 -2.2391  0.4864
  170SAPE  H12B19186   2.121   2.316   6.354 -0.1114 -0.0530 -2.3655
  170SAPE   C1119187   2.245   2.465   6.238  0.5385 -0.0672 -0.0584
  170SAPE  H11A19188   2.227   2.569   6.203 -1.7781 -0.6084 -0.6573
  170SAPE  H11B19189   2.259   2.398   6.150 -0.1619 -0.5157  0.1655
  170SAPE     P19190   2.503   2.510   6.280 -0.1632 -0.1507 -0.1272
  170SAPE   O1319191   2.559   2.428   6.171  0.7313 -0.5096 -0.4215
  170SAPE   O1419192   2.489   2.655   6.253  0.1520 -0.1031  0.3678
  170SAPE   O1219193   2.367   2.446   6.316 -0.0824 -0.1373  0.0847
  170SAPE   O1119194   2.582   2.499   6.410 -0.4461  0.0792 -0.1488
  170SAPE    C119195   2.648   2.388   6.465 -0.4513  0.0044 -0.3757
  170SAPE    HA19196   2.686   2.310   6.396  0.2577  0.4719 -0.5344
  170SAPE    HB19197   2.736   2.425   6.523 -1.5976 -0.8096  2.0507
  170SAPE    C219198   2.572   2.316   6.581 -0.1963 -0.2822  0.2743
  170SAPE    HS19199   2.473   2.272   6.553 -0.8847  0.6319  1.1901
  170SAPE   O2119200   2.553   2.401   6.694  0.2321  0.0461  0.2499
  170SAPE   C2119201   2.457   2.491   6.686 -0.0166 -0.3543 -0.0432
  170SAPE   O2219202   2.354   2.475   6.625  0.6979 -0.2430  0.1720
  170SAPE   C2219203   2.496   2.609   6.788  0.0308  0.4376  0.3484
  170SAPE   H2R19204   2.579   2.580   6.857  0.9160 -0.9797 -1.2329
  170SAPE   H2S19205   2.529   2.688   6.717  2.3455 -1.7093 -1.1752
  170SAPE    C319206   2.654   2.193   6.631  0.2190 -0.4860  0.0785
  170SAPE    HX19207   2.737   2.241   6.688 -1.5316  0.7729  1.6866
  170SAPE    HY19208   2.699   2.141   6.543  2.0760 -2.3458  2.0189
  170SAPE   O3119209   2.573   2.096   6.707 -0.0531 -0.4863 -0.1305
  170SAPE   C3119210   2.629   2.054   6.819 -0.5389  0.5724  0.1871
  170SAPE   O3219211   2.750   2.067   6.846  0.3245 -0.0360 -0.4366
  170SAPE   C3219212   2.525   1.987   6.912 -0.4369 -0.1064  0.3152
  170SAPE   H2X19213   2.473   1.908   6.854  3.3618 -1.1293 -2.1090
  170SAPE   H2Y19214   2.458   2.064   6.956  0.0036 -1.0161  2.7403
  170SAPE   C2319215   2.375   2.658   6.874  0.6808  0.0308  0.6671
  170SAPE   H3R19216   2.352   2.568   6.935  1.4310 -1.3889 -1.0780
  170SAPE   H3S19217   2.293   2.666   6.799  0.2652  0.7471  1.1810
  170SAPE   C2419218   2.383   2.781   6.960 -0.3304 -0.2228  0.3661
  170SAPE   H4R19219   2.280   2.789   7.003 -0.1014 -1.1455  1.1057
  170SAPE   H4S19220   2.390   2.873   6.897  1.3157 -0.6946 -0.1664
  170SAPE   C2519221   2.498   2.769   7.064  0.1202 -0.3277 -0.4820
  170SAPE   H5R19222   2.601   2.801   7.042  0.5101 -1.4416 -0.3148
  170SAPE   C2619223   2.472   2.727   7.191 -0.1226 -0.2230 -0.4505
  170SAPE   H6R19224   2.555   2.726   7.263 -1.4119 -0.7283  1.0875
  170SAPE   C2719225   2.347   2.680   7.256 -0.3722 -0.0431  0.5593
  170SAPE   H7R19226   2.360   2.572   7.279 -1.5929 -0.6741 -1.4779
  170SAPE   H7S19227   2.266   2.676   7.181  0.0664  2.3921 -0.1054
  170SAPE   C2819228   2.324   2.743   7.386 -0.5096  0.0889  0.1992
  170SAPE   H8R19229   2.296   2.850   7.382 -0.7572  0.0562  1.0082
  170SAPE   C2919230   2.340   2.686   7.509  0.2204  0.8647  0.1414
  170SAPE   H9R19231   2.322   2.754   7.594 -0.8058  1.9466 -0.8930
  170SAPE  C21019232   2.397   2.550   7.539  0.1425  0.4157  0.1544
  170SAPE  H10R19233   2.493   2.568   7.593 -0.6695  0.7761  1.5343
  170SAPE  H10S19234   2.419   2.483   7.454 -0.2263 -0.3011  0.6158
  170SAPE  C21119235   2.304   2.481   7.631  0.4658 -0.4866  0.1439
  170SAPE  H11R19236   2.225   2.432   7.572  1.9820 -1.7793 -0.8933
  170SAPE  C21219237   2.321   2.463   7.760  0.2068 -0.0117  0.0854
  170SAPE  H12R19238   2.234   2.425   7.815 -1.0613  1.3992 -0.8620
  170SAPE  C21319239   2.440   2.503   7.852  0.1477 -0.0150  0.0653
  170SAPE  H13R19240   2.533   2.503   7.791 -0.4280  2.3256 -0.9606
  170SAPE  H13S19241   2.451   2.422   7.927 -0.9181 -0.7018 -0.4992
  170SAPE  C21419242   2.423   2.641   7.917  0.6483  0.4761  0.5958
  170SAPE  H14R19243   2.461   2.730   7.864 -0.6846  1.1181  0.6620
  170SAPE  C21519244   2.375   2.672   8.045  0.0679  0.3410  0.8330
  170SAPE  H15R19245   2.357   2.778   8.066  1.0903  0.7164 -0.0434
  170SAPE  C21619246   2.325   2.568   8.145  0.4478  0.2700 -0.0500
  170SAPE  H16R19247   2.364   2.590   8.246  2.5925  1.1765 -1.0178
  170SAPE  H16S19248   2.357   2.464   8.121 -3.7719 -1.3021  0.1201
  170SAPE  C21719249   2.174   2.574   8.142 -0.4915 -0.3680 -0.6790
  170SAPE  H17R19250   2.127   2.478   8.176 -2.9830  0.9777 -0.0903
  170SAPE  H17S19251   2.145   2.604   8.039 -1.5554  1.9749  0.2323
  170SAPE  C21819252   2.126   2.681   8.245  0.0297  0.1602 -0.0530
  170SAPE  H18R19253   2.148   2.785   8.214 -1.6955  0.2813 -0.9752
  170SAPE  H18S19254   2.173   2.657   8.342  2.4108  0.6501 -1.0116
  170SAPE  C21919255   1.977   2.671   8.268 -0.4534 -0.2873  0.5993
  170SAPE  H19R19256   1.944   2.568   8.292 -0.9789 -0.2610  0.0354
  170SAPE  H19S19257   1.922   2.685   8.172  0.1125 -2.4672 -0.1106
  170SAPE  C22019258   1.928   2.770   8.370 -0.0772 -0.0057  0.0891
  170SAPE  H20R19259   1.931   2.723   8.471 -3.4047 -0.6931 -0.0202
  170SAPE  H20S19260   1.825   2.805   8.350 -0.5863  0.3999  2.9954
  170SAPE  H20T19261   1.991   2.860   8.386 -0.0439 -0.4226  2.8088
  170SAPE   C3319262   2.593   1.925   7.045 -0.1264 -0.5260  0.3429
  170SAPE   H3X19263   2.616   2.012   7.110  0.4687  0.7484 -1.4857
  170SAPE   H3Y19264   2.690   1.873   7.030  0.0485 -0.6262  1.7683
  170SAPE   C3419265   2.495   1.822   7.107 -0.9403 -0.6431 -0.0977
  170SAPE   H4X19266   2.467   1.759   7.019  1.5445  0.0176 -1.4779
  170SAPE   H4Y19267   2.411   1.882   7.147  1.0933  3.3051 -1.2829
  170SAPE   C3519268   2.556   1.743   7.226 -0.3959  0.0207 -0.6033
  170SAPE   H5X19269   2.650   1.692   7.195  0.2144  0.0241  1.1612
  170SAPE   H5Y19270   2.472   1.672   7.244 -1.6645  1.4588 -0.6470
  170SAPE   C3619271   2.577   1.829   7.352 -0.1867  0.8715 -0.3223
  170SAPE   H6X19272   2.501   1.909   7.357  1.3902  2.4857 -0.8651
  170SAPE   H6Y19273   2.675   1.881   7.361  0.8215 -0.8264 -1.0158
  170SAPE   C3719274   2.550   1.746   7.479  0.0819  0.1665  0.3496
  170SAPE   H7X19275   2.611   1.653   7.478  2.6495  1.7734 -0.4611
  170SAPE   H7Y19276   2.441   1.723   7.485 -0.5031  2.8421  1.5626
  170SAPE   C3819277   2.571   1.830   7.608  0.8640  0.1618  0.2001
  170SAPE   H8X19278   2.476   1.863   7.655 -0.1735  0.5087 -1.9744
  170SAPE   H8Y19279   2.625   1.922   7.577  1.6417 -1.0213 -2.2547
  170SAPE   C3919280   2.650   1.754   7.718 -0.0972 -0.5845  0.7185
  170SAPE   H9X19281   2.674   1.829   7.797  2.5538  1.3413 -1.7457
  170SAPE   H9Y19282   2.749   1.713   7.690  0.5447  1.2757  0.1326
  170SAPE  C31019283   2.562   1.644   7.784  0.1476 -0.2817  0.4481
  170SAPE  H10X19284   2.515   1.583   7.704  2.3935 -1.1856 -0.2589
  170SAPE  H10Y19285   2.486   1.696   7.847 -1.3071 -0.2797 -1.2456
  170SAPE  C31119286   2.643   1.546   7.865 -0.1797  0.6193  0.0599
  170SAPE  H11X19287   2.725   1.503   7.804  0.3138  0.8389  0.5518
  170SAPE  H11Y19288   2.576   1.461   7.890  0.7755 -0.2660 -0.3146
  170SAPE  C31219289   2.712   1.620   7.981 -0.6287  0.2481  0.4403
  170SAPE  H12X19290   2.741   1.727   7.969  1.2072  0.0517  2.3659
  170SAPE  H12Y19291   2.806   1.563   7.999 -1.1349  0.0544  2.9045
  170SAPE  C31319292   2.626   1.624   8.108  0.0937  0.4624 -0.7697
  170SAPE  H13X19293   2.604   1.520   8.138 -1.3766  0.7244 -0.9070
  170SAPE  H13Y19294   2.529   1.671   8.080 -0.1518  0.4592  0.0604
  170SAPE  C31419295   2.697   1.703   8.222  0.1480 -0.2087  0.1295
  170SAPE  H14X19296   2.731   1.802   8.187  0.0238 -1.0700 -2.6558
  170SAPE  H14Y19297   2.790   1.644   8.239 -0.3550 -0.4998  2.1573
  170SAPE  C31519298   2.618   1.728   8.347  1.1468 -0.0086  0.0107
  170SAPE  H15X19299   2.555   1.641   8.374 -1.4498  2.2335  1.6444
  170SAPE  H15Y19300   2.554   1.811   8.312  2.2789  0.6724 -0.4835
  170SAPE  C31619301   2.688   1.764   8.479 -0.6309  0.0490 -0.1670
  170SAPE  H16X19302   2.730   1.866   8.472  1.5870 -0.8851 -1.6543
  170SAPE  H16Y19303   2.768   1.691   8.505 -0.6845 -0.0259 -0.2123
  170SAPE  C31719304   2.587   1.758   8.598  0.2294  0.2092 -0.8889
  170SAPE  H17X19305   2.638   1.800   8.687 -2.2661  2.6747 -0.4807
  170SAPE  H17Y19306   2.552   1.654   8.620 -3.6631  1.3486 -0.8990
  170SAPE  C31819307   2.463   1.844   8.586 -0.0587 -0.2692  0.0541
  170SAPE  H18X19308   2.487   1.942   8.540  0.2619 -0.8942 -1.1364
  170SAPE  H18Y19309   2.406   1.858   8.680  0.2587 -1.7739  0.4926
  170SAPE  H18Z19310   2.393   1.789   8.521 -2.1910 -0.0395  2.0274
  171SAPE     N19311   3.514   3.878   6.215  0.0104  0.1951 -0.4468
  171SAPE   HN119312   3.538   3.862   6.315 -0.6908 -0.1814 -0.3322
  171SAPE   HN219313   3.414   3.856   6.195 -0.1521 -0.0411  0.5957
  171SAPE   HN319314   3.565   3.803   6.162  2.9632  1.0238  1.0222
  171SAPE   C1219315   3.535   4.014   6.157  0.7214  0.1699 -0.1985
  171SAPE  H12A19316   3.558   4.005   6.048 -0.9578 -0.9861 -0.4885
  171SAPE  H12B19317   3.614   4.063   6.217 -0.3575  0.6114  0.8948
  171SAPE   C1119318   3.403   4.105   6.171  0.4786  0.2710 -0.9611
  171SAPE  H11A19319   3.411   4.209   6.133  1.7278  0.2454 -0.8055
  171SAPE  H11B19320   3.394   4.133   6.279  0.9130 -2.5875 -0.0994
  171SAPE     P19321   3.175   3.976   6.195 -0.3635  0.0255 -0.1912
  171SAPE   O1319322   3.054   3.983   6.107 -0.2699 -0.2178  0.3946
  171SAPE   O1419323   3.240   3.850   6.234  0.1968  0.4162  0.3462
  171SAPE   O1219324   3.283   4.055   6.112 -0.2342  0.2390  0.1866
  171SAPE   O1119325   3.145   4.072   6.318 -0.4672 -0.2708  0.0550
  171SAPE    C119326   3.022   4.036   6.391 -0.1764 -0.2857 -0.1091
  171SAPE    HA19327   2.951   4.121   6.381 -1.5825 -1.2936  0.8921
  171SAPE    HB19328   2.954   3.957   6.351  2.0198 -1.6868 -1.3343
  171SAPE    C219329   3.043   4.031   6.543  0.5384  0.2595  0.0177
  171SAPE    HS19330   3.083   3.931   6.571  2.6997  1.0644 -0.0257
  171SAPE   O2119331   2.921   4.069   6.618  0.1445 -0.1868  0.6015
  171SAPE   C2119332   2.838   3.969   6.653  0.7061  0.4424  0.3086
  171SAPE   O2219333   2.855   3.850   6.628 -0.4375 -0.3465 -0.2467
  171SAPE   C2219334   2.733   4.020   6.747  0.1094  0.3695 -0.1302
  171SAPE   H2R19335   2.640   4.049   6.694 -0.6854 -2.2184 -0.2746
  171SAPE   H2S19336   2.694   3.930   6.799 -1.2251  1.8089  1.5075
  171SAPE    C319337   3.160   4.132   6.586 -0.0412 -0.3086 -0.7768
  171SAPE    HX19338   3.132   4.235   6.555 -0.7592 -0.0536  0.6195
  171SAPE    HY19339   3.256   4.122   6.531 -0.3797  0.8295 -1.6146
  171SAPE   O3119340   3.166   4.138   6.733  0.0727  0.1989  0.1585
  171SAPE   C3119341   3.234   4.036   6.779  0.3508 -0.1805 -0.1256
  171SAPE   O3219342   3.255   3.929   6.724 -0.5400  0.0800  0.0724
  171SAPE   C3219343   3.240   4.066   6.931  0.0454  0.2454  0.5046
  171SAPE   H2X19344   3.138   4.095   6.965 -1.3235 -1.5463 -1.7448
  171SAPE   H2Y19345   3.293   4.163   6.933 -0.4592  0.6247 -1.5517
  171SAPE   C2319346   2.794   4.097   6.862  0.0496 -0.5556 -0.5287
  171SAPE   H3R19347   2.824   4.197   6.825 -0.3948  0.1232  0.8742
  171SAPE   H3S19348   2.887   4.050   6.900 -0.9090 -0.8836  1.6296
  171SAPE   C2419349   2.706   4.128   6.986  0.2176 -0.0312  0.0175
  171SAPE   H4R19350   2.615   4.184   6.954 -0.1232 -1.2113 -1.1534
  171SAPE   H4S19351   2.763   4.202   7.046 -1.3799 -0.0023  1.5643
  171SAPE   C2519352   2.672   4.004   7.059 -0.7660 -0.4249 -1.0350
  171SAPE   H5R19353   2.613   3.932   7.001 -0.8703 -1.7827  0.6685
  171SAPE   C2619354   2.704   3.963   7.186 -0.2160 -0.2484  0.7831
  171SAPE   H6R19355   2.657   3.873   7.228 -0.4348 -0.4615  0.0849
  171SAPE   C2719356   2.781   4.043   7.286  0.2620  0.0384 -0.1796
  171SAPE   H7R19357   2.873   4.080   7.236 -0.4247 -0.1814 -1.6614
  171SAPE   H7S19358   2.811   3.967   7.360 -1.6458  0.3559  0.9804
  171SAPE   C2819359   2.717   4.158   7.359 -0.0763  0.2539 -0.1596
  171SAPE   H8R19360   2.625   4.206   7.321 -1.2319 -1.8042 -0.1028
  171SAPE   C2919361   2.760   4.198   7.480 -0.3638  0.1681  0.0490
  171SAPE   H9R19362   2.707   4.282   7.526 -3.4576 -0.8647 -1.3313
  171SAPE  C21019363   2.874   4.151   7.561 -0.3181 -0.1850 -0.0489
  171SAPE  H10R19364   2.902   4.235   7.629  0.2768  0.1794 -0.7401
  171SAPE  H10S19365   2.963   4.129   7.499 -0.6073 -0.7617 -0.2667
  171SAPE  C21119366   2.838   4.026   7.639  0.4010 -0.5553  0.3469
  171SAPE  H11R19367   2.767   3.961   7.585 -1.7135  2.6012 -1.0150
  171SAPE  C21219368   2.870   3.990   7.763  0.0085  0.0972  0.2348
  171SAPE  H12R19369   2.818   3.899   7.798 -2.1782 -0.0563 -2.9640
  171SAPE  C21319370   2.968   4.065   7.859  0.2566 -0.0253  0.1207
  171SAPE  H13R19371   3.069   4.088   7.819  0.4364 -0.5872  0.2329
  171SAPE  H13S19372   2.994   3.984   7.931 -2.0629 -2.6481 -1.7271
  171SAPE  C21419373   2.912   4.190   7.926 -0.9989  0.6792  0.2294
  171SAPE  H14R19374   2.834   4.242   7.868 -0.8611 -0.2882 -0.8831
  171SAPE  C21519375   2.963   4.240   8.042  1.0381  0.5241 -0.1130
  171SAPE  H15R19376   2.933   4.338   8.081  1.5518  0.8400 -0.4961
  171SAPE  C21619377   3.075   4.186   8.119 -0.4724 -0.5959  0.0272
  171SAPE  H16R19378   3.167   4.227   8.074 -0.2421  0.3438  1.3196
  171SAPE  H16S19379   3.085   4.075   8.109 -0.8140 -0.6939  0.6858
  171SAPE  C21719380   3.087   4.233   8.264 -0.0229 -0.1713  0.2107
  171SAPE  H17R19381   3.096   4.343   8.257  2.1695 -0.3522 -0.7573
  171SAPE  H17S19382   3.183   4.191   8.302  0.8821 -1.3968 -3.0716
  171SAPE  C21819383   2.975   4.181   8.354  0.9432 -0.5523  0.0506
  171SAPE  H18R19384   2.985   4.077   8.392  1.5506 -0.3144  0.5473
  171SAPE  H18S19385   2.878   4.196   8.301  1.6116  1.8795 -0.5947
  171SAPE  C21919386   2.970   4.250   8.492  0.4946  0.1804 -0.3154
  171SAPE  H19R19387   3.068   4.235   8.541  0.2303  3.1853  1.4067
  171SAPE  H19S19388   2.893   4.207   8.560  0.7459  0.8673  0.4302
  171SAPE  C22019389   2.967   4.401   8.491 -0.1132  0.4031  0.6700
  171SAPE  H20R19390   2.882   4.436   8.429 -0.5382 -0.0010  1.0169
  171SAPE  H20S19391   3.059   4.451   8.452 -0.2207  2.8360  3.1825
  171SAPE  H20T19392   2.945   4.441   8.593 -1.1413 -1.1969  1.0997
  171SAPE   C3319393   3.305   3.965   7.025  0.5106  0.5592  0.5280
  171SAPE   H3X19394   3.412   3.951   6.998  0.4763  2.1861 -0.5931
  171SAPE   H3Y19395   3.251   3.868   7.030 -1.6390  1.6290 -0.6806
  171SAPE   C3419396   3.317   4.024   7.165 -0.1574 -1.1810  0.3892
  171SAPE   H4X19397   3.215   4.064   7.183 -0.0403 -0.5384 -0.2871
  171SAPE   H4Y19398   3.380   4.116   7.169 -0.5968 -0.9069  1.1267
  171SAPE   C3519399   3.359   3.929   7.277 -0.4575 -0.3864  0.5442
  171SAPE   H5X19400   3.463   3.892   7.270  0.4009  2.0892 -1.4705
  171SAPE   H5Y19401   3.300   3.836   7.261 -4.4353  1.7876  1.2610
  171SAPE   C3619402   3.314   3.985   7.413  0.0491 -0.1585  0.0921
  171SAPE   H6X19403   3.206   4.011   7.410 -0.2883 -1.5587 -0.3978
  171SAPE   H6Y19404   3.361   4.085   7.424 -1.4882  0.5084  0.8525
  171SAPE   C3719405   3.367   3.902   7.531  0.2662  0.3042  0.1209
  171SAPE   H7X19406   3.474   3.927   7.544  0.0546  1.2326  0.2124
  171SAPE   H7Y19407   3.340   3.798   7.506  1.1548  0.6899 -2.8279
  171SAPE   C3819408   3.306   3.939   7.668  0.2099  0.2856  0.0749
  171SAPE   H8X19409   3.321   3.852   7.736 -0.0640 -0.7079 -1.0969
  171SAPE   H8Y19410   3.199   3.961   7.644 -0.3844 -0.7898  1.5495
  171SAPE   C3919411   3.357   4.058   7.753 -0.6108 -0.3915  0.4359
  171SAPE   H9X19412   3.277   4.066   7.829 -0.5146  0.1950  0.4773
  171SAPE   H9Y19413   3.348   4.144   7.683 -0.1938 -0.7008 -0.0079
  171SAPE  C31019414   3.493   4.043   7.822 -0.0114  0.3717  0.1322
  171SAPE  H10X19415   3.565   4.111   7.771 -2.0902  1.8769 -0.9131
  171SAPE  H10Y19416   3.534   3.939   7.818  0.6752  0.6268  0.2971
  171SAPE  C31119417   3.486   4.095   7.970 -0.2597  0.7753 -1.1376
  171SAPE  H11X19418   3.427   4.189   7.972 -0.1608  0.8244  0.1823
  171SAPE  H11Y19419   3.585   4.128   8.010 -1.1111  0.2689  1.6177
  171SAPE  C31219420   3.424   3.999   8.068  0.0131  0.4047  0.3348
  171SAPE  H12X19421   3.470   3.898   8.066 -0.6827  0.0829 -0.0348
  171SAPE  H12Y19422   3.317   3.986   8.040  0.4302  0.3113 -1.3135
  171SAPE  C31319423   3.421   4.055   8.215 -0.0881 -0.1201  0.3589
  171SAPE  H13X19424   3.371   4.153   8.204 -1.6786 -0.9014  0.2469
  171SAPE  H13Y19425   3.528   4.064   8.242  1.0927 -1.7637 -3.1517
  171SAPE  C31419426   3.336   3.966   8.306  0.1384 -0.0896 -0.2324
  171SAPE  H14X19427   3.368   3.861   8.286 -1.9143 -1.3504  2.5088
  171SAPE  H14Y19428   3.229   3.966   8.277  0.1984 -2.0673 -0.5990
  171SAPE  C31519429   3.362   3.983   8.457  0.7827 -0.2128 -0.2138
  171SAPE  H15X19430   3.311   4.074   8.497 -0.5204 -0.7754 -0.5542
  171SAPE  H15Y19431   3.469   3.991   8.489  0.9883 -1.3484 -0.5800
  171SAPE  C31619432   3.291   3.865   8.534 -0.0878 -0.4823 -0.0021
  171SAPE  H16X19433   3.345   3.768   8.523 -0.1934 -0.5698  0.2455
  171SAPE  H16Y19434   3.186   3.847   8.503  0.0482 -0.3361 -0.5683
  171SAPE  C31719435   3.289   3.891   8.679  0.4826  0.6481 -1.0654
  171SAPE  H17X19436   3.215   3.968   8.709 -1.1907 -0.8370 -1.2023
  171SAPE  H17Y19437   3.388   3.932   8.707  1.5173 -1.9800 -0.5898
  171SAPE  C31819438   3.265   3.756   8.750 -0.6309  0.5964  0.4304
  171SAPE  H18X19439   3.232   3.774   8.855 -2.3600 -1.2428  0.2602
  171SAPE  H18Y19440   3.366   3.710   8.758  0.5140  2.9989  0.5848
  171SAPE  H18Z19441   3.182   3.705   8.696  0.2821  1.8549 -2.3251
  172SAPE     N19442   2.963   1.733   6.209  0.0918 -0.0830  0.8492
  172SAPE   HN119443   2.955   1.631   6.189  2.0391  0.1924 -1.9143
  172SAPE   HN219444   2.885   1.785   6.163  2.0921 -0.3711 -3.3002
  172SAPE   HN319445   3.051   1.771   6.169  0.7295 -0.3650  1.9538
  172SAPE   C1219446   2.982   1.751   6.352  0.2891 -0.9979 -0.7877
  172SAPE  H12A19447   3.045   1.840   6.371 -2.4745  0.9697 -0.1400
  172SAPE  H12B19448   3.025   1.654   6.383  1.3301 -0.6212 -1.0078
  172SAPE   C1119449   2.841   1.782   6.415 -0.1192  0.2860  0.1078
  172SAPE  H11A19450   2.808   1.888   6.425 -0.6602 -0.0394  2.1959
  172SAPE  H11B19451   2.852   1.752   6.522 -1.6671 -1.2058 -0.1189
  172SAPE     P19452   2.588   1.743   6.359  0.1865 -0.0289 -0.4457
  172SAPE   O1319453   2.572   1.872   6.285  0.1956 -0.0272  0.2403
  172SAPE   O1419454   2.514   1.626   6.310  0.7749  0.1028 -0.2030
  172SAPE   O1219455   2.742   1.701   6.354  0.4096  0.1780 -0.5489
  172SAPE   O1119456   2.570   1.765   6.505  0.3059  0.2756 -0.5269
  172SAPE    C119457   2.545   1.655   6.588 -0.0801 -0.5411  0.2609
  172SAPE    HA19458   2.435   1.662   6.604 -0.0995  1.7822 -0.5254
  172SAPE    HB19459   2.570   1.557   6.543 -0.0716 -0.0010 -0.9331
  172SAPE    C219460   2.621   1.654   6.724 -0.1985  0.0871 -1.4504
  172SAPE    HS19461   2.613   1.753   6.774  2.3100 -0.5393  0.4269
  172SAPE   O2119462   2.760   1.623   6.698 -0.4021  0.2993 -1.0919
  172SAPE   C2119463   2.845   1.636   6.799  0.5907 -0.6251 -0.0098
  172SAPE   O2219464   2.815   1.699   6.901 -0.3879 -0.4181 -0.7708
  172SAPE   C2219465   2.984   1.588   6.767  0.1216  0.1506  0.1402
  172SAPE   H2R19466   3.028   1.652   6.688  1.4947 -1.0429 -0.1012
  172SAPE   H2S19467   3.039   1.618   6.859  0.4797  2.4776 -0.7765
  172SAPE    C319468   2.536   1.556   6.819 -0.0267  0.1203 -0.6706
  172SAPE    HX19469   2.602   1.540   6.907  0.2742 -1.0645 -1.0882
  172SAPE    HY19470   2.531   1.460   6.763  1.4410  1.1737 -2.7985
  172SAPE   O3119471   2.406   1.624   6.841  0.7897  0.7597  0.1401
  172SAPE   C3119472   2.338   1.554   6.933  0.1762 -0.1085  0.5526
  172SAPE   O3219473   2.381   1.456   6.990 -0.2034 -0.2569 -0.0787
  172SAPE   C3219474   2.201   1.614   6.949 -0.4996  0.3800  0.0293
  172SAPE   H2X19475   2.150   1.589   6.853  3.1167 -2.1652 -1.4290
  172SAPE   H2Y19476   2.214   1.724   6.963  0.6541  0.1530  0.8572
  172SAPE   C2319477   2.987   1.436   6.726 -0.2487  0.0348  0.1633
  172SAPE   H3R19478   3.091   1.411   6.695 -0.2516 -1.4808  1.2743
  172SAPE   H3S19479   2.917   1.412   6.644 -0.3330  0.6868  0.0342
  172SAPE   C2419480   2.946   1.335   6.835 -0.1342  0.1656  1.2638
  172SAPE   H4R19481   2.940   1.236   6.786  1.3798  0.0884  1.1907
  172SAPE   H4S19482   2.841   1.354   6.865 -0.1453 -0.1217  1.4059
  172SAPE   C2519483   3.024   1.306   6.954  0.5821  0.2265  0.2916
  172SAPE   H5R19484   3.128   1.283   6.926  1.1175  0.0208  2.2735
  172SAPE   C2619485   2.987   1.295   7.088  0.5170 -0.7122  0.3303
  172SAPE   H6R19486   3.056   1.255   7.164 -0.6879 -0.9110  1.3444
  172SAPE   C2719487   2.845   1.311   7.133  0.6994  0.4928  0.9673
  172SAPE   H7R19488   2.805   1.209   7.150  0.9386  0.3509  0.6774
  172SAPE   H7S19489   2.777   1.342   7.051  1.7720  2.0279  0.6132
  172SAPE   C2819490   2.816   1.410   7.238  0.8219  0.4500  0.5216
  172SAPE   H8R19491   2.778   1.508   7.203 -2.1379 -1.0797 -0.9070
  172SAPE   C2919492   2.811   1.385   7.371 -0.3053 -0.1674 -0.5733
  172SAPE   H9R19493   2.794   1.467   7.441 -0.4976 -0.1923 -0.5924
  172SAPE  C21019494   2.844   1.255   7.434 -0.4430  0.7187  0.2843
  172SAPE  H10R19495   2.867   1.176   7.360 -1.1963  1.5702 -0.8855
  172SAPE  H10S19496   2.755   1.211   7.485  0.2755 -0.5930  0.4571
  172SAPE  C21119497   2.970   1.271   7.509 -0.8259 -0.0432 -0.2099
  172SAPE  H11R19498   3.062   1.284   7.450 -0.7211 -1.0893 -0.3019
  172SAPE  C21219499   2.982   1.250   7.641 -0.2422 -0.4802  0.2112
  172SAPE  H12R19500   3.077   1.254   7.695 -0.9121 -0.5437  1.4189
  172SAPE  C21319501   2.873   1.202   7.738 -0.4700 -0.0144  0.0089
  172SAPE  H13R19502   2.812   1.127   7.683 -1.5724  1.6762 -1.1704
  172SAPE  H13S19503   2.804   1.286   7.760 -0.1294  0.7386 -1.6455
  172SAPE  C21419504   2.932   1.132   7.858  0.5254 -0.7820  0.3608
  172SAPE  H14R19505   2.986   1.043   7.823  1.5051  0.8852 -2.6943
  172SAPE  C21519506   2.926   1.161   7.991 -0.5361 -0.2780  0.2465
  172SAPE  H15R19507   2.985   1.107   8.066 -0.4082  0.0692  0.3998
  172SAPE  C21619508   2.855   1.280   8.045 -0.7546 -0.2455  0.1511
  172SAPE  H16R19509   2.778   1.316   7.974 -0.8990 -0.9433 -0.0588
  172SAPE  H16S19510   2.924   1.365   8.063  1.0645 -1.6747  0.2991
  172SAPE  C21719511   2.802   1.249   8.189  0.4139  0.7222 -0.1680
  172SAPE  H17R19512   2.729   1.164   8.184  0.1237  0.9821 -0.4016
  172SAPE  H17S19513   2.739   1.336   8.216  1.6514  1.6940 -0.3729
  172SAPE  C21819514   2.907   1.219   8.298 -0.5950  0.3116  0.8143
  172SAPE  H18R19515   2.976   1.305   8.311 -0.1734  0.2300 -0.6997
  172SAPE  H18S19516   2.975   1.145   8.251 -1.0764  1.2732 -1.5621
  172SAPE  C21919517   2.841   1.182   8.430  0.5019  0.8937  0.2426
  172SAPE  H19R19518   2.783   1.090   8.406 -1.0104  2.6120 -3.4584
  172SAPE  H19S19519   2.781   1.269   8.464 -0.5801 -0.2558  1.3694
  172SAPE  C22019520   2.949   1.161   8.542  0.0397 -0.2463 -0.3594
  172SAPE  H20R19521   3.017   1.248   8.538 -2.1910  1.7275  1.7388
  172SAPE  H20S19522   3.012   1.071   8.524  1.2593  0.3578  0.7785
  172SAPE  H20T19523   2.893   1.155   8.638 -0.1287  0.3177 -0.4203
  172SAPE   C3319524   2.119   1.542   7.061 -0.1655  0.2632  0.0222
  172SAPE   H3X19525   2.134   1.432   7.056 -0.1062  0.2777 -0.1319
  172SAPE   H3Y19526   2.012   1.562   7.040 -0.2045  0.3530  0.3057
  172SAPE   C3419527   2.151   1.605   7.194  0.3339 -1.2707  0.4009
  172SAPE   H4X19528   2.122   1.712   7.189  1.6444 -0.9399 -0.5679
  172SAPE   H4Y19529   2.261   1.613   7.209  0.0240  1.5850  1.7395
  172SAPE   C3519530   2.097   1.534   7.320  0.2520  0.1344  0.2142
  172SAPE   H5X19531   2.122   1.428   7.299  0.6776  0.4651 -1.0349
  172SAPE   H5Y19532   1.986   1.538   7.316  0.2721 -0.3424 -2.6758
  172SAPE   C3619533   2.146   1.598   7.449  0.2799  0.1586  0.8839
  172SAPE   H6X19534   2.131   1.708   7.435 -1.4263 -0.1019  0.3645
  172SAPE   H6Y19535   2.254   1.576   7.456  0.8830  2.4718 -0.1773
  172SAPE   C3719536   2.074   1.549   7.580  0.5766 -0.8806  0.1878
  172SAPE   H7X19537   2.075   1.438   7.587  1.3748 -0.8732  0.2573
  172SAPE   H7Y19538   1.965   1.570   7.569  0.6056 -1.2981 -1.0320
  172SAPE   C3819539   2.125   1.606   7.709  0.5972  0.6174 -0.2291
  172SAPE   H8X19540   2.130   1.716   7.703 -1.1772  0.8315  1.3115
  172SAPE   H8Y19541   2.228   1.573   7.735  0.6364 -0.5695 -1.7513
  172SAPE   C3919542   2.030   1.559   7.822 -0.4128 -0.3910 -0.4331
  172SAPE   H9X19543   2.006   1.451   7.810  0.7031 -0.6644 -0.2994
  172SAPE   H9Y19544   1.940   1.622   7.810  0.0004 -0.0224 -1.6947
  172SAPE  C31019545   2.085   1.570   7.964  0.2949  0.4450 -0.1702
  172SAPE  H10X19546   2.130   1.671   7.970  1.6290 -0.1663  0.5777
  172SAPE  H10Y19547   2.167   1.499   7.990  1.8667  2.0194 -0.6444
  172SAPE  C31119548   1.957   1.586   8.054 -0.3453 -0.4091 -1.0530
  172SAPE  H11X19549   1.897   1.495   8.074  0.6854 -0.3905  2.9933
  172SAPE  H11Y19550   1.897   1.659   7.996  1.9830  1.3392 -1.3970
  172SAPE  C31219551   1.981   1.639   8.199 -0.5414 -0.4609  0.1183
  172SAPE  H12X19552   2.046   1.728   8.186 -1.7511  0.1176 -2.7668
  172SAPE  H12Y19553   2.040   1.560   8.250 -1.3444 -1.0429  0.1571
  172SAPE  C31319554   1.856   1.683   8.270 -0.0575  0.5353  1.1132
  172SAPE  H13X19555   1.801   1.589   8.289 -1.5603  1.1755  0.0945
  172SAPE  H13Y19556   1.804   1.747   8.196  1.1717  1.7298  1.2424
  172SAPE  C31419557   1.873   1.752   8.407 -0.3844 -0.8276 -0.0065
  172SAPE  H14X19558   1.773   1.754   8.455 -0.3606  1.0884  0.0316
  172SAPE  H14Y19559   1.906   1.857   8.392 -2.1786 -0.0724  1.0016
  172SAPE  C31519560   1.968   1.685   8.506 -0.6152  0.1505 -1.3453
  172SAPE  H15X19561   2.060   1.668   8.446  1.4940  3.0616  0.7467
  172SAPE  H15Y19562   1.935   1.591   8.555  0.4752  0.2020 -0.4656
  172SAPE  C31619563   2.022   1.788   8.607 -0.3553  0.1816 -0.1587
  172SAPE  H16X19564   2.075   1.869   8.554 -2.2836  2.9367  1.8265
  172SAPE  H16Y19565   2.101   1.740   8.669 -1.5437  1.0667  2.1543
  172SAPE  C31719566   1.914   1.842   8.704  0.2535  0.3825 -0.1708
  172SAPE  H17X19567   1.845   1.914   8.656  1.0062  1.8640  0.9140
  172SAPE  H17Y19568   1.964   1.913   8.773 -1.0025  0.6759  0.4511
  172SAPE  C31819569   1.834   1.732   8.774  0.5324  0.3237 -0.2944
  172SAPE  H18X19570   1.791   1.665   8.696  3.0505 -0.1138 -1.4232
  172SAPE  H18Y19571   1.752   1.774   8.835  0.8611 -1.5965  1.5978
  172SAPE  H18Z19572   1.897   1.662   8.833 -1.0818 -0.9069  0.0226
  173SOPE     N19573   6.431   5.933  11.088  0.2796  0.2338 -0.5550
  173SOPE   HN119574   6.528   5.916  11.058  0.8774  1.8085  0.3739
  173SOPE   HN219575   6.395   6.022  11.047 -0.2189  0.4952  0.3998
  173SOPE   HN319576   6.439   5.940  11.192 -2.0624 -1.3105 -0.1783
  173SOPE   C1219577   6.343   5.819  11.029 -0.0133  0.3749 -0.1759
  173SOPE  H12A19578   6.247   5.806  11.083 -0.1583  1.8152 -0.0453
  173SOPE  H12B19579   6.400   5.723  11.031  0.6146  0.7070 -1.2933
  173SOPE   C1119580   6.314   5.853  10.881 -0.7293 -0.6844  0.1927
  173SOPE  H11A19581   6.246   5.941  10.875 -0.3693 -0.5059 -3.4073
  173SOPE  H11B19582   6.260   5.763  10.845  0.7172 -1.7258  0.5426
  173SOPE     P19583   6.489   6.024  10.771  0.0773 -0.1093 -0.2944
  173SOPE   O1319584   6.627   6.016  10.720  0.1269 -0.1184  0.4211
  173SOPE   O1419585   6.468   6.113  10.887  0.8759  0.6483  0.9393
  173SOPE   O1219586   6.441   5.878  10.814 -0.0928 -0.3252  0.0949
  173SOPE   O1119587   6.393   6.076  10.651  0.2986  0.1012 -0.0741
  173SOPE    C119588   6.426   6.196  10.580  0.4293  0.2192  0.1141
  173SOPE    HA19589   6.503   6.257  10.631  0.2378  1.4556 -1.0154
  173SOPE    HB19590   6.338   6.264  10.577 -0.3530 -0.6353  2.1350
  173SOPE    C219591   6.468   6.165  10.434  0.3455  0.8920  0.0098
  173SOPE    HS19592   6.505   6.255  10.379  0.1462  1.7107  1.1861
  173SOPE   O2119593   6.364   6.085  10.375 -0.0884  0.2433  0.3330
  173SOPE   C2119594   6.258   6.158  10.333 -0.5423 -0.5041 -0.9825
  173SOPE   O2219595   6.256   6.280  10.329 -0.2267  0.1824 -0.2981
  173SOPE   C2219596   6.148   6.071  10.277 -0.5658  0.9869  0.3846
  173SOPE   H2R19597   6.067   6.082  10.353  0.3307 -1.9361  1.9328
  173SOPE   H2S19598   6.166   5.961  10.288 -1.8244  0.6365 -0.7756
  173SOPE    C319599   6.593   6.065  10.430 -0.8373 -0.9773  0.2375
  173SOPE    HX19600   6.565   5.962  10.460 -0.3324 -0.6291  2.0463
  173SOPE    HY19601   6.663   6.106  10.506 -4.2638  0.5646  2.8317
  173SOPE   O3119602   6.653   6.047  10.300 -0.0984  0.1081 -0.0361
  173SOPE   C3119603   6.767   5.979  10.303  0.3745  0.2708 -0.1504
  173SOPE   O3219604   6.831   5.943  10.398  0.1406  0.0751  0.1613
  173SOPE   C3219605   6.812   5.969  10.153 -0.2164 -0.8832  0.6779
  173SOPE   H2X19606   6.844   6.066  10.108 -2.2735 -0.1435  0.7264
  173SOPE   H2Y19607   6.719   5.952  10.095  0.2935  0.8807 -0.7695
  173SOPE   C2319608   6.111   6.105  10.125  0.3410 -0.2021  0.4235
  173SOPE   H3R19609   6.186   6.047  10.067 -1.3687 -1.5247 -0.5953
  173SOPE   H3S19610   6.124   6.214  10.111  0.0180  0.2753  3.2840
  173SOPE   C2419611   5.963   6.084  10.082 -0.1491 -0.8784  0.3098
  173SOPE   H4R19612   5.927   5.980  10.102 -1.7389  0.0298  2.5704
  173SOPE   H4S19613   5.911   6.140  10.162 -0.1313  0.6835 -0.7394
  173SOPE   C2519614   5.919   6.124   9.943 -0.3984  0.1584 -0.2515
  173SOPE   H5R19615   5.808   6.119   9.944 -0.3359 -3.1980  1.6550
  173SOPE   H5S19616   5.949   6.229   9.920 -1.3074  0.3085 -0.8238
  173SOPE   C2619617   5.975   6.051   9.823  0.5779  0.7790  0.1087
  173SOPE   H6R19618   5.958   6.118   9.736  1.3421  1.8977  0.8015
  173SOPE   H6S19619   6.084   6.036   9.838  0.9491  3.1769  0.2476
  173SOPE   C2719620   5.927   5.905   9.806  0.0547  0.6397  0.3272
  173SOPE   H7R19621   5.952   5.848   9.898 -0.1292 -0.5608 -0.3467
  173SOPE   H7S19622   5.817   5.885   9.812  0.6002 -2.6823  1.9584
  173SOPE   C2819623   5.972   5.843   9.672 -0.2262  0.5591 -0.3966
  173SOPE   H8R19624   5.927   5.743   9.653 -0.4423  0.6703 -0.4809
  173SOPE   H8S19625   5.926   5.909   9.595  2.1872  1.8487 -0.8459
  173SOPE   C2919626   6.118   5.829   9.663  0.1154  0.3540  0.2812
  173SOPE   H9119627   6.144   5.770   9.752 -1.3008 -0.0699  0.4515
  173SOPE  C21019628   6.205   5.883   9.579  0.9400 -0.2292  0.5795
  173SOPE  H10119629   6.311   5.873   9.607  0.6954  1.9989  2.6358
  173SOPE  C21119630   6.172   5.976   9.468  0.1847 -0.7921  0.6981
  173SOPE  H11R19631   6.190   6.078   9.508 -0.5699  0.4252 -1.8550
  173SOPE  H11S19632   6.063   5.972   9.449  0.5104 -2.2055 -1.1277
  173SOPE  C21219633   6.236   5.950   9.332 -0.9979 -0.0011  0.6689
  173SOPE  H12R19634   6.346   5.966   9.340 -0.7231 -0.7132 -1.3257
  173SOPE  H12S19635   6.191   6.023   9.262 -1.5884 -1.2901 -0.3457
  173SOPE  C21319636   6.200   5.811   9.263  0.2474  0.1631  0.7916
  173SOPE  H13R19637   6.092   5.793   9.246  0.3528 -1.3198  1.4986
  173SOPE  H13S19638   6.237   5.731   9.331  2.2508  0.3106 -0.0542
  173SOPE  C21419639   6.278   5.790   9.133 -0.2661  0.0805 -0.6017
  173SOPE  H14R19640   6.386   5.774   9.153  0.0410  0.6951 -1.6836
  173SOPE  H14S19641   6.265   5.869   9.056  2.0037 -0.8311 -2.0216
  173SOPE  C21519642   6.216   5.659   9.067  0.7260  0.2955  0.5480
  173SOPE  H15R19643   6.110   5.685   9.050  0.3615 -1.5423 -0.1957
  173SOPE  H15S19644   6.216   5.571   9.134 -1.7639  1.0362  1.6414
  173SOPE  C21619645   6.285   5.624   8.929  0.1057  0.7196 -0.0713
  173SOPE  H16R19646   6.389   5.588   8.944 -0.3463 -0.3281  0.6626
  173SOPE  H16S19647   6.288   5.714   8.865 -0.2288  0.2331 -0.7807
  173SOPE  C21719648   6.208   5.519   8.845  0.2046 -0.1658 -0.3517
  173SOPE  H17R19649   6.103   5.553   8.830 -0.7163 -0.2862  4.1942
  173SOPE  H17S19650   6.204   5.430   8.913 -0.0540 -0.0331 -0.1912
  173SOPE  C21819651   6.274   5.494   8.709  0.1818 -0.9027  0.0784
  173SOPE  H18R19652   6.277   5.590   8.654  0.6914 -0.0288  1.5814
  173SOPE  H18S19653   6.220   5.417   8.651 -1.1635  0.4249 -0.4894
  173SOPE  H18T19654   6.377   5.457   8.732  0.7229  0.7417  0.4202
  173SOPE   C3319655   6.922   5.862  10.139 -0.3178  0.4706  0.8662
  173SOPE   H3X19656   6.909   5.790  10.223  1.2298 -0.6848  0.1829
  173SOPE   H3Y19657   7.022   5.907  10.156  0.3548 -0.8586  0.6168
  173SOPE   C3419658   6.929   5.789  10.002 -0.4699 -0.2714  0.4275
  173SOPE   H4X19659   6.829   5.740  10.003 -1.6260  1.9211 -0.7380
  173SOPE   H4Y19660   7.005   5.708  10.008 -0.5113 -0.3070  0.4774
  173SOPE   C3519661   6.960   5.880   9.888  0.5227 -0.7712  0.5862
  173SOPE   H5X19662   7.067   5.911   9.878 -0.0187  1.0799  0.0933
  173SOPE   H5Y19663   6.903   5.975   9.888  2.2461  0.3164 -0.6519
  173SOPE   C3619664   6.932   5.800   9.757  0.1899  0.0544  0.1142
  173SOPE   H6X19665   6.825   5.770   9.751 -0.2839  1.9451 -2.6100
  173SOPE   H6Y19666   7.008   5.719   9.754  0.9128  0.7445 -2.0951
  173SOPE   C3719667   6.977   5.876   9.632  0.1193 -0.5510  0.1452
  173SOPE   H7X19668   7.073   5.926   9.659  0.3704 -0.3897 -1.0151
  173SOPE   H7Y19669   6.908   5.960   9.613  2.2536  1.3975  0.5420
  173SOPE   C3819670   6.991   5.782   9.502 -0.4971  0.0934  0.3753
  173SOPE   H8X19671   6.889   5.752   9.470 -0.4317  0.4192 -0.1384
  173SOPE   H8Y19672   7.048   5.690   9.529  2.7642  1.5674 -0.8831
  173SOPE   C3919673   7.058   5.856   9.389 -0.3001 -0.0959  1.3500
  173SOPE   H9X19674   7.168   5.843   9.400 -0.4093 -2.4017  0.3588
  173SOPE   H9Y19675   7.036   5.964   9.404  0.8310  0.3147  0.2630
  173SOPE  C31019676   7.023   5.800   9.248  0.1426 -0.2359  0.1439
  173SOPE  H10X19677   7.063   5.871   9.173 -1.0392 -1.6643 -1.9312
  173SOPE  H10Y19678   6.914   5.805   9.230  0.0923 -0.0593  0.4974
  173SOPE  C31119679   7.081   5.662   9.225  0.1983 -0.3427  0.4210
  173SOPE  H11X19680   7.025   5.595   9.293  2.3972 -2.1918  0.5277
  173SOPE  H11Y19681   7.186   5.642   9.258  0.1900 -0.9708  0.0800
  173SOPE  C31219682   7.052   5.609   9.088  0.2199  0.3014 -0.1488
  173SOPE  H12X19683   7.091   5.677   9.009  0.0085  2.7033  1.6763
  173SOPE  H12Y19684   6.942   5.599   9.074  0.4125  1.6036 -3.7122
  173SOPE  C31319685   7.105   5.457   9.071  0.3259  0.1541  0.4757
  173SOPE  H13X19686   7.077   5.402   9.163 -1.9389  2.1804  1.1075
  173SOPE  H13Y19687   7.213   5.468   9.046  0.2588  1.9389  0.8171
  173SOPE  C31419688   7.046   5.376   8.951  0.5214  0.5946 -0.5748
  173SOPE  H14X19689   6.938   5.366   8.972  0.0750  1.2752 -2.3798
  173SOPE  H14Y19690   7.098   5.278   8.945 -0.2869  0.0410  0.9364
  173SOPE  C31519691   7.062   5.452   8.820  0.4279 -0.5300 -0.5955
  173SOPE  H15X19692   7.169   5.476   8.801  0.8937 -1.4475  0.7225
  173SOPE  H15Y19693   7.001   5.544   8.828 -0.3744 -1.0725 -0.3391
  173SOPE  C31619694   6.998   5.387   8.693 -0.4635 -0.3321  0.2070
  173SOPE  H16X19695   7.072   5.333   8.630  1.5530  3.3360 -0.8907
  173SOPE  H16Y19696   6.947   5.463   8.630 -1.7088 -0.0706  1.4851
  173SOPE  C31719697   6.884   5.284   8.707 -0.7562  0.4320  0.0183
  173SOPE  H17X19698   6.791   5.337   8.734 -0.3337  0.0359  2.4295
  173SOPE  H17Y19699   6.915   5.206   8.780  2.6684 -0.0763 -1.7395
  173SOPE  C31819700   6.863   5.222   8.571  0.4234 -0.1935  0.7793
  173SOPE  H18X19701   6.791   5.137   8.566  0.8527 -0.4625 -2.4493
  173SOPE  H18Y19702   6.957   5.188   8.524 -1.3436 -1.6205 -1.9731
  173SOPE  H18Z19703   6.827   5.299   8.500  1.5351  1.1940  1.6669
  174SOPE     N19704   5.332   6.229  10.685 -0.1084 -0.5057  0.0938
  174SOPE   HN119705   5.384   6.144  10.717  3.0429  0.4643 -1.9556
  174SOPE   HN219706   5.267   6.256  10.762  0.0442 -3.3517  1.3530
  174SOPE   HN319707   5.282   6.200  10.598 -1.5502  0.8433  0.4339
  174SOPE   C1219708   5.429   6.335  10.658 -0.2685  0.0038 -0.1261
  174SOPE  H12A19709   5.479   6.356  10.755  1.2512  0.5024 -0.9766
  174SOPE  H12B19710   5.368   6.423  10.627 -0.1242 -0.8932 -3.2944
  174SOPE   C1119711   5.528   6.312  10.534 -0.0018  0.0052  0.3306
  174SOPE  H11A19712   5.576   6.406  10.499 -2.3743  0.6493 -1.3954
  174SOPE  H11B19713   5.469   6.267  10.452 -1.7551  1.2973  0.8470
  174SOPE     P19714   5.759   6.234  10.628 -0.1896  0.1640 -0.3278
  174SOPE   O1319715   5.851   6.131  10.577  0.5895 -0.1905 -0.0280
  174SOPE   O1419716   5.740   6.254  10.773  0.1802 -0.0738 -0.2024
  174SOPE   O1219717   5.620   6.211  10.565 -0.3230 -0.5390  0.1010
  174SOPE   O1119718   5.793   6.380  10.575  0.0847  0.3497  0.5408
  174SOPE    C119719   5.883   6.387  10.458  0.2415  0.0250  0.1255
  174SOPE    HA19720   5.868   6.299  10.391  1.5569 -2.1603  2.5045
  174SOPE    HB19721   5.985   6.380  10.500  0.6140  1.0482 -0.5683
  174SOPE    C219722   5.883   6.528  10.386  0.2159  0.3444  0.7732
  174SOPE    HS19723   5.911   6.608  10.458 -0.5237  1.4784 -0.1572
  174SOPE   O2119724   5.751   6.540  10.338  0.5582  0.1500  0.1244
  174SOPE   C2119725   5.703   6.661  10.337 -0.4294  0.1079  0.1348
  174SOPE   O2219726   5.764   6.763  10.366 -0.3625  0.0375 -0.4154
  174SOPE   C2219727   5.552   6.655  10.306  0.0228  0.4846  0.1423
  174SOPE   H2R19728   5.500   6.686  10.399 -1.6176 -0.5256 -0.3722
  174SOPE   H2S19729   5.514   6.553  10.281 -0.2303  0.4199  0.7792
  174SOPE    C319730   5.979   6.525  10.265  0.0970 -0.0064 -0.3974
  174SOPE    HX19731   5.960   6.437  10.200  2.5918 -0.7447 -0.2210
  174SOPE    HY19732   6.084   6.503  10.293  0.1470  2.3976  1.6638
  174SOPE   O3119733   5.985   6.640  10.189  0.7324 -0.3356  0.5584
  174SOPE   C3119734   6.048   6.739  10.252  0.7086 -0.4132 -0.6953
  174SOPE   O3219735   6.104   6.731  10.359 -0.2322 -0.0026  0.2245
  174SOPE   C3219736   6.039   6.872  10.177 -0.5795 -0.3543 -0.0498
  174SOPE   H2X19737   6.137   6.922  10.195 -0.6445 -0.8032  1.7291
  174SOPE   H2Y19738   5.969   6.933  10.237 -0.4766 -0.2487 -0.0360
  174SOPE   C2319739   5.510   6.748  10.194 -0.0404 -0.0042  0.4890
  174SOPE   H3R19740   5.536   6.712  10.092 -0.7644  0.6295  0.0635
  174SOPE   H3S19741   5.555   6.849  10.208  2.1454 -0.9282  0.3943
  174SOPE   C2419742   5.362   6.775  10.196  0.4891 -0.5497  0.0321
  174SOPE   H4R19743   5.306   6.681  10.178 -0.6339 -0.3192  2.0455
  174SOPE   H4S19744   5.332   6.799  10.300  1.0326  1.2753 -0.1955
  174SOPE   C2519745   5.322   6.894  10.104  0.4129 -0.0723 -0.2099
  174SOPE   H5R19746   5.355   6.989  10.151  2.8618 -1.2746  0.6365
  174SOPE   H5S19747   5.377   6.880  10.009  0.0152  0.3856 -0.5147
  174SOPE   C2619748   5.174   6.894  10.058  0.9117 -0.8291  0.1652
  174SOPE   H6R19749   5.156   6.787  10.034  0.1718 -1.5796  3.4766
  174SOPE   H6S19750   5.111   6.921  10.146 -1.0362  1.1961 -1.7046
  174SOPE   C2719751   5.127   7.004   9.946 -0.4146 -0.6034 -0.1792
  174SOPE   H7R19752   5.023   6.972   9.922 -0.1994 -2.3476  1.0759
  174SOPE   H7S19753   5.132   7.109   9.982  1.1317 -0.5420 -0.5008
  174SOPE   C2819754   5.206   6.987   9.816  0.6262 -0.1823 -0.3113
  174SOPE   H8R19755   5.309   7.022   9.836 -0.3125  2.3008  0.6153
  174SOPE   H8S19756   5.208   6.876   9.804 -1.9359 -0.5646  1.8655
  174SOPE   C2919757   5.174   7.058   9.686  0.4357 -0.2310  0.1713
  174SOPE   H9119758   5.203   7.164   9.680 -1.8003  0.4296 -0.1518
  174SOPE  C21019759   5.119   7.008   9.571  0.1866  0.0740 -0.2233
  174SOPE  H10119760   5.104   7.072   9.483  1.8448  1.6648  0.5850
  174SOPE  C21119761   5.059   6.867   9.557  0.1038  0.1091  0.7699
  174SOPE  H11R19762   5.029   6.826   9.655 -2.0174 -1.5299 -0.4754
  174SOPE  H11S19763   5.135   6.799   9.513 -0.2285 -1.2212  2.1973
  174SOPE  C21219764   4.943   6.849   9.464  0.4233 -0.3738  0.2996
  174SOPE  H12R19765   4.938   6.745   9.424  2.6271 -0.2898 -0.3240
  174SOPE  H12S19766   4.949   6.919   9.379  0.9547 -1.8769 -0.9570
  174SOPE  C21319767   4.817   6.889   9.543 -0.5671 -0.4183  0.2069
  174SOPE  H13R19768   4.836   6.990   9.586 -1.8491  0.6824 -1.6218
  174SOPE  H13S19769   4.795   6.827   9.632  1.6660 -0.4268  0.7860
  174SOPE  C21419770   4.695   6.917   9.448 -0.4083  0.4539  0.1624
  174SOPE  H14R19771   4.663   6.812   9.434  0.9395 -0.1420  1.3467
  174SOPE  H14S19772   4.735   6.957   9.352 -0.0205  1.4729  0.7328
  174SOPE  C21519773   4.580   6.998   9.515  0.3989  0.4664  0.6074
  174SOPE  H15R19774   4.496   7.010   9.444 -0.5785 -0.3706  1.5926
  174SOPE  H15S19775   4.610   7.101   9.544 -1.3357  1.2784 -0.3386
  174SOPE  C21619776   4.517   6.928   9.638  0.1467 -0.0142 -0.5173
  174SOPE  H16R19777   4.593   6.935   9.719 -1.5351  1.0320  1.0511
  174SOPE  H16S19778   4.499   6.819   9.629 -1.0077  0.1739 -0.6404
  174SOPE  C21719779   4.397   6.988   9.689  0.0110 -0.1301  0.2549
  174SOPE  H17R19780   4.312   6.961   9.623  0.1515  0.0756 -0.0098
  174SOPE  H17S19781   4.408   7.096   9.669  3.0153 -0.5812 -1.1445
  174SOPE  C21819782   4.377   6.972   9.837  0.4561 -0.6573 -0.0850
  174SOPE  H18R19783   4.450   7.015   9.909 -2.2476  1.5761  1.5405
  174SOPE  H18S19784   4.355   6.867   9.863  1.8113 -0.9365  0.0050
  174SOPE  H18T19785   4.281   7.023   9.860  1.4219 -0.0662  3.1864
  174SOPE   C3319786   6.027   6.857  10.024 -0.1095 -0.0305  0.2500
  174SOPE   H3X19787   5.918   6.849  10.004 -0.5191  0.5235  2.0752
  174SOPE   H3Y19788   6.081   6.762  10.002  1.5242  1.3219 -1.9254
  174SOPE   C3419789   6.091   6.958   9.923 -0.3514  0.0540 -0.2930
  174SOPE   H4X19790   6.185   6.998   9.965 -0.8857 -1.0597  2.1370
  174SOPE   H4Y19791   6.021   7.044   9.921  0.1040  0.5490  1.9392
  174SOPE   C3519792   6.117   6.893   9.790 -0.7425  0.0796 -0.0352
  174SOPE   H5X19793   6.052   6.802   9.792  0.2756 -0.6584  0.7399
  174SOPE   H5Y19794   6.221   6.856   9.798 -0.3768  0.5838 -1.9019
  174SOPE   C3619795   6.094   6.971   9.668 -0.6777  0.9737  0.2304
  174SOPE   H6X19796   6.158   7.061   9.663 -0.6435  0.9941  0.8467
  174SOPE   H6Y19797   5.988   7.004   9.664 -0.6396  1.6293  2.6324
  174SOPE   C3719798   6.134   6.893   9.543 -0.0158 -0.0030  0.7206
  174SOPE   H7X19799   6.094   6.789   9.543  0.8989 -0.3753 -0.2926
  174SOPE   H7Y19800   6.242   6.866   9.540  0.4029  1.5266  1.2582
  174SOPE   C3819801   6.097   6.968   9.406  0.2337  0.5309 -0.7163
  174SOPE   H8X19802   6.171   7.040   9.366  0.7939  0.1355 -0.4025
  174SOPE   H8Y19803   5.999   7.020   9.416 -0.3489 -0.3211 -1.7533
  174SOPE   C3919804   6.060   6.871   9.286 -0.2301  0.5024 -0.0086
  174SOPE   H9X19805   5.969   6.812   9.309 -0.2726  0.8407  0.7313
  174SOPE   H9Y19806   6.138   6.792   9.276  0.9036  1.6265 -0.4165
  174SOPE  C31019807   6.045   6.953   9.155 -0.3861 -0.4629  0.6519
  174SOPE  H10X19808   6.112   7.041   9.158 -1.1392  0.0858  2.4287
  174SOPE  H10Y19809   5.945   7.000   9.146 -0.9989 -1.7269  0.5439
  174SOPE  C31119810   6.076   6.872   9.026  0.4699  0.6030  0.3947
  174SOPE  H11X19811   6.011   6.783   9.038  4.1562 -2.5973 -1.2841
  174SOPE  H11Y19812   6.182   6.838   9.032  0.2495 -0.5031 -1.3923
  174SOPE  C31219813   6.053   6.937   8.886  0.1281 -0.4424  0.7056
  174SOPE  H12X19814   6.104   7.036   8.887  1.7734 -1.2214 -0.6466
  174SOPE  H12Y19815   5.945   6.959   8.868 -0.3037  0.3952  3.6911
  174SOPE  C31319816   6.110   6.854   8.773  0.0314 -0.4425  0.1706
  174SOPE  H13X19817   6.218   6.855   8.799  0.0729 -1.0275  0.0285
  174SOPE  H13Y19818   6.096   6.912   8.679  0.3183 -0.9708 -0.1997
  174SOPE  C31419819   6.057   6.707   8.747 -0.2967 -0.0542  0.3029
  174SOPE  H14X19820   5.949   6.727   8.731 -0.6664 -1.7186  0.5866
  174SOPE  H14Y19821   6.082   6.645   8.835 -0.2990 -1.6127 -0.7603
  174SOPE  C31519822   6.117   6.654   8.617 -0.6206  1.0138  0.2327
  174SOPE  H15X19823   6.127   6.731   8.538  1.7076  0.8329  0.2953
  174SOPE  H15Y19824   6.043   6.578   8.586 -0.1983  0.6415  0.1345
  174SOPE  C31619825   6.258   6.590   8.627 -1.2223  1.0432  0.2606
  174SOPE  H16X19826   6.261   6.549   8.730 -1.3387  1.7217  0.5357
  174SOPE  H16Y19827   6.332   6.672   8.618  0.2120 -0.1720  0.4841
  174SOPE  C31719828   6.280   6.484   8.525 -0.2177  0.1061 -0.8191
  174SOPE  H17X19829   6.213   6.401   8.557  0.7763 -0.4707 -0.1826
  174SOPE  H17Y19830   6.387   6.454   8.519  0.7433  2.6708  1.3371
  174SOPE  C31819831   6.244   6.520   8.381  0.2839  0.9318  0.3228
  174SOPE  H18X19832   6.261   6.431   8.317 -0.2381  0.1227  1.2760
  174SOPE  H18Y19833   6.303   6.608   8.349 -1.6304  1.7486 -1.1309
  174SOPE  H18Z19834   6.136   6.537   8.362 -0.1639 -2.8915 -1.6487
  175SOPE     N19835   3.957   1.555  10.770  0.3378  0.3351 -0.4805
  175SOPE   HN119836   3.868   1.600  10.799  1.4487  2.6476 -0.4675
  175SOPE   HN219837   4.005   1.509  10.849  0.9415  0.2630 -0.8846
  175SOPE   HN319838   4.015   1.637  10.743 -0.2002  0.7333 -0.4390
  175SOPE   C1219839   3.932   1.469  10.654 -0.4972 -0.4613  0.2418
  175SOPE  H12A19840   3.841   1.507  10.603 -0.7249 -1.0573  0.1946
  175SOPE  H12B19841   3.900   1.372  10.697 -0.1248 -0.8236 -0.2680
  175SOPE   C1119842   4.054   1.454  10.555  0.1373 -0.1975 -0.1239
  175SOPE  H11A19843   4.068   1.554  10.510 -0.2659  0.9899  2.1909
  175SOPE  H11B19844   4.014   1.389  10.474  0.3643  2.6250 -2.6420
  175SOPE     P19845   4.296   1.466  10.641 -0.2632 -0.1476  0.1842
  175SOPE   O1319846   4.395   1.373  10.702 -0.1082 -0.0682 -0.5637
  175SOPE   O1419847   4.266   1.582  10.731 -0.5947  0.4694 -0.3406
  175SOPE   O1219848   4.163   1.394  10.614 -0.2814 -0.3589 -0.2559
  175SOPE   O1119849   4.347   1.533  10.505  0.4444  0.4159 -0.4013
  175SOPE    C119850   4.432   1.642  10.481 -0.7912  0.2715  0.3154
  175SOPE    HA19851   4.477   1.641  10.379  1.6434  1.6111  1.3148
  175SOPE    HB19852   4.523   1.637  10.544  0.7352  2.2464 -1.6047
  175SOPE    C219853   4.354   1.780  10.487 -0.4813 -0.6911  0.2724
  175SOPE    HS19854   4.330   1.796  10.594 -0.2615  0.0545  0.2164
  175SOPE   O2119855   4.231   1.773  10.415 -1.0014  0.1163  0.5544
  175SOPE   C2119856   4.153   1.873  10.437  0.1300 -1.2788  0.0939
  175SOPE   O2219857   4.177   1.966  10.517 -0.0144 -0.3898 -0.2129
  175SOPE   C2219858   4.031   1.866  10.345  0.1676 -0.1870 -0.0175
  175SOPE   H2R19859   3.942   1.867  10.412 -0.8461 -1.5324 -1.2953
  175SOPE   H2S19860   4.030   1.768  10.293  1.7915 -1.3542  1.9919
  175SOPE    C319861   4.451   1.890  10.433  0.0255 -0.6414 -0.1480
  175SOPE    HX19862   4.528   1.893  10.513 -0.8654  0.9949  0.7144
  175SOPE    HY19863   4.402   1.990  10.440 -1.7707 -1.5245  0.5599
  175SOPE   O3119864   4.507   1.850  10.311  0.5826 -0.0386 -0.1519
  175SOPE   C3119865   4.442   1.893  10.210 -0.1327 -0.2473  0.0224
  175SOPE   O3219866   4.341   1.963  10.205 -0.0345 -0.0150 -0.4019
  175SOPE   C3219867   4.496   1.815  10.094 -0.2134 -0.1673 -0.1495
  175SOPE   H2X19868   4.462   1.710  10.108  1.9793 -0.9975 -0.7649
  175SOPE   H2Y19869   4.605   1.823  10.074 -0.6720 -0.1740 -3.0998
  175SOPE   C2319870   4.023   1.975  10.241 -0.8340 -0.0603  0.1003
  175SOPE   H3R19871   4.120   1.976  10.186 -1.8717 -1.4143 -1.8890
  175SOPE   H3S19872   4.001   2.073  10.289 -1.6795  0.0756 -0.5340
  175SOPE   C2419873   3.919   1.958  10.123 -0.3761  0.7108 -0.5723
  175SOPE   H4R19874   3.833   1.907  10.171 -0.3279  2.7238  1.9258
  175SOPE   H4S19875   3.873   2.055  10.092  2.5568  3.1689  2.0723
  175SOPE   C2519876   3.959   1.864  10.006  0.7864  0.3183 -0.2194
  175SOPE   H5R19877   4.040   1.912   9.948  0.4595 -0.0100 -0.9681
  175SOPE   H5S19878   4.003   1.770  10.046  1.3227  0.2410 -0.9771
  175SOPE   C2619879   3.847   1.832   9.912 -0.2717  0.3489 -0.3058
  175SOPE   H6R19880   3.773   1.772   9.970  1.3744 -1.2669  0.2202
  175SOPE   H6S19881   3.790   1.921   9.878 -3.2188 -1.1151  0.4059
  175SOPE   C2719882   3.880   1.745   9.789  0.1644 -0.3809 -0.9417
  175SOPE   H7R19883   3.980   1.773   9.748 -0.0141  0.6466 -0.7104
  175SOPE   H7S19884   3.884   1.639   9.822  1.0023 -0.1477 -0.2447
  175SOPE   C2819885   3.781   1.754   9.672  0.0253  0.4618  0.2743
  175SOPE   H8R19886   3.779   1.657   9.618  3.6630 -0.1556  0.9810
  175SOPE   H8S19887   3.686   1.748   9.729 -0.3528  0.2020 -0.3623
  175SOPE   C2919888   3.778   1.867   9.573 -0.0980  0.1496 -0.4033
  175SOPE   H9119889   3.743   1.960   9.619 -0.9686 -0.3904  0.0636
  175SOPE  C21019890   3.818   1.872   9.446  0.6594 -0.3525  0.3355
  175SOPE  H10119891   3.799   1.962   9.386  0.1257  0.0682  1.1165
  175SOPE  C21119892   3.876   1.759   9.365  0.9497  0.3462  0.1492
  175SOPE  H11R19893   3.864   1.669   9.428  2.0503  0.1832  0.1397
  175SOPE  H11S19894   3.983   1.783   9.350  1.0778  1.7495  2.7867
  175SOPE  C21219895   3.804   1.733   9.235 -0.1164  0.1009  0.5380
  175SOPE  H12R19896   3.694   1.735   9.250 -0.0886 -1.5922  1.1434
  175SOPE  H12S19897   3.824   1.630   9.198  0.0506 -0.3439  1.8226
  175SOPE  C21319898   3.839   1.829   9.122  0.2119  0.4974 -0.1803
  175SOPE  H13R19899   3.830   1.931   9.166  2.7758 -0.0050  1.7155
  175SOPE  H13S19900   3.765   1.825   9.039  1.1828 -0.9815 -1.0081
  175SOPE  C21419901   3.991   1.816   9.082  1.1018  0.5609 -0.3695
  175SOPE  H14R19902   4.012   1.712   9.051 -0.5371 -0.0560  0.4547
  175SOPE  H14S19903   4.055   1.848   9.168  1.5702 -1.2730  0.0079
  175SOPE  C21519904   4.025   1.890   8.951 -0.2926 -0.0157 -0.0889
  175SOPE  H15R19905   3.958   1.865   8.865 -1.0830  0.3052  0.4237
  175SOPE  H15S19906   4.127   1.862   8.915  0.7950  2.4726  0.8726
  175SOPE  C21619907   4.025   2.040   8.978 -0.2697  0.0502  0.2675
  175SOPE  H16R19908   4.068   2.038   9.080 -0.4416 -3.3978  0.4020
  175SOPE  H16S19909   3.921   2.079   8.970  0.0500  0.7530 -0.8177
  175SOPE  C21719910   4.106   2.123   8.874  0.3495  0.7140  0.0801
  175SOPE  H17R19911   4.054   2.097   8.780 -1.4009 -0.5319  1.3419
  175SOPE  H17S19912   4.210   2.084   8.876  0.4042  0.8391 -0.2685
  175SOPE  C21819913   4.089   2.272   8.890 -0.2467  0.1009  0.0100
  175SOPE  H18R19914   3.987   2.292   8.930 -0.2473  0.5845 -0.2276
  175SOPE  H18S19915   4.092   2.325   8.792 -1.5341 -0.4265 -0.3352
  175SOPE  H18T19916   4.159   2.318   8.963 -0.5150  2.3832 -1.0917
  175SOPE   C3319917   4.426   1.858   9.964 -0.9258 -0.7555 -0.1293
  175SOPE   H3X19918   4.317   1.839   9.965 -1.3887  1.2488 -1.9915
  175SOPE   H3Y19919   4.476   1.800   9.884  0.8493 -0.4970  0.7515
  175SOPE   C3419920   4.455   2.004   9.924 -0.4027 -0.7461  0.1773
  175SOPE   H4X19921   4.552   2.040   9.965 -0.3648  1.2924 -1.5109
  175SOPE   H4Y19922   4.374   2.067   9.967  0.0952 -0.4294  0.6566
  175SOPE   C3519923   4.452   2.032   9.771 -0.0634 -0.2765 -0.4436
  175SOPE   H5X19924   4.514   1.957   9.718  1.9739  0.1612  1.1908
  175SOPE   H5Y19925   4.506   2.129   9.756  1.5103 -1.0435 -0.0017
  175SOPE   C3619926   4.312   2.062   9.720 -0.0047 -0.1314  0.7294
  175SOPE   H6X19927   4.254   2.149   9.757 -1.7499 -0.8453 -0.1822
  175SOPE   H6Y19928   4.257   1.975   9.761  0.2435 -0.8126 -0.3370
  175SOPE   C3719929   4.305   2.046   9.569  0.3511  0.1417 -0.2216
  175SOPE   H7X19930   4.201   2.071   9.538 -0.3237 -0.9443  1.0227
  175SOPE   H7Y19931   4.306   1.938   9.545  0.9151 -0.0394  0.5746
  175SOPE   C3819932   4.405   2.127   9.491 -0.0137  0.3491  0.0072
  175SOPE   H8X19933   4.512   2.099   9.495 -0.1704 -0.5682 -1.4674
  175SOPE   H8Y19934   4.394   2.229   9.533  2.6028  0.7698 -0.2156
  175SOPE   C3919935   4.356   2.123   9.345 -0.2565 -0.6427  0.1321
  175SOPE   H9X19936   4.263   2.172   9.309 -0.8199 -2.1095 -0.4741
  175SOPE   H9Y19937   4.356   2.021   9.302 -0.0648 -0.3080 -0.6960
  175SOPE  C31019938   4.462   2.203   9.268 -0.6915 -0.1689  0.4012
  175SOPE  H10X19939   4.558   2.159   9.302 -0.8256  0.1619  1.2327
  175SOPE  H10Y19940   4.474   2.308   9.301  1.5790 -0.7627  1.7225
  175SOPE  C31119941   4.455   2.211   9.114  0.4627 -0.2682 -0.3867
  175SOPE  H11X19942   4.365   2.271   9.088  0.1231  0.4404  2.1672
  175SOPE  H11Y19943   4.446   2.110   9.070 -0.5760  0.5825 -2.2195
  175SOPE  C31219944   4.579   2.292   9.066 -1.0845  0.3623  0.7372
  175SOPE  H12X19945   4.667   2.232   9.098  0.0202  2.0305  0.9540
  175SOPE  H12Y19946   4.584   2.386   9.124 -1.8818  0.1959  1.0819
  175SOPE  C31319947   4.604   2.319   8.918  0.3351  0.6265  0.5228
  175SOPE  H13X19948   4.612   2.225   8.860 -1.5915 -1.1056  2.8545
  175SOPE  H13Y19949   4.704   2.367   8.910 -0.5137  2.7114  1.4751
  175SOPE  C31419950   4.494   2.414   8.854 -0.0145  0.2442 -0.3594
  175SOPE  H14X19951   4.509   2.519   8.887 -1.0683  0.0220  0.9255
  175SOPE  H14Y19952   4.392   2.373   8.873 -0.5512  1.0025 -1.5056
  175SOPE  C31519953   4.494   2.427   8.699  0.3384  0.5103  0.1133
  175SOPE  H15X19954   4.576   2.497   8.671 -0.0775  1.1685  0.4959
  175SOPE  H15Y19955   4.397   2.472   8.671  0.2070 -0.5191 -1.1864
  175SOPE  C31619956   4.505   2.300   8.613  1.2837 -0.1099 -0.2578
  175SOPE  H16X19957   4.538   2.213   8.674 -1.3854 -0.6268  0.6173
  175SOPE  H16Y19958   4.572   2.312   8.526  0.0888  0.6813 -1.1040
  175SOPE  C31719959   4.365   2.269   8.559 -0.3762  0.2197 -0.2338
  175SOPE  H17X19960   4.336   2.348   8.487 -0.7647  2.5351  2.2919
  175SOPE  H17Y19961   4.299   2.266   8.649 -0.6063 -1.5898 -0.4227
  175SOPE  C31819962   4.356   2.130   8.496  0.0378 -0.4711 -0.5498
  175SOPE  H18X19963   4.253   2.099   8.470 -0.1665 -2.2852  2.0284
  175SOPE  H18Y19964   4.377   2.051   8.571 -0.8025  0.1166  0.3225
  175SOPE  H18Z19965   4.429   2.127   8.412  0.3527 -1.1291 -0.2614
  176SOPE     N19966   0.530   0.522  11.147 -0.7082 -0.5819  0.1904
  176SOPE   HN119967   0.522   0.420  11.166 -0.6529 -0.3658  1.5024
  176SOPE   HN219968   0.438   0.564  11.167 -0.1138  0.5577  0.5942
  176SOPE   HN319969   0.577   0.551  11.059 -2.2744 -1.4365 -0.9772
  176SOPE   C1219970   0.619   0.566  11.255 -0.2301  0.1300 -0.7840
  176SOPE  H12A19971   0.695   0.488  11.274 -0.9620 -0.6662 -1.0336
  176SOPE  H12B19972   0.557   0.585  11.346 -0.4794  0.0419 -0.9332
  176SOPE   C1119973   0.692   0.696  11.203 -0.3288  0.7141  0.1840
  176SOPE  H11A19974   0.757   0.744  11.279  1.6846  0.7540 -1.4602
  176SOPE  H11B19975   0.621   0.777  11.177 -3.1564 -0.9203  2.2066
  176SOPE     P19976   0.922   0.643  11.086  0.4446 -0.4256 -0.0201
  176SOPE   O1319977   0.959   0.500  11.095 -0.2329 -0.3837  0.1986
  176SOPE   O1419978   0.979   0.731  11.187  0.0047  0.5612 -0.0580
  176SOPE   O1219979   0.763   0.653  11.091 -0.5648  0.2871  0.0318
  176SOPE   O1119980   0.966   0.693  10.945 -0.4857  0.0942 -0.0713
  176SOPE    C119981   0.879   0.716  10.838 -0.2145 -0.3817  0.3062
  176SOPE    HA19982   0.937   0.772  10.761 -1.3602  1.7805  0.9316
  176SOPE    HB19983   0.808   0.800  10.857 -0.6350 -0.6297 -0.1308
  176SOPE    C219984   0.807   0.601  10.776  0.1523  1.1301 -0.2245
  176SOPE    HS19985   0.741   0.565  10.858  1.6647 -0.1320  0.4988
  176SOPE   O2119986   0.903   0.500  10.731 -0.3676 -0.3842 -0.0827
  176SOPE   C2119987   0.870   0.379  10.724  0.2636  0.4406 -0.2141
  176SOPE   O2219988   0.761   0.337  10.754  0.4198  0.2749  0.2409
  176SOPE   C2219989   0.985   0.287  10.686  0.7023  0.5605 -0.7280
  176SOPE   H2R19990   1.043   0.268  10.779 -0.7316 -2.6960 -0.3712
  176SOPE   H2S19991   1.038   0.336  10.602  2.1631 -0.3841 -0.3872
  176SOPE    C319992   0.722   0.645  10.659 -0.2926  0.0086  0.0100
  176SOPE    HX19993   0.792   0.689  10.585 -0.5452  0.3182 -0.0483
  176SOPE    HY19994   0.663   0.729  10.701  0.5637  1.2556 -1.1913
  176SOPE   O3119995   0.636   0.546  10.602  0.1117  0.3219 -0.3743
  176SOPE   C3119996   0.583   0.594  10.487 -0.1842 -0.0334 -0.9387
  176SOPE   O3219997   0.590   0.709  10.444  0.6016 -0.0417  0.0769
  176SOPE   C3219998   0.532   0.471  10.417 -0.4199  0.2868  0.0775
  176SOPE   H2X19999   0.441   0.441  10.472  0.3894  0.6914  1.6859
  176SOPE   H2Y20000   0.603   0.385  10.413  0.6582  1.1768 -2.6657
  176SOPE   C2320001   0.939   0.143  10.633 -0.1267  0.3626 -0.9312
  176SOPE   H3R20002   0.871   0.104  10.711 -0.0503 -0.2924 -1.1879
  176SOPE   H3S20003   1.034   0.086  10.625 -0.9424 -1.2827  0.4131
  176SOPE   C2420004   0.852   0.151  10.505  0.7298 -0.2641  0.7578
  176SOPE   H4R20005   0.809   0.049  10.497  2.3222 -0.9658  0.7937
  176SOPE   H4S20006   0.765   0.219  10.514 -0.6360 -2.1829  3.3687
  176SOPE   C2520007   0.940   0.168  10.385 -0.5789 -0.3953 -0.4193
  176SOPE   H5R20008   0.988   0.268  10.398  0.7696 -0.7436 -2.3586
  176SOPE   H5S20009   1.025   0.097  10.388  2.3225  2.8363  1.9000
  176SOPE   C2620010   0.863   0.165  10.251 -0.0438  0.0384 -0.4404
  176SOPE   H6R20011   0.818   0.064  10.238 -1.0816  0.0808  2.0952
  176SOPE   H6S20012   0.783   0.241  10.254 -1.0432 -0.7193  5.8769
  176SOPE   C2720013   0.957   0.202  10.137 -0.1544  0.4865 -0.3309
  176SOPE   H7R20014   1.002   0.302  10.155 -0.3038  1.1522 -3.1532
  176SOPE   H7S20015   1.040   0.128  10.138  0.5862  1.2945  1.3120
  176SOPE   C2820016   0.889   0.212   9.999  0.8987  0.2879 -0.7640
  176SOPE   H8R20017   0.831   0.117   9.992  0.2603  0.4651  1.3069
  176SOPE   H8S20018   0.821   0.300  10.001  1.0238  0.3926 -1.1431
  176SOPE   C2920019   0.988   0.221   9.884 -0.0440  0.1853  0.7322
  176SOPE   H9120020   1.044   0.315   9.891 -1.5051  1.0725  1.0959
  176SOPE  C21020021   0.994   0.140   9.777  0.5483  0.5107 -0.0931
  176SOPE  H10120022   1.072   0.156   9.701  0.9138 -1.0176 -0.0688
  176SOPE  C21120023   0.899   0.026   9.745 -0.0599 -0.0834 -0.0472
  176SOPE  H11R20024   0.875  -0.021   9.843  1.5538  1.3304  1.0804
  176SOPE  H11S20025   0.953  -0.049   9.683 -0.7204 -1.3483  0.8698
  176SOPE  C21220026   0.770   0.076   9.686  0.7291  0.4001  0.2532
  176SOPE  H12R20027   0.718   0.129   9.769  0.8977 -0.1160  0.6967
  176SOPE  H12S20028   0.703  -0.003   9.646  1.1807  0.8377 -1.4316
  176SOPE  C21320029   0.778   0.179   9.570  0.0745  0.0386 -0.0867
  176SOPE  H13R20030   0.838   0.267   9.602 -0.0349  0.1092 -0.0780
  176SOPE  H13S20031   0.681   0.230   9.553  0.7833  1.2981 -0.4945
  176SOPE  C21420032   0.848   0.114   9.448  0.2727  0.1351 -0.7431
  176SOPE  H14R20033   0.798   0.016   9.435  1.5529 -0.8054  0.9853
  176SOPE  H14S20034   0.955   0.087   9.459  0.1630 -0.7157 -1.6226
  176SOPE  C21520035   0.839   0.189   9.311 -0.6638  0.2593 -0.0121
  176SOPE  H15R20036   0.917   0.268   9.306  0.5409 -0.8758  0.3847
  176SOPE  H15S20037   0.730   0.210   9.303 -0.8761 -1.1510 -1.3013
  176SOPE  C21620038   0.879   0.086   9.207  0.2710  0.6357  1.0863
  176SOPE  H16R20039   0.818  -0.006   9.223  0.3268  0.4992  0.5204
  176SOPE  H16S20040   0.988   0.064   9.216  0.1894  0.0828  0.7643
  176SOPE  C21720041   0.864   0.130   9.064 -0.3000  0.4302  0.0767
  176SOPE  H17R20042   0.920   0.224   9.045 -0.2404  1.0151  2.6891
  176SOPE  H17S20043   0.761   0.164   9.040 -0.8158 -2.4183 -2.3215
  176SOPE  C21820044   0.902   0.015   8.966  0.1725 -0.2327  0.0342
  176SOPE  H18R20045   0.885   0.051   8.863 -1.2809 -1.0180 -0.0188
  176SOPE  H18S20046   0.841  -0.072   8.998  0.8660 -0.3895  1.0043
  176SOPE  H18T20047   1.009  -0.014   8.979 -0.2202 -2.7115 -1.5816
  176SOPE   C3320048   0.502   0.505  10.270 -0.0494 -0.3738  0.3672
  176SOPE   H3X20049   0.598   0.514  10.215  0.4576  2.2537  1.5397
  176SOPE   H3Y20050   0.448   0.601  10.259  1.3404  0.7017  2.3747
  176SOPE   C3420051   0.428   0.379  10.205 -0.2181  0.4341  0.4012
  176SOPE   H4X20052   0.324   0.372  10.243 -0.0022 -1.4416  0.7382
  176SOPE   H4Y20053   0.480   0.285  10.236  0.7757  0.1934 -1.7773
  176SOPE   C3520054   0.414   0.372  10.049 -0.5590  0.1362 -0.1617
  176SOPE   H5X20055   0.346   0.288  10.027  0.2411 -0.1495 -1.6703
  176SOPE   H5Y20056   0.514   0.350  10.005 -0.4277  0.4045 -0.0031
  176SOPE   C3620057   0.355   0.497   9.991  0.0651  0.3106  0.2092
  176SOPE   H6X20058   0.413   0.586  10.023  0.2072  0.1907  0.2884
  176SOPE   H6Y20059   0.256   0.521  10.035  0.2155  0.2880  0.5625
  176SOPE   C3720060   0.351   0.489   9.837  0.1405  0.2816 -0.5800
  176SOPE   H7X20061   0.446   0.447   9.797 -0.8229 -1.3066 -1.2656
  176SOPE   H7Y20062   0.333   0.586   9.786 -0.4302 -0.4963 -1.9077
  176SOPE   C3820063   0.241   0.406   9.772 -0.8439  0.6115 -0.0679
  176SOPE   H8X20064   0.152   0.400   9.838  0.4123  0.5986  1.7217
  176SOPE   H8Y20065   0.274   0.300   9.781 -1.7097  0.0353 -2.8088
  176SOPE   C3920066   0.208   0.444   9.628 -0.2596 -0.2934  0.3431
  176SOPE   H9X20067   0.173   0.549   9.639 -0.3608 -0.4774  2.0285
  176SOPE   H9Y20068   0.128   0.390   9.573  0.4816  0.3878 -1.4880
  176SOPE  C31020069   0.334   0.444   9.542  1.2052 -0.2130  0.0460
  176SOPE  H10X20070   0.395   0.356   9.572  0.7764 -0.0979  1.3139
  176SOPE  H10Y20071   0.386   0.537   9.573 -0.8667  0.7228  0.9057
  176SOPE  C31120072   0.312   0.445   9.392  0.1636  0.4774 -0.3950
  176SOPE  H11X20073   0.271   0.345   9.367  2.1656 -0.5656  0.2832
  176SOPE  H11Y20074   0.414   0.452   9.348  0.5013  1.2787  0.4769
  176SOPE  C31220075   0.220   0.561   9.347 -0.7039 -0.5015  0.4308
  176SOPE  H12X20076   0.252   0.659   9.387 -2.5560  0.0198  0.6957
  176SOPE  H12Y20077   0.119   0.552   9.393 -1.8275  1.6861 -1.4250
  176SOPE  C31320078   0.229   0.576   9.194 -0.4714  0.3378 -0.1180
  176SOPE  H13X20079   0.213   0.474   9.153 -0.1377 -0.6043  1.9866
  176SOPE  H13Y20080   0.323   0.615   9.148 -0.3957 -0.3933 -0.6013
  176SOPE  C31420081   0.117   0.654   9.124 -0.5745  0.3393 -0.0834
  176SOPE  H14X20082   0.125   0.762   9.149  0.3312  0.2649 -0.0430
  176SOPE  H14Y20083   0.016   0.622   9.157  0.6182 -1.0550  2.4754
  176SOPE  C31520084   0.142   0.650   8.971 -0.3373  0.5436 -0.8912
  176SOPE  H15X20085   0.103   0.556   8.927 -2.4857  1.1764 -0.4709
  176SOPE  H15Y20086   0.251   0.641   8.950 -0.4084 -1.3760 -0.6542
  176SOPE  C31620087   0.094   0.767   8.887 -0.0698  0.4269  0.0567
  176SOPE  H16X20088   0.138   0.859   8.931  1.8375 -0.3494 -0.1198
  176SOPE  H16Y20089  -0.016   0.776   8.897 -0.1323  0.3459 -0.5508
  176SOPE  C31720090   0.128   0.753   8.737  0.5780 -0.0614 -0.4849
  176SOPE  H17X20091   0.072   0.836   8.689 -0.2150 -0.0974  0.3359
  176SOPE  H17Y20092   0.086   0.663   8.688 -0.9179  1.1512 -1.5537
  176SOPE  C31820093   0.275   0.783   8.692 -0.2869 -0.1400  0.1159
  176SOPE  H18X20094   0.357   0.719   8.731  0.6756  0.0311 -1.5350
  176SOPE  H18Y20095   0.311   0.886   8.715  0.3466 -0.1564 -0.7464
  176SOPE  H18Z20096   0.279   0.779   8.581 -0.0883 -1.0855  0.1488
  177SOPE     N20097   0.096   6.064  10.688  0.1212 -0.5135 -1.0232
  177SOPE   HN120098   0.095   6.094  10.589  0.3361  0.0132 -0.8706
  177SOPE   HN220099  -0.004   6.055  10.716  0.7303 -2.0840  0.8790
  177SOPE   HN320100   0.141   6.134  10.752 -3.4580 -0.4370  1.7076
  177SOPE   C1220101   0.161   5.931  10.705 -0.3410 -0.4096 -0.1807
  177SOPE  H12A20102   0.253   5.917  10.644 -1.1709  2.1566 -2.2136
  177SOPE  H12B20103   0.076   5.860  10.699 -1.7909  0.9177  2.6244
  177SOPE   C1120104   0.205   5.921  10.856 -0.0390 -0.4091 -0.6101
  177SOPE  H11A20105   0.291   5.988  10.875 -0.4143 -0.2894  0.7830
  177SOPE  H11B20106   0.241   5.820  10.886 -2.0781 -0.5014  1.8320
  177SOPE     P20107   0.041   5.842  11.039 -0.1166  0.1196  0.3259
  177SOPE   O1320108  -0.102   5.871  11.065 -0.5198  0.3869 -0.1352
  177SOPE   O1420109   0.127   5.824  11.158  0.4401 -0.5574 -0.3173
  177SOPE   O1220110   0.100   5.961  10.949  0.2391  0.2612  0.3830
  177SOPE   O1120111   0.054   5.705  10.957 -0.1911  0.1364 -0.4744
  177SOPE    C120112  -0.065   5.656  10.893 -0.2321 -0.2767 -0.0591
  177SOPE    HA20113  -0.116   5.740  10.840  1.9098 -0.0410 -1.9449
  177SOPE    HB20114  -0.133   5.612  10.968  0.5255  0.4419  1.0684
  177SOPE    C220115  -0.036   5.549  10.784 -0.3445 -0.7171 -0.3294
  177SOPE    HS20116  -0.005   5.453  10.831 -0.8486 -1.0205 -0.6017
  177SOPE   O2120117   0.060   5.594  10.684  0.3932 -0.6213 -0.3846
  177SOPE   C2120118   0.170   5.523  10.668  0.1587 -0.1188 -0.1593
  177SOPE   O2220119   0.196   5.420  10.726  0.3962 -0.1077 -0.5308
  177SOPE   C2220120   0.259   5.579  10.550 -0.8071 -0.2785  0.4657
  177SOPE   H2R20121   0.349   5.516  10.534 -1.1017 -0.8657  1.0838
  177SOPE   H2S20122   0.292   5.681  10.577  1.4354 -0.0480 -2.5363
  177SOPE    C320123  -0.167   5.502  10.713  0.0351 -0.6152 -0.4754
  177SOPE    HX20124  -0.221   5.594  10.680  1.9436  1.3778  1.6355
  177SOPE    HY20125  -0.234   5.462  10.791 -0.0136  1.0325  0.3754
  177SOPE   O3120126  -0.134   5.418  10.601  0.0722  0.1023  0.0453
  177SOPE   C3120127  -0.137   5.283  10.615  0.6927 -0.4199 -0.8780
  177SOPE   O3220128  -0.171   5.225  10.715  0.1955  0.0616 -0.0277
  177SOPE   C3220129  -0.091   5.222  10.483  0.5740  0.5213  0.0635
  177SOPE   H2X20130   0.019   5.221  10.496  0.5267  1.6030  0.6343
  177SOPE   H2Y20131  -0.115   5.282  10.393 -2.0819 -0.3982  0.0615
  177SOPE   C2320132   0.182   5.601  10.418  1.1133 -0.4341  0.6415
  177SOPE   H3R20133   0.240   5.674  10.357 -0.3360 -0.5787 -0.9709
  177SOPE   H3S20134   0.094   5.658  10.453  1.6874  1.3899 -0.7123
  177SOPE   C2420135   0.157   5.464  10.342  0.1606  0.2201 -0.4143
  177SOPE   H4R20136   0.257   5.439  10.301  0.2901  0.4280 -0.2253
  177SOPE   H4S20137   0.109   5.399  10.418  2.9540 -0.2988  1.0201
  177SOPE   C2520138   0.066   5.490  10.222  0.1568 -0.5135  0.9579
  177SOPE   H5R20139  -0.036   5.525  10.247  0.7167  1.2216  0.9622
  177SOPE   H5S20140   0.112   5.578  10.171 -2.4247 -1.0771 -2.7208
  177SOPE   C2620141   0.050   5.368  10.130  0.5142  0.2689  0.0286
  177SOPE   H6R20142   0.141   5.305  10.131  0.6112  0.4107  0.0826
  177SOPE   H6S20143  -0.033   5.299  10.155  0.8581 -0.2092 -0.1250
  177SOPE   C2720144   0.023   5.420   9.982 -0.2692 -0.0581 -0.3602
  177SOPE   H7R20145  -0.044   5.508   9.988  0.1614  0.2336  0.3516
  177SOPE   H7S20146   0.116   5.459   9.934  0.5744 -1.3795  0.1400
  177SOPE   C2820147  -0.032   5.314   9.886  0.8503 -0.1081  0.0964
  177SOPE   H8R20148   0.048   5.238   9.883 -1.9595 -3.2765 -0.8348
  177SOPE   H8S20149  -0.128   5.264   9.913  2.3024 -1.8418  2.4435
  177SOPE   C2920150  -0.047   5.380   9.745  0.0633  0.0131  0.1210
  177SOPE   H9120151  -0.099   5.477   9.739  1.9051  0.9882 -1.2019
  177SOPE  C21020152   0.001   5.330   9.631 -0.2468  0.3000 -0.1732
  177SOPE  H10120153   0.007   5.392   9.539 -2.0499 -0.2881 -0.7236
  177SOPE  C21120154   0.066   5.194   9.601  0.3361 -0.8834 -0.2531
  177SOPE  H11R20155   0.031   5.132   9.686 -2.4625  1.1544  0.2498
  177SOPE  H11S20156   0.177   5.197   9.601  0.3416 -0.3128  0.7507
  177SOPE  C21220157   0.024   5.120   9.472  0.6219  0.7635 -0.5615
  177SOPE  H12R20158  -0.085   5.135   9.458  0.9267  1.1658 -2.8902
  177SOPE  H12S20159   0.044   5.011   9.486 -0.8706  0.4770 -0.5371
  177SOPE  C21320160   0.108   5.177   9.354  0.2979  1.0515 -0.1844
  177SOPE  H13R20161   0.217   5.187   9.373  0.2821  2.4123 -0.7126
  177SOPE  H13S20162   0.070   5.279   9.334 -1.8218  0.4142  0.3452
  177SOPE  C21420163   0.098   5.110   9.218 -0.0260  0.5938 -0.4715
  177SOPE  H14R20164   0.164   5.176   9.158 -0.5199  1.4448 -0.0945
  177SOPE  H14S20165  -0.002   5.118   9.170  0.0205 -1.1171 -0.9302
  177SOPE  C21520166   0.137   4.963   9.215 -0.1842 -0.2224 -1.3185
  177SOPE  H15R20167   0.063   4.900   9.269 -1.6856  1.2106 -1.6278
  177SOPE  H15S20168   0.231   4.948   9.272 -0.7836 -2.5752 -0.8429
  177SOPE  C21620169   0.152   4.905   9.075  0.2301  0.2551 -0.3203
  177SOPE  H16R20170   0.202   4.808   9.095 -0.4696  0.3923  2.4117
  177SOPE  H16S20171   0.227   4.957   9.011  1.0035  2.1340  1.9625
  177SOPE  C21720172   0.016   4.881   9.011 -0.4519 -0.5610  0.2298
  177SOPE  H17R20173  -0.021   4.982   8.983  1.1934 -0.6104 -2.5095
  177SOPE  H17S20174  -0.050   4.841   9.091  0.6960  1.5994  2.3986
  177SOPE  C21820175   0.015   4.809   8.882  0.4478 -0.0182 -0.2598
  177SOPE  H18R20176   0.081   4.857   8.807  1.3737  0.2892  0.7308
  177SOPE  H18S20177  -0.087   4.782   8.845  0.1973  0.5486  0.0115
  177SOPE  H18T20178   0.065   4.712   8.904 -2.2194 -1.5311 -0.4480
  177SOPE   C3320179  -0.134   5.072  10.457 -0.4843 -0.5346  0.0495
  177SOPE   H3X20180  -0.172   5.032  10.554  0.2530  2.5362  1.7636
  177SOPE   H3Y20181  -0.036   5.033  10.422  0.3781  0.1636  1.5847
  177SOPE   C3420182  -0.241   5.053  10.346 -0.5118  0.0298 -0.0610
  177SOPE   H4X20183  -0.260   4.944  10.335  2.0368 -0.3749 -1.1188
  177SOPE   H4Y20184  -0.202   5.078  10.245  1.9278 -1.4068  0.4396
  177SOPE   C3520185  -0.367   5.135  10.350  0.6080  0.1229  0.3892
  177SOPE   H5X20186  -0.345   5.244  10.354 -1.3854  0.6686 -1.5483
  177SOPE   H5Y20187  -0.423   5.109  10.443  2.0409  0.9702  1.5354
  177SOPE   C3620188  -0.458   5.121  10.226  0.5058 -0.5302  0.2477
  177SOPE   H6X20189  -0.561   5.160  10.239  0.3230 -1.3493  1.4000
  177SOPE   H6Y20190  -0.472   5.012  10.207 -0.4777 -0.4158  0.2676
  177SOPE   C3720191  -0.393   5.180  10.097  1.1789 -0.1243 -0.1535
  177SOPE   H7X20192  -0.285   5.156  10.093  1.2787  0.0270  1.0960
  177SOPE   H7Y20193  -0.393   5.290  10.114  0.6095 -0.4517  2.4571
  177SOPE   C3820194  -0.466   5.125   9.974  0.5373  0.3864 -0.5654
  177SOPE   H8X20195  -0.572   5.156   9.979 -0.0058 -1.3866 -0.2409
  177SOPE   H8Y20196  -0.469   5.014   9.971 -1.8106  0.3371  0.8762
  177SOPE   C3920197  -0.402   5.182   9.852 -0.1472 -0.2100  0.3079
  177SOPE   H9X20198  -0.305   5.127   9.849  0.3992  0.7625 -0.4757
  177SOPE   H9Y20199  -0.399   5.293   9.857  0.1463 -0.2557  1.6978
  177SOPE  C31020200  -0.475   5.147   9.717 -0.6584 -0.5748 -0.4733
  177SOPE  H10X20201  -0.567   5.210   9.715 -1.0986 -1.2206 -0.9100
  177SOPE  H10Y20202  -0.497   5.038   9.720 -0.2181 -0.6384  1.2697
  177SOPE  C31120203  -0.391   5.170   9.589  0.2889  0.4944  1.4158
  177SOPE  H11X20204  -0.286   5.133   9.596  0.0019 -0.5348  0.5194
  177SOPE  H11Y20205  -0.384   5.278   9.567 -0.0266  0.4449  1.0834
  177SOPE  C31220206  -0.458   5.103   9.468 -0.0093 -0.3265  0.1748
  177SOPE  H12X20207  -0.565   5.132   9.468  0.6617  2.4476  0.4699
  177SOPE  H12Y20208  -0.457   4.991   9.467 -0.0482 -0.4343  3.1232
  177SOPE  C31320209  -0.402   5.156   9.331  0.5249 -0.5656 -0.1678
  177SOPE  H13X20210  -0.295   5.125   9.322  1.0684  1.4208 -1.4755
  177SOPE  H13Y20211  -0.408   5.267   9.325 -1.4544 -0.6557 -0.4546
  177SOPE  C31420212  -0.475   5.106   9.208  0.3660 -0.5866  0.0766
  177SOPE  H14X20213  -0.579   5.146   9.206 -0.1370 -1.8436 -0.7688
  177SOPE  H14Y20214  -0.483   4.995   9.209 -1.5197 -0.4918  0.3860
  177SOPE  C31520215  -0.433   5.159   9.070 -0.4158 -0.3235  0.4493
  177SOPE  H15X20216  -0.454   5.268   9.061  0.8152  0.0253  1.4568
  177SOPE  H15Y20217  -0.493   5.111   8.990  1.2328  0.6612 -1.5018
  177SOPE  C31620218  -0.284   5.127   9.049  0.2360  0.1757 -0.2471
  177SOPE  H16X20219  -0.272   5.016   9.051 -1.0457  0.0351  1.1571
  177SOPE  H16Y20220  -0.234   5.182   9.131  1.9249 -1.0693 -0.3831
  177SOPE  C31720221  -0.232   5.190   8.922  0.3259  0.6245  0.1961
  177SOPE  H17X20222  -0.130   5.148   8.911 -0.3236 -0.6668 -1.1345
  177SOPE  H17Y20223  -0.242   5.301   8.928  3.2057  1.0692 -1.5542
  177SOPE  C31820224  -0.302   5.148   8.792 -0.2467 -0.6954 -0.5563
  177SOPE  H18X20225  -0.406   5.184   8.804 -0.3170 -1.1459  0.2978
  177SOPE  H18Y20226  -0.289   5.038   8.786  1.1925 -0.6905  1.3740
  177SOPE  H18Z20227  -0.268   5.175   8.690 -0.2919  0.8411 -0.1961
  178SOPE     N20228   5.848   5.695  10.880 -0.7582  0.2775 -0.9756
  178SOPE   HN120229   5.882   5.597  10.885  0.4084  0.5984  4.5176
  178SOPE   HN220230   5.882   5.729  10.788  0.4115  1.8261 -0.0372
  178SOPE   HN320231   5.904   5.747  10.952 -0.4238 -2.9648  1.3141
  178SOPE   C1220232   5.704   5.703  10.901  0.5403 -0.4639 -0.7334
  178SOPE  H12A20233   5.669   5.637  10.982 -1.8303 -0.5493 -1.7432
  178SOPE  H12B20234   5.662   5.666  10.805  0.0451  0.2689 -0.8070
  178SOPE   C1120235   5.648   5.848  10.920  0.3130  0.5731  0.6765
  178SOPE  H11A20236   5.698   5.926  10.858 -0.4477  0.2701 -0.3336
  178SOPE  H11B20237   5.685   5.886  11.018 -1.1282  0.4437  1.2995
  178SOPE     P20238   5.429   5.858  10.767 -0.0231  0.0177  0.0608
  178SOPE   O1320239   5.435   5.996  10.730 -0.2960 -0.0762 -0.2653
  178SOPE   O1420240   5.294   5.813  10.787 -0.4202  0.1129  0.3271
  178SOPE   O1220241   5.504   5.838  10.911  0.3551  0.3825  0.6402
  178SOPE   O1120242   5.509   5.772  10.661  0.7115  0.1983  0.2985
  178SOPE    C120243   5.601   5.828  10.571  0.2744  0.1787 -0.6397
  178SOPE    HA20244   5.676   5.754  10.535  0.0899  0.1815 -1.0333
  178SOPE    HB20245   5.658   5.915  10.609  2.3792 -0.0586 -2.9787
  178SOPE    C220246   5.525   5.888  10.442  0.1979  0.0944 -0.6707
  178SOPE    HS20247   5.484   5.988  10.466 -0.8596  0.1288 -2.4311
  178SOPE   O2120248   5.426   5.798  10.390 -0.3673  0.3970  0.3417
  178SOPE   C2120249   5.304   5.835  10.356 -0.8311  0.1636  1.1764
  178SOPE   O2220250   5.262   5.948  10.354 -0.5211 -0.1180  0.2867
  178SOPE   C2220251   5.230   5.721  10.283 -0.1535  0.7679 -0.3174
  178SOPE   H2R20252   5.187   5.660  10.366  1.6143  0.7180  0.5906
  178SOPE   H2S20253   5.303   5.664  10.221  1.0739  1.9120  0.0378
  178SOPE    C320254   5.628   5.909  10.338  0.1385 -0.0566 -0.4322
  178SOPE    HX20255   5.702   5.826  10.330  0.1066 -0.3112  1.3849
  178SOPE    HY20256   5.701   5.988  10.368 -0.4252  0.1721  0.3579
  178SOPE   O3120257   5.569   5.957  10.215 -0.1979  0.7395 -0.5925
  178SOPE   C3120258   5.544   5.866  10.125  0.3682  1.0201  0.2721
  178SOPE   O3220259   5.536   5.745  10.141 -0.2871  0.3785 -0.0397
  178SOPE   C3220260   5.530   5.935   9.989 -0.0405 -0.0528  0.3136
  178SOPE   H2X20261   5.598   6.022   9.978 -1.6301  1.4998  2.0986
  178SOPE   H2Y20262   5.426   5.974   9.988 -0.1129 -0.2235 -0.7415
  178SOPE   C2320263   5.113   5.771  10.189 -0.4149  0.0161 -0.2898
  178SOPE   H3R20264   5.053   5.843  10.249 -1.0341 -0.3567 -0.4535
  178SOPE   H3S20265   5.032   5.699  10.164 -1.9836  0.9314  1.8512
  178SOPE   C2420266   5.154   5.839  10.058 -0.0258 -0.1141 -0.0439
  178SOPE   H4R20267   5.218   5.927  10.081 -0.3466 -0.6387  3.2759
  178SOPE   H4S20268   5.200   5.761   9.994 -2.0338 -0.3611 -1.2774
  178SOPE   C2520269   5.036   5.895   9.974  0.4687  0.3788 -0.2082
  178SOPE   H5R20270   4.985   5.801   9.944  0.7611  0.1672 -0.0495
  178SOPE   H5S20271   4.967   5.953  10.039 -1.6005  0.3870 -2.2650
  178SOPE   C2620272   5.071   5.987   9.855  0.8075 -0.1567 -0.9986
  178SOPE   H6R20273   4.980   6.029   9.806  0.6614  1.6589  0.7150
  178SOPE   H6S20274   5.123   6.069   9.909  1.8025 -2.1157  1.1991
  178SOPE   C2720275   5.148   5.920   9.743 -0.1946  0.2820 -0.3469
  178SOPE   H7R20276   5.239   5.875   9.788  1.8835  1.0332 -3.4931
  178SOPE   H7S20277   5.095   5.834   9.697 -1.6196  1.0267 -0.1562
  178SOPE   C2820278   5.183   6.033   9.644  0.3855 -0.0228  0.3732
  178SOPE   H8R20279   5.217   6.126   9.694  0.9147  0.0077 -0.0294
  178SOPE   H8S20280   5.280   5.999   9.600  0.3193  1.3368 -0.9072
  178SOPE   C2920281   5.074   6.061   9.540 -0.2077 -0.2661 -0.6217
  178SOPE   H9120282   4.972   6.074   9.579 -0.2330  1.2032 -1.1161
  178SOPE  C21020283   5.085   6.046   9.405  0.0204 -0.1823 -0.6255
  178SOPE  H10120284   5.004   6.060   9.333  0.1697 -0.2813 -0.8137
  178SOPE  C21120285   5.218   6.003   9.342 -0.2694 -0.7348  0.1074
  178SOPE  H11R20286   5.246   5.901   9.375 -1.7506 -0.0919  3.7774
  178SOPE  H11S20287   5.296   6.074   9.377 -1.4458  0.5100  0.2849
  178SOPE  C21220288   5.199   6.005   9.190 -0.2987 -0.3345 -0.2440
  178SOPE  H12R20289   5.095   5.973   9.169 -0.5034  0.2617 -0.1423
  178SOPE  H12S20290   5.264   5.924   9.150  0.6763 -0.0734  0.7554
  178SOPE  C21320291   5.238   6.144   9.138  0.1779  0.1624  0.7305
  178SOPE  H13R20292   5.348   6.151   9.123 -0.0282  0.2211 -0.9551
  178SOPE  H13S20293   5.205   6.224   9.207  0.0533  0.7726 -0.0218
  178SOPE  C21420294   5.157   6.179   9.021 -0.1159 -0.7473 -0.3415
  178SOPE  H14R20295   5.046   6.171   9.027 -0.0731 -0.8529  0.4008
  178SOPE  H14S20296   5.186   6.104   8.945  0.2921 -0.8537 -0.0824
  178SOPE  C21520297   5.185   6.322   8.970  0.3059 -0.2003  0.3985
  178SOPE  H15R20298   5.151   6.320   8.864  2.1467 -0.9121 -0.2069
  178SOPE  H15S20299   5.293   6.344   8.960 -0.2696  2.1782 -1.3662
  178SOPE  C21620300   5.123   6.436   9.053 -0.2639  0.2157 -0.3318
  178SOPE  H16R20301   5.147   6.414   9.159 -0.3724  1.2064 -0.0907
  178SOPE  H16S20302   5.012   6.436   9.042 -0.4849 -0.2796  1.5370
  178SOPE  C21720303   5.174   6.579   9.028  0.6517  0.1097 -0.3020
  178SOPE  H17R20304   5.152   6.613   8.924 -0.6787 -1.7157 -0.6718
  178SOPE  H17S20305   5.282   6.582   9.053  0.7214  1.6184 -0.6983
  178SOPE  C21820306   5.105   6.670   9.124  0.8018 -0.1890  0.5038
  178SOPE  H18R20307   5.146   6.773   9.131 -0.6713  0.3903  0.8973
  178SOPE  H18S20308   5.104   6.625   9.226  0.0557 -0.1917  0.4952
  178SOPE  H18T20309   4.999   6.676   9.094  1.0542 -0.2910 -0.4375
  178SOPE   C3320310   5.528   5.838   9.870 -0.2575  0.4682  0.0589
  178SOPE   H3X20311   5.432   5.783   9.875  0.4359 -0.8000  0.0440
  178SOPE   H3Y20312   5.609   5.762   9.880 -0.1688  0.6718  0.9682
  178SOPE   C3420313   5.546   5.909   9.738  0.0279 -0.1690 -0.2335
  178SOPE   H4X20314   5.629   5.981   9.758  0.3428 -0.9974  1.5920
  178SOPE   H4Y20315   5.456   5.971   9.722 -0.0794 -0.1042  0.5750
  178SOPE   C3520316   5.580   5.817   9.619  0.5466 -0.3139 -0.7064
  178SOPE   H5X20317   5.497   5.743   9.610 -0.4913  0.7485 -0.2235
  178SOPE   H5Y20318   5.672   5.762   9.649  0.2702 -0.0737  0.6781
  178SOPE   C3620319   5.581   5.906   9.493  0.2479  0.0105  0.2531
  178SOPE   H6X20320   5.667   5.976   9.507  0.2598  0.2190 -0.7732
  178SOPE   H6Y20321   5.487   5.960   9.472 -0.4629  0.5695  4.0943
  178SOPE   C3720322   5.608   5.813   9.375 -0.2262  0.0448  0.8691
  178SOPE   H7X20323   5.517   5.752   9.352  0.1272 -0.4563  0.7749
  178SOPE   H7Y20324   5.688   5.741   9.403 -1.9074 -1.1468  3.0247
  178SOPE   C3820325   5.650   5.894   9.251  0.4089 -0.1947 -0.5364
  178SOPE   H8X20326   5.560   5.959   9.246 -1.4164 -2.4342  0.7767
  178SOPE   H8Y20327   5.655   5.830   9.160 -0.7592  1.2648 -1.6720
  178SOPE   C3920328   5.790   5.956   9.257  0.2122 -0.2924 -0.4893
  178SOPE   H9X20329   5.865   5.874   9.260 -2.8380 -3.2926  0.9613
  178SOPE   H9Y20330   5.793   6.018   9.349 -2.4724  1.0691 -1.1952
  178SOPE  C31020331   5.806   6.037   9.125 -0.9666  0.2103 -0.3055
  178SOPE  H10X20332   5.716   6.102   9.121 -2.2082 -1.4467 -0.0172
  178SOPE  H10Y20333   5.805   5.966   9.039  1.9428  1.7545 -1.7891
  178SOPE  C31120334   5.941   6.119   9.122 -0.6763  0.0317 -0.4485
  178SOPE  H11X20335   6.031   6.053   9.125 -0.5196  0.2481 -0.3317
  178SOPE  H11Y20336   5.954   6.183   9.212  0.8794 -1.6297  0.5847
  178SOPE  C31220337   5.966   6.208   8.991  0.3643 -0.1060 -0.7686
  178SOPE  H12X20338   5.874   6.266   8.968  1.0145  1.8277  1.2038
  178SOPE  H12Y20339   5.966   6.123   8.919 -1.5339 -0.6877 -0.1376
  178SOPE  C31320340   6.098   6.277   8.975  0.5591  0.2266 -0.3589
  178SOPE  H13X20341   6.116   6.321   9.076  1.5003  0.0204 -0.4352
  178SOPE  H13Y20342   6.101   6.353   8.894  2.3278 -0.8464 -1.3622
  178SOPE  C31420343   6.211   6.180   8.944  0.1250  0.2088  0.0038
  178SOPE  H14X20344   6.213   6.101   9.022  2.1095  1.6313  1.4672
  178SOPE  H14Y20345   6.304   6.237   8.966  0.1248  0.0596  0.4018
  178SOPE  C31520346   6.221   6.129   8.799  1.0804  0.4065 -0.5223
  178SOPE  H15X20347   6.215   6.207   8.720 -0.1144  0.9145  0.0506
  178SOPE  H15Y20348   6.134   6.061   8.787  1.0598  0.4816 -0.8053
  178SOPE  C31620349   6.342   6.030   8.784  0.6065 -0.5374 -0.2368
  178SOPE  H16X20350   6.347   5.964   8.873  0.6317 -0.9530 -0.5442
  178SOPE  H16Y20351   6.436   6.087   8.772 -0.2229  0.4797 -2.2816
  178SOPE  C31720352   6.331   5.940   8.660  0.3588 -0.5142 -0.5942
  178SOPE  H17X20353   6.307   6.002   8.571 -1.1535 -2.0326 -1.2959
  178SOPE  H17Y20354   6.244   5.873   8.668  0.2354 -0.1288  2.8669
  178SOPE  C31820355   6.465   5.882   8.634 -0.2975  0.0958 -0.4594
  178SOPE  H18X20356   6.548   5.954   8.650 -0.0160 -0.3197 -0.0011
  178SOPE  H18Y20357   6.483   5.838   8.534  0.7277  0.0708 -0.2817
  178SOPE  H18Z20358   6.475   5.798   8.706  1.6474  0.3076 -0.4245
  179SOPE     N20359   2.322   5.862   6.270  0.2948  0.0973  0.4346
  179SOPE   HN120360   2.424   5.839   6.262  0.1435 -0.2369 -0.6285
  179SOPE   HN220361   2.273   5.809   6.196  1.5652  0.6001 -0.8078
  179SOPE   HN320362   2.304   5.964   6.266  1.2235  0.2660  0.2816
  179SOPE   C1220363   2.282   5.809   6.403 -0.0999 -0.0989  0.1722
  179SOPE  H12A20364   2.331   5.872   6.479 -0.0503  1.0347 -0.7806
  179SOPE  H12B20365   2.327   5.709   6.421  0.1560  0.2597  1.5669
  179SOPE   C1120366   2.127   5.822   6.427 -0.3328  0.2436 -0.7299
  179SOPE  H11A20367   2.083   5.748   6.357 -1.2213 -2.4254  2.3940
  179SOPE  H11B20368   2.081   5.922   6.410 -0.0899  0.6388  0.7275
  179SOPE     P20369   1.930   5.791   6.584 -0.1383 -0.3718 -0.6827
  179SOPE   O1320370   1.852   5.784   6.460  0.0807 -0.4506 -0.3695
  179SOPE   O1420371   1.907   5.915   6.666 -0.6439  1.4613  0.0934
  179SOPE   O1220372   2.092   5.768   6.558  0.0233 -0.3440  0.8968
  179SOPE   O1120373   1.886   5.666   6.666 -0.1983  0.4753  0.0525
  179SOPE    C120374   1.976   5.559   6.693 -0.0379  0.5320  0.3502
  179SOPE    HA20375   2.058   5.551   6.618  0.4300 -1.2776  1.0116
  179SOPE    HB20376   1.914   5.469   6.671  0.5030  0.0375  0.8078
  179SOPE    C220377   2.017   5.555   6.839  0.2433 -0.2581 -0.3311
  179SOPE    HS20378   2.061   5.453   6.850 -0.8517 -0.6406  0.7086
  179SOPE   O2120379   1.907   5.573   6.929 -0.0029 -0.3737  0.1510
  179SOPE   C2120380   1.820   5.476   6.938 -0.6736  0.3663  0.7918
  179SOPE   O2220381   1.836   5.363   6.897 -0.5479 -0.4439 -0.2465
  179SOPE   C2220382   1.706   5.533   7.020 -0.0789  0.0641 -0.0297
  179SOPE   H2R20383   1.630   5.548   6.940  0.7939  2.7067 -0.4694
  179SOPE   H2S20384   1.726   5.634   7.060 -1.3984  0.0559  0.6842
  179SOPE    C320385   2.115   5.670   6.875  0.0958 -0.2018  0.0978
  179SOPE    HX20386   2.051   5.761   6.865  0.4463  0.4902  3.1260
  179SOPE    HY20387   2.196   5.685   6.799 -0.4679  2.4015 -0.1086
  179SOPE   O3120388   2.169   5.648   7.010 -0.7665 -0.7767  0.2110
  179SOPE   C3120389   2.114   5.711   7.112  1.1578  0.5396  0.5137
  179SOPE   O3220390   2.014   5.785   7.110 -0.8443 -0.1711 -0.4893
  179SOPE   C3220391   2.182   5.661   7.238  0.1661  0.4399  0.0794
  179SOPE   H2X20392   2.290   5.683   7.223  0.0914 -0.0564 -1.4000
  179SOPE   H2Y20393   2.167   5.551   7.234 -1.4532  0.4636  2.8052
  179SOPE   C2320394   1.655   5.426   7.111  0.5746 -0.4644  0.2859
  179SOPE   H3R20395   1.646   5.322   7.074 -0.7056 -0.4917  0.6116
  179SOPE   H3S20396   1.550   5.448   7.141  1.2832  0.1225  2.4934
  179SOPE   C2420397   1.744   5.407   7.240 -0.1943  0.0239 -0.8430
  179SOPE   H4R20398   1.710   5.315   7.292 -1.0558  0.7660 -0.0566
  179SOPE   H4S20399   1.848   5.391   7.202  0.1000  0.4391 -0.2310
  179SOPE   C2520400   1.750   5.525   7.341  0.1709 -0.0817 -0.0757
  179SOPE   H5R20401   1.831   5.589   7.299  2.0288 -1.5686  1.0397
  179SOPE   H5S20402   1.655   5.579   7.359 -1.0046 -0.6285 -3.7785
  179SOPE   C2620403   1.805   5.480   7.482 -0.0542  0.8957  0.1502
  179SOPE   H6R20404   1.886   5.408   7.462 -0.7412 -0.0071  0.5538
  179SOPE   H6S20405   1.844   5.575   7.525 -0.6874  1.5824 -0.7404
  179SOPE   C2720406   1.700   5.410   7.573  0.2067  0.1738 -0.0843
  179SOPE   H7R20407   1.620   5.487   7.577 -0.0004 -0.0273 -0.3355
  179SOPE   H7S20408   1.658   5.318   7.528 -0.5722 -0.2458  1.4067
  179SOPE   C2820409   1.739   5.390   7.722  0.6957 -0.0328 -0.0787
  179SOPE   H8R20410   1.798   5.477   7.759  0.5501  0.8743 -1.8841
  179SOPE   H8S20411   1.646   5.380   7.781  0.8493 -0.8208  0.0375
  179SOPE   C2920412   1.828   5.271   7.717  0.2925 -0.2853 -0.2450
  179SOPE   H9120413   1.903   5.268   7.637 -2.3085 -0.4847 -2.8197
  179SOPE  C21020414   1.833   5.179   7.814 -0.5239  0.1682 -0.0212
  179SOPE  H10120415   1.905   5.097   7.806 -0.8916 -0.3349  1.4281
  179SOPE  C21120416   1.744   5.186   7.934 -0.3105  0.5628 -0.5233
  179SOPE  H11R20417   1.661   5.113   7.931 -1.8679  2.1943  0.8904
  179SOPE  H11S20418   1.697   5.285   7.951 -1.3019  0.4752 -2.4432
  179SOPE  C21220419   1.829   5.153   8.054 -0.2345 -0.1720 -0.0080
  179SOPE  H12R20420   1.889   5.245   8.068  1.8256 -1.4053 -0.3287
  179SOPE  H12S20421   1.902   5.070   8.047  1.1371  0.7422  2.2059
  179SOPE  C21320422   1.746   5.117   8.184  0.5130  0.0030  0.8007
  179SOPE  H13R20423   1.698   5.019   8.164 -0.5041  0.6794 -0.2152
  179SOPE  H13S20424   1.663   5.191   8.186  1.0834  0.8150 -1.6120
  179SOPE  C21420425   1.832   5.127   8.312  0.6629  0.2734  0.2984
  179SOPE  H14R20426   1.889   5.222   8.310  1.5144 -0.1823  1.4290
  179SOPE  H14S20427   1.902   5.040   8.316  0.2485 -0.0469  0.7368
  179SOPE  C21520428   1.739   5.113   8.432  0.0812  0.0843  0.1223
  179SOPE  H15R20429   1.796   5.118   8.527  0.0483  0.0800  0.1420
  179SOPE  H15S20430   1.668   5.029   8.422 -0.4097  0.5678 -0.6001
  179SOPE  C21620431   1.635   5.227   8.449 -0.1230  0.0255  0.5135
  179SOPE  H16R20432   1.556   5.206   8.374  1.6429 -2.0175 -0.9201
  179SOPE  H16S20433   1.673   5.330   8.430 -1.4152  0.3894 -0.1917
  179SOPE  C21720434   1.579   5.216   8.593  0.6370 -0.1929 -0.1384
  179SOPE  H17R20435   1.548   5.318   8.625  0.4727 -0.0642 -0.6916
  179SOPE  H17S20436   1.660   5.181   8.661 -0.0003  1.9996  1.9192
  179SOPE  C21820437   1.457   5.127   8.599  0.0320  0.4523  0.0897
  179SOPE  H18R20438   1.388   5.145   8.514  0.2357  1.4256  0.1080
  179SOPE  H18S20439   1.399   5.148   8.691  0.8788  0.9062  0.5425
  179SOPE  H18T20440   1.483   5.019   8.598 -2.5654 -0.2397 -0.7098
  179SOPE   C3320441   2.128   5.720   7.373  0.3423  0.1239 -0.0185
  179SOPE   H3X20442   2.044   5.657   7.409  0.0234  1.3767  1.5468
  179SOPE   H3Y20443   2.094   5.824   7.354  2.0892  0.6341 -0.5504
  179SOPE   C3420444   2.238   5.730   7.479 -0.2859 -0.1980  0.3986
  179SOPE   H4X20445   2.318   5.803   7.455 -0.6879 -0.5415 -2.2509
  179SOPE   H4Y20446   2.283   5.629   7.471 -1.4083 -0.7885  1.3190
  179SOPE   C3520447   2.170   5.754   7.614 -0.2201  0.2123  0.2641
  179SOPE   H5X20448   2.084   5.684   7.622  0.3348 -0.5755 -0.5007
  179SOPE   H5Y20449   2.132   5.858   7.620  3.9291  1.8751  1.3154
  179SOPE   C3620450   2.260   5.723   7.737  0.3261 -0.4789 -0.0111
  179SOPE   H6X20451   2.336   5.803   7.752  0.3522 -0.1966 -1.5138
  179SOPE   H6Y20452   2.305   5.623   7.719  0.7054 -0.0021 -2.0213
  179SOPE   C3720453   2.171   5.730   7.864 -0.7437  0.4409  0.5497
  179SOPE   H7X20454   2.096   5.811   7.858 -1.2169  0.0185  0.6958
  179SOPE   H7Y20455   2.232   5.741   7.956  0.0374 -1.3688  0.3027
  179SOPE   C3820456   2.095   5.598   7.889  0.6136 -0.0876 -0.1087
  179SOPE   H8X20457   2.165   5.512   7.886 -0.4664 -1.1734  2.3832
  179SOPE   H8Y20458   2.028   5.572   7.805 -0.0897 -2.1321  1.0260
  179SOPE   C3920459   2.010   5.627   8.012 -0.2894 -0.1875  0.2908
  179SOPE   H9X20460   1.937   5.707   7.987  0.8879 -0.0999 -3.5174
  179SOPE   H9Y20461   2.080   5.658   8.093  0.3480  0.5102 -0.5117
  179SOPE  C31020462   1.937   5.502   8.061 -0.6769  0.2810  0.5402
  179SOPE  H10X20463   2.005   5.415   8.070  0.2280  0.9559  0.3348
  179SOPE  H10Y20464   1.870   5.478   7.976  1.7552  2.7086 -2.2939
  179SOPE  C31120465   1.866   5.510   8.198 -0.6066  0.1987 -0.3175
  179SOPE  H11X20466   1.843   5.408   8.234  1.8108  0.1161  1.2053
  179SOPE  H11Y20467   1.767   5.559   8.180 -0.8825 -0.5802 -0.9663
  179SOPE  C31220468   1.949   5.588   8.312  0.1102  0.2637  0.4210
  179SOPE  H12X20469   1.928   5.695   8.290  1.7771  0.8545  1.5658
  179SOPE  H12Y20470   2.057   5.576   8.292  0.5414 -0.6077  2.9643
  179SOPE  C31320471   1.902   5.540   8.451 -0.1458 -1.2026 -0.4443
  179SOPE  H13X20472   1.925   5.438   8.488 -1.5767 -1.5562 -0.4990
  179SOPE  H13Y20473   1.791   5.548   8.452 -0.1817 -1.2825  1.9992
  179SOPE  C31420474   1.966   5.622   8.564 -0.4405  0.2823  0.8023
  179SOPE  H14X20475   1.916   5.721   8.550 -1.2158 -0.1225  0.6640
  179SOPE  H14Y20476   2.076   5.625   8.557 -0.3577 -2.1337  0.2611
  179SOPE  C31520477   1.939   5.568   8.708  0.3979  0.7237 -0.3384
  179SOPE  H15X20478   1.965   5.460   8.710  1.1243  0.8064 -2.5308
  179SOPE  H15Y20479   1.828   5.571   8.717  0.0601  1.1446 -3.4766
  179SOPE  C31620480   1.993   5.635   8.827  0.5137 -0.2935 -0.3965
  179SOPE  H16X20481   2.101   5.654   8.811  0.1015  2.4476 -0.3710
  179SOPE  H16Y20482   1.976   5.577   8.920 -2.3832  0.8216 -0.1270
  179SOPE  C31720483   1.935   5.774   8.865 -0.1642 -0.5333  0.0027
  179SOPE  H17X20484   1.827   5.766   8.886 -0.5099 -0.6575 -1.7328
  179SOPE  H17Y20485   1.939   5.827   8.768  2.1092 -0.9420 -0.1816
  179SOPE  C31820486   2.019   5.858   8.958 -0.0877  0.0763 -0.3877
  179SOPE  H18X20487   2.007   5.815   9.060 -0.8819 -0.8422 -0.8600
  179SOPE  H18Y20488   1.988   5.964   8.972  2.0499  0.5835  1.1593
  179SOPE  H18Z20489   2.128   5.844   8.937  0.4127  0.7850  1.5064
  180SOPE     N20490   0.503   4.905   6.469  0.3475 -0.3512  0.0713
  180SOPE   HN120491   0.469   5.003   6.479  1.7145  0.4436 -2.2165
  180SOPE   HN220492   0.607   4.899   6.459  0.3824  0.1240  0.1270
  180SOPE   HN320493   0.455   4.865   6.386  0.2265  0.8782 -0.4646
  180SOPE   C1220494   0.454   4.827   6.580 -0.5835  0.1289 -0.2311
  180SOPE  H12A20495   0.416   4.894   6.660 -1.4220 -0.5028 -0.0897
  180SOPE  H12B20496   0.542   4.777   6.627 -1.0054  1.9433  2.7631
  180SOPE   C1120497   0.357   4.720   6.548 -0.0303  0.7506 -0.7642
  180SOPE  H11A20498   0.256   4.765   6.534 -0.4617  0.7335  1.8941
  180SOPE  H11B20499   0.353   4.652   6.636  2.6494  1.1703 -0.2479
  180SOPE     P20500   0.356   4.508   6.401 -0.2944  0.1842  0.1596
  180SOPE   O1320501   0.449   4.417   6.476 -0.5080 -0.0172  0.6104
  180SOPE   O1420502   0.343   4.489   6.253  0.0639 -0.2027 -0.0323
  180SOPE   O1220503   0.402   4.656   6.429 -0.6755  0.5549  0.2560
  180SOPE   O1120504   0.216   4.508   6.472 -0.6137  0.6246  0.0189
  180SOPE    C120505   0.152   4.407   6.547  0.6168  0.3079  0.6447
  180SOPE    HA20506   0.227   4.351   6.607  2.3161  0.8345 -0.8777
  180SOPE    HB20507   0.102   4.338   6.475  0.8019  1.0710 -0.2379
  180SOPE    C220508   0.048   4.477   6.643  0.2263  0.1536 -0.4591
  180SOPE    HS20509   0.007   4.393   6.703  2.0687 -0.7600 -0.4004
  180SOPE   O2120510  -0.046   4.559   6.570 -0.3413  0.3107 -0.0220
  180SOPE   C2120511  -0.151   4.496   6.521 -0.5774  0.8126 -0.7495
  180SOPE   O2220512  -0.164   4.375   6.531 -0.0798 -0.1812 -0.3500
  180SOPE   C2220513  -0.252   4.596   6.467  0.0186 -0.6775  1.0376
  180SOPE   H2R20514  -0.339   4.542   6.422  0.6973 -0.3396 -0.7784
  180SOPE   H2S20515  -0.205   4.644   6.379 -2.1729  0.7491  0.5662
  180SOPE    C320516   0.131   4.573   6.738 -0.3991  0.0337 -0.0308
  180SOPE    HX20517   0.160   4.664   6.681 -0.7426  2.5962  3.5607
  180SOPE    HY20518   0.224   4.520   6.768 -0.4457 -1.8712 -2.8012
  180SOPE   O3120519   0.054   4.613   6.856  0.4651 -0.3423  0.3438
  180SOPE   C3120520   0.105   4.726   6.915 -0.2654  0.4656 -0.5378
  180SOPE   O3220521   0.194   4.798   6.874  0.3115 -0.7435  0.0095
  180SOPE   C3220522   0.019   4.754   7.035 -1.1518  0.2157  0.6216
  180SOPE   H2X20523   0.045   4.675   7.108 -0.7430  0.2120  0.4704
  180SOPE   H2Y20524  -0.089   4.747   7.009 -0.7099 -0.0993 -1.3124
  180SOPE   C2320525  -0.288   4.719   6.556 -0.3025 -0.1111 -0.2103
  180SOPE   H3R20526  -0.315   4.798   6.483 -0.0242 -0.8527 -1.1393
  180SOPE   H3S20527  -0.211   4.755   6.627  0.2809 -0.0791 -0.8428
  180SOPE   C2420528  -0.407   4.704   6.647  0.0866  0.1711 -0.0690
  180SOPE   H4R20529  -0.424   4.793   6.712 -0.3002 -0.0170  0.0908
  180SOPE   H4S20530  -0.495   4.696   6.580 -0.3136  0.9895  0.3483
  180SOPE   C2520531  -0.404   4.583   6.736  0.4574 -0.2062  0.2617
  180SOPE   H5R20532  -0.378   4.497   6.672  0.2889  0.0465 -0.1478
  180SOPE   H5S20533  -0.327   4.583   6.816  1.0190 -0.2801 -0.2764
  180SOPE   C2620534  -0.541   4.554   6.797 -0.2891  0.5241  0.2213
  180SOPE   H6R20535  -0.619   4.552   6.718  0.9724 -0.4700 -1.0477
  180SOPE   H6S20536  -0.529   4.451   6.837  1.0869  0.6173  0.0865
  180SOPE   C2720537  -0.593   4.651   6.907  0.0405 -0.2960  0.0175
  180SOPE   H7R20538  -0.512   4.666   6.982  1.1862  0.7475 -1.3741
  180SOPE   H7S20539  -0.607   4.751   6.861 -0.0826 -0.4114 -0.1992
  180SOPE   C2820540  -0.713   4.617   6.987 -0.4988  0.1645  0.3627
  180SOPE   H8R20541  -0.718   4.707   7.051 -0.4521  0.2897  0.1920
  180SOPE   H8S20542  -0.799   4.607   6.917 -1.0614  0.6621  0.9719
  180SOPE   C2920543  -0.695   4.493   7.069  0.4554  0.0892 -0.0848
  180SOPE   H9120544  -0.604   4.440   7.037  0.6122  0.1911  0.1907
  180SOPE  C21020545  -0.777   4.447   7.168  0.1949  0.3143 -0.2794
  180SOPE  H10120546  -0.749   4.351   7.213 -0.1217 -0.3350 -1.4250
  180SOPE  C21120547  -0.901   4.519   7.218  0.2441 -0.2136 -0.1666
  180SOPE  H11R20548  -0.992   4.477   7.171  0.3087 -0.5266 -0.0169
  180SOPE  H11S20549  -0.893   4.626   7.189  1.0842 -0.6111 -1.4954
  180SOPE  C21220550  -0.905   4.502   7.375  1.5266  0.8220 -0.6768
  180SOPE  H12R20551  -0.813   4.542   7.423  2.2466 -1.0148 -0.4710
  180SOPE  H12S20552  -0.922   4.393   7.385 -0.2584  1.1467  0.2306
  180SOPE  C21320553  -1.025   4.581   7.441 -0.3011  0.0297 -0.1435
  180SOPE  H13R20554  -1.113   4.567   7.374 -0.2146 -0.8879 -0.0776
  180SOPE  H13S20555  -1.011   4.691   7.433 -1.2934  0.1875  0.1944
  180SOPE  C21420556  -1.048   4.552   7.595 -0.7186  0.2682  0.1049
  180SOPE  H14R20557  -0.946   4.569   7.634 -0.6062 -0.5473  0.1775
  180SOPE  H14S20558  -1.075   4.444   7.602 -2.2928  0.7108  1.4828
  180SOPE  C21520559  -1.138   4.645   7.676 -0.5677  0.1576  0.4159
  180SOPE  H15R20560  -1.242   4.650   7.636 -0.5469  1.2243  0.4620
  180SOPE  H15S20561  -1.093   4.746   7.663 -1.2746  0.2496 -1.6988
  180SOPE  C21620562  -1.139   4.608   7.825  0.4165 -0.4967 -0.0285
  180SOPE  H16R20563  -1.039   4.588   7.870  0.2760 -0.6436  0.2186
  180SOPE  H16S20564  -1.193   4.512   7.814 -0.5002  0.1137 -1.1022
  180SOPE  C21720565  -1.209   4.717   7.902  0.5820 -0.6604  0.2537
  180SOPE  H17R20566  -1.319   4.720   7.886  0.2347 -3.0665  1.7440
  180SOPE  H17S20567  -1.171   4.815   7.868  4.4156 -2.2802 -0.5866
  180SOPE  C21820568  -1.200   4.702   8.056 -0.0101  0.4271  0.4400
  180SOPE  H18R20569  -1.096   4.720   8.092 -0.1039 -1.6062  1.9016
  180SOPE  H18S20570  -1.220   4.593   8.067  1.1375 -0.1849 -2.5026
  180SOPE  H18T20571  -1.276   4.764   8.107  1.2182  0.8678  1.7815
  180SOPE   C3320572   0.047   4.893   7.096  0.5100  0.0344  0.5845
  180SOPE   H3X20573   0.009   4.976   7.033 -1.1827 -0.6479  0.6476
  180SOPE   H3Y20574   0.157   4.906   7.105  0.6062 -0.5896  0.3221
  180SOPE   C3420575  -0.034   4.897   7.224 -0.5452 -0.2998  0.4690
  180SOPE   H4X20576  -0.002   4.820   7.297  4.8136  1.4003  0.3783
  180SOPE   H4Y20577  -0.144   4.888   7.213 -0.2788 -4.2957 -0.2941
  180SOPE   C3520578   0.001   5.026   7.296 -0.1837 -0.3547 -0.5689
  180SOPE   H5X20579  -0.012   5.117   7.234  2.2140  0.9436  0.7026
  180SOPE   H5Y20580   0.110   5.025   7.320 -0.8165  0.2198  2.8460
  180SOPE   C3620581  -0.076   5.046   7.430  0.5390 -1.1082  0.0162
  180SOPE   H6X20582  -0.167   5.104   7.403  2.3144  1.9489  0.0917
  180SOPE   H6Y20583  -0.030   5.119   7.501 -1.3717 -1.1229  1.3494
  180SOPE   C3720584  -0.105   4.923   7.519  0.3164 -0.7073 -0.6601
  180SOPE   H7X20585  -0.005   4.878   7.539 -0.8875 -2.6639  1.5855
  180SOPE   H7Y20586  -0.164   4.846   7.465  2.0454 -2.3342 -0.3795
  180SOPE   C3820587  -0.185   4.961   7.645 -0.2089  0.2353  0.0446
  180SOPE   H8X20588  -0.269   5.027   7.612 -0.3683  0.2853  0.5374
  180SOPE   H8Y20589  -0.117   5.032   7.697 -0.6576  0.8338 -0.1642
  180SOPE   C3920590  -0.231   4.845   7.729 -0.8387 -0.5488 -0.2926
  180SOPE   H9X20591  -0.146   4.789   7.774 -0.5584  0.4761  0.4812
  180SOPE   H9Y20592  -0.282   4.765   7.671  0.4290 -0.6807 -1.2770
  180SOPE  C31020593  -0.329   4.880   7.852 -0.4770  0.3676  0.1349
  180SOPE  H10X20594  -0.422   4.922   7.809 -0.7814  0.2585  0.6679
  180SOPE  H10Y20595  -0.273   4.953   7.915 -0.4436 -1.5560  2.4808
  180SOPE  C31120596  -0.371   4.753   7.933 -0.4348 -0.4613  0.9507
  180SOPE  H11X20597  -0.290   4.720   8.001 -0.6475 -1.4282  0.7526
  180SOPE  H11Y20598  -0.398   4.661   7.877  0.1636 -1.0961  1.6940
  180SOPE  C31220599  -0.479   4.774   8.044 -0.4969  0.1472  0.8583
  180SOPE  H12X20600  -0.572   4.800   7.989 -0.5163 -2.0950 -0.2672
  180SOPE  H12Y20601  -0.450   4.865   8.101 -0.9770  0.7673  0.1286
  180SOPE  C31320602  -0.507   4.653   8.127 -0.0217  0.9345 -0.2674
  180SOPE  H13X20603  -0.419   4.621   8.188 -0.2245  0.2666 -0.3183
  180SOPE  H13Y20604  -0.530   4.564   8.064 -2.2034  0.9586  0.4140
  180SOPE  C31420605  -0.611   4.687   8.235 -0.4189 -0.5378 -0.2324
  180SOPE  H14X20606  -0.571   4.770   8.297 -3.9420  0.5479  0.8206
  180SOPE  H14Y20607  -0.615   4.601   8.305 -0.0586  1.7425  2.7684
  180SOPE  C31520608  -0.753   4.724   8.183 -0.5939  0.2859  0.0887
  180SOPE  H15X20609  -0.769   4.649   8.103  2.2243 -0.1241 -0.1847
  180SOPE  H15Y20610  -0.747   4.826   8.139  2.0478  0.8297  1.4802
  180SOPE  C31620611  -0.860   4.699   8.294  0.0914 -0.5175  0.1344
  180SOPE  H16X20612  -0.941   4.774   8.281 -1.0944 -1.9051 -0.7773
  180SOPE  H16Y20613  -0.803   4.718   8.388 -1.8966  0.4538  1.2019
  180SOPE  C31720614  -0.917   4.558   8.296  0.0402 -0.7771  0.8111
  180SOPE  H17X20615  -0.822   4.500   8.303 -0.2974 -1.1529  2.7807
  180SOPE  H17Y20616  -0.969   4.545   8.199  0.5613  0.4469  0.3439
  180SOPE  C31820617  -1.011   4.514   8.408 -0.1499 -0.1549  0.2343
  180SOPE  H18X20618  -1.109   4.560   8.385 -0.6021  0.0967  2.4595
  180SOPE  H18Y20619  -0.978   4.553   8.506 -0.6687 -0.3488  0.4883
  180SOPE  H18Z20620  -1.017   4.403   8.408  0.5654 -0.2112 -0.6481
  181SOPE     N20621   1.874   3.074   6.233 -0.4382  0.6128  0.3200
  181SOPE   HN120622   1.902   2.994   6.173  0.7708  2.6785 -2.0309
  181SOPE   HN220623   1.953   3.141   6.224 -1.8046  2.3151  0.3651
  181SOPE   HN320624   1.878   3.037   6.330 -0.9075 -1.5444 -0.4181
  181SOPE   C1220625   1.736   3.122   6.200  0.3809  0.2659  0.6673
  181SOPE  H12A20626   1.744   3.230   6.176  1.0871 -0.2381 -1.6342
  181SOPE  H12B20627   1.682   3.100   6.294  1.7128 -0.0323  1.3996
  181SOPE   C1120628   1.684   3.051   6.076 -0.0520  0.3888  0.2123
  181SOPE  H11A20629   1.742   3.082   5.987 -2.0380  0.4563 -1.1100
  181SOPE  H11B20630   1.585   3.095   6.055  1.2287  3.4179 -0.0438
  181SOPE     P20631   1.596   2.820   6.184  0.1280  0.1817  0.1496
  181SOPE   O1320632   1.682   2.725   6.256  0.5587 -0.1219 -0.9223
  181SOPE   O1420633   1.495   2.770   6.092 -0.4995 -0.5334 -0.2239
  181SOPE   O1220634   1.691   2.907   6.087 -0.0961 -0.4974 -0.3289
  181SOPE   O1120635   1.536   2.915   6.290  0.1697  0.3912 -0.3541
  181SOPE    C120636   1.426   3.009   6.269 -0.7854  0.6916 -0.2088
  181SOPE    HA20637   1.368   2.979   6.179  0.3895 -2.0547 -0.1414
  181SOPE    HB20638   1.461   3.113   6.252 -0.0478  0.1978 -1.9767
  181SOPE    C220639   1.336   2.999   6.399 -0.1306 -0.1071 -0.8152
  181SOPE    HS20640   1.247   3.066   6.398 -1.3656 -1.6372  1.0943
  181SOPE   O2120641   1.421   3.032   6.514  0.0196 -0.1892  0.1723
  181SOPE   C2120642   1.402   3.143   6.579  0.5366 -0.5848 -0.3321
  181SOPE   O2220643   1.308   3.221   6.566 -0.1635  0.2429  0.6133
  181SOPE   C2220644   1.519   3.165   6.669 -0.1625 -0.1669  0.1961
  181SOPE   H2R20645   1.538   3.275   6.667  0.5739 -0.2890 -1.1458
  181SOPE   H2S20646   1.611   3.133   6.616 -1.1197  0.1347 -1.7444
  181SOPE    C320647   1.274   2.853   6.410  0.1744 -0.7244  0.2713
  181SOPE    HX20648   1.356   2.780   6.426  2.1864  1.6168  1.2983
  181SOPE    HY20649   1.226   2.844   6.310  1.1063  0.2001 -0.2716
  181SOPE   O3120650   1.177   2.858   6.520  0.0733  0.3277 -0.0796
  181SOPE   C3120651   1.117   2.743   6.553  0.2218  0.0527  0.7903
  181SOPE   O3220652   1.141   2.635   6.499 -0.1475  0.0884  0.5892
  181SOPE   C3220653   1.038   2.771   6.683 -0.3995 -0.3922 -0.0593
  181SOPE   H2X20654   0.986   2.676   6.705 -1.5310  0.2373  0.0146
  181SOPE   H2Y20655   0.973   2.859   6.666  1.4505  0.8639 -1.0172
  181SOPE   C2320656   1.513   3.098   6.805  1.1541  0.6997 -0.3910
  181SOPE   H3R20657   1.610   3.075   6.853  0.4079  0.9163  1.2918
  181SOPE   H3S20658   1.459   3.001   6.795 -0.5985  1.6317 -0.3617
  181SOPE   C2420659   1.441   3.187   6.907 -0.0692  0.6220 -0.4578
  181SOPE   H4R20660   1.479   3.291   6.912  1.1339  0.2855 -1.7292
  181SOPE   H4S20661   1.332   3.190   6.884 -0.4387  3.0182  1.3021
  181SOPE   C2520662   1.451   3.126   7.049  0.1870  0.1406 -0.0419
  181SOPE   H5R20663   1.414   3.021   7.050 -0.1315  0.1662  3.4534
  181SOPE   H5S20664   1.558   3.105   7.071  0.9319  2.0301 -1.6062
  181SOPE   C2620665   1.373   3.210   7.149  0.1698  0.6363  0.0459
  181SOPE   H6R20666   1.424   3.304   7.179 -0.2447  0.6821  0.6246
  181SOPE   H6S20667   1.272   3.231   7.109 -1.2483 -1.1326  2.4387
  181SOPE   C2720668   1.331   3.130   7.280 -0.3577  0.1588 -0.0596
  181SOPE   H7R20669   1.248   3.064   7.246  0.0267 -1.0178  1.1730
  181SOPE   H7S20670   1.415   3.068   7.317 -0.5399 -0.6352 -0.9315
  181SOPE   C2820671   1.301   3.235   7.389 -0.4443 -1.1076 -0.1017
  181SOPE   H8R20672   1.394   3.282   7.427 -1.1488 -1.1488  1.7931
  181SOPE   H8S20673   1.249   3.321   7.342  3.3237  1.3114 -0.2273
  181SOPE   C2920674   1.225   3.161   7.494  0.7189 -0.0759  0.3703
  181SOPE   H9120675   1.157   3.085   7.452 -0.1678  0.3453  1.0201
  181SOPE  C21020676   1.249   3.163   7.626  0.2404 -0.3442  0.1531
  181SOPE  H10120677   1.186   3.102   7.693 -1.1700  0.2020 -0.6211
  181SOPE  C21120678   1.352   3.246   7.698  0.0535  0.1400 -0.7722
  181SOPE  H11R20679   1.407   3.301   7.618 -1.8339 -0.8273 -2.8488
  181SOPE  H11S20680   1.427   3.178   7.744 -1.0924 -1.2430 -0.8809
  181SOPE  C21220681   1.309   3.338   7.807  0.2653 -0.0395 -0.6011
  181SOPE  H12R20682   1.203   3.364   7.791  0.5280 -0.0239 -2.5647
  181SOPE  H12S20683   1.367   3.432   7.807  0.1832  0.0141  0.0427
  181SOPE  C21320684   1.318   3.261   7.941  0.5650  0.0788  0.4370
  181SOPE  H13R20685   1.423   3.227   7.956  0.9404  1.1645  0.3515
  181SOPE  H13S20686   1.251   3.173   7.943  0.2336  0.3039 -0.3671
  181SOPE  C21420687   1.288   3.369   8.045 -0.7343  0.4817  0.4402
  181SOPE  H14R20688   1.191   3.413   8.016 -0.1122  0.4370 -1.9085
  181SOPE  H14S20689   1.373   3.441   8.039  1.0057 -1.4694  0.5242
  181SOPE  C21520690   1.277   3.314   8.188  0.0372  0.3920  0.3938
  181SOPE  H15R20691   1.376   3.288   8.231 -0.9163 -1.2224  1.7835
  181SOPE  H15S20692   1.224   3.216   8.196  3.0833 -1.3918  0.3289
  181SOPE  C21620693   1.213   3.412   8.281  0.5347 -0.7066  0.2703
  181SOPE  H16R20694   1.104   3.398   8.264 -0.1875  0.7679  3.0712
  181SOPE  H16S20695   1.241   3.518   8.259 -1.0786  0.1026  1.7936
  181SOPE  C21720696   1.241   3.379   8.432  0.5103 -0.5104  0.3521
  181SOPE  H17R20697   1.216   3.271   8.438 -1.5647 -0.0913  0.0608
  181SOPE  H17S20698   1.171   3.430   8.501 -1.3323 -0.6483 -1.3218
  181SOPE  C21820699   1.383   3.404   8.473  0.7519  0.1707 -0.1482
  181SOPE  H18R20700   1.393   3.391   8.583 -0.1249  1.0407  0.0405
  181SOPE  H18S20701   1.413   3.506   8.441  0.5418 -0.3751 -2.2085
  181SOPE  H18T20702   1.438   3.315   8.435 -1.0683 -1.6811  1.2815
  181SOPE   C3320703   1.136   2.802   6.796 -0.3056 -0.4397  0.9070
  181SOPE   H3X20704   1.078   2.814   6.890  0.1794  0.2782  1.1213
  181SOPE   H3Y20705   1.187   2.894   6.761 -3.2833  1.3546  0.9263
  181SOPE   C3420706   1.245   2.694   6.815  0.3893  0.0850 -0.3950
  181SOPE   H4X20707   1.303   2.699   6.721  0.8306  1.4638 -0.0825
  181SOPE   H4Y20708   1.207   2.591   6.829  3.0910 -0.5732  4.4297
  181SOPE   C3520709   1.340   2.726   6.933  0.3912 -0.4275  0.1410
  181SOPE   H5X20710   1.370   2.832   6.925  0.8926 -0.6576 -1.3428
  181SOPE   H5Y20711   1.425   2.657   6.914  1.0336  0.3344  0.2540
  181SOPE   C3620712   1.276   2.696   7.064  0.0885  0.2332 -0.1187
  181SOPE   H6X20713   1.245   2.589   7.075 -1.0410  0.6357  0.8291
  181SOPE   H6Y20714   1.191   2.762   7.090  0.4450  1.0739 -1.0406
  181SOPE   C3720715   1.374   2.710   7.180  0.0441 -0.0211 -0.8523
  181SOPE   H7X20716   1.408   2.814   7.198 -3.2317  0.9795  0.4465
  181SOPE   H7Y20717   1.460   2.643   7.158 -0.5394 -1.1095  0.0919
  181SOPE   C3820718   1.297   2.674   7.315 -0.0802 -0.3815  0.2877
  181SOPE   H8X20719   1.249   2.574   7.307 -1.4375  0.0370  2.3945
  181SOPE   H8Y20720   1.223   2.749   7.351  1.1092  0.9335  0.0925
  181SOPE   C3920721   1.403   2.653   7.424 -0.7105 -0.3347 -0.3825
  181SOPE   H9X20722   1.451   2.750   7.449  0.3200 -0.4870 -1.6106
  181SOPE   H9Y20723   1.480   2.581   7.388  0.4608 -0.4943  2.2698
  181SOPE  C31020724   1.347   2.621   7.565 -0.9162  1.1965 -0.9139
  181SOPE  H10X20725   1.242   2.656   7.576 -0.6653  1.4421  1.0854
  181SOPE  H10Y20726   1.414   2.670   7.640  0.5834 -3.5804  1.2646
  181SOPE  C31120727   1.361   2.462   7.587  0.4229 -0.1438  0.2857
  181SOPE  H11X20728   1.465   2.426   7.595 -0.4166 -2.7605  0.2117
  181SOPE  H11Y20729   1.320   2.407   7.500  0.6020  0.2729 -0.0687
  181SOPE  C31220730   1.295   2.415   7.722 -0.0334  0.4468  0.3023
  181SOPE  H12X20731   1.196   2.464   7.729  0.3340  1.3922 -0.6916
  181SOPE  H12Y20732   1.351   2.442   7.814  0.1334 -1.9871  0.9826
  181SOPE  C31320733   1.274   2.260   7.738  0.4112 -0.4224  0.6689
  181SOPE  H13X20734   1.367   2.216   7.778  0.1003 -0.0238  1.8513
  181SOPE  H13Y20735   1.251   2.222   7.636  0.5682 -3.3299  1.6259
  181SOPE  C31420736   1.153   2.224   7.826  0.5934 -0.0142  0.2838
  181SOPE  H14X20737   1.101   2.139   7.777 -0.9202  1.8318 -1.5203
  181SOPE  H14Y20738   1.083   2.310   7.831  1.4507  0.7563 -0.4917
  181SOPE  C31520739   1.177   2.174   7.961  0.3580 -0.5260 -0.3746
  181SOPE  H15X20740   1.260   2.100   7.958 -0.8589 -1.9099 -1.3570
  181SOPE  H15Y20741   1.086   2.126   8.004  0.7634 -0.3756  0.6626
  181SOPE  C31620742   1.209   2.295   8.053 -0.4634  0.4542 -0.5496
  181SOPE  H16X20743   1.117   2.357   8.059 -0.7531  0.0069 -0.3395
  181SOPE  H16Y20744   1.281   2.371   8.015 -0.3640  1.4743  1.5482
  181SOPE  C31720745   1.250   2.249   8.196 -0.7439 -0.1587 -0.1372
  181SOPE  H17X20746   1.326   2.170   8.176 -1.3903 -1.2069  1.3083
  181SOPE  H17Y20747   1.161   2.203   8.244 -0.9350 -1.5441 -1.7036
  181SOPE  C31820748   1.310   2.359   8.288  0.3288 -0.3450 -0.2613
  181SOPE  H18X20749   1.305   2.334   8.397  0.1541 -1.5964 -0.5338
  181SOPE  H18Y20750   1.246   2.446   8.265  0.5701 -0.1219 -0.0946
  181SOPE  H18Z20751   1.408   2.398   8.253  0.8946 -0.9681  0.5774
  182SOPE     N20752   4.268   0.405   6.693  0.0230  0.1570  0.0272
  182SOPE   HN120753   4.233   0.319   6.740  2.6974 -1.1909 -0.2188
  182SOPE   HN220754   4.281   0.472   6.771 -1.4810  2.3509 -1.4912
  182SOPE   HN320755   4.198   0.440   6.624  0.1766 -0.0264 -0.2258
  182SOPE   C1220756   4.395   0.387   6.619 -0.5481  0.4298 -0.5272
  182SOPE  H12A20757   4.449   0.323   6.692 -1.7162  1.6418  1.4917
  182SOPE  H12B20758   4.448   0.485   6.625 -2.2167  1.2934  1.1582
  182SOPE   C1120759   4.378   0.325   6.482  0.2509  0.0435 -0.6129
  182SOPE  H11A20760   4.327   0.409   6.430 -0.3710  1.0282  1.4992
  182SOPE  H11B20761   4.314   0.234   6.485  1.4798 -0.8165  0.6546
  182SOPE     P20762   4.609   0.417   6.374 -0.0634 -0.1935 -0.1216
  182SOPE   O1320763   4.516   0.528   6.337 -0.2760 -0.4312 -0.4626
  182SOPE   O1420764   4.703   0.370   6.274  0.1205  0.5729 -0.9325
  182SOPE   O1220765   4.512   0.296   6.427  0.3914  0.4549  0.3486
  182SOPE   O1120766   4.691   0.458   6.507 -0.3416  0.5675 -0.1018
  182SOPE    C120767   4.812   0.385   6.539 -0.2386 -0.1496  0.4021
  182SOPE    HA20768   4.888   0.445   6.485 -2.1310  0.8247 -1.3408
  182SOPE    HB20769   4.821   0.283   6.495 -0.9066  0.5913 -1.5971
  182SOPE    C220770   4.830   0.380   6.688  0.8558 -0.2245 -0.7380
  182SOPE    HS20771   4.754   0.306   6.722  1.1354 -1.0847 -1.9222
  182SOPE   O2120772   4.818   0.511   6.750  0.0182  0.1643 -0.2855
  182SOPE   C2120773   4.718   0.536   6.831 -0.3579  0.0520  0.4365
  182SOPE   O2220774   4.644   0.450   6.875  0.0474 -0.8510 -0.0118
  182SOPE   C2220775   4.701   0.685   6.856  0.0830 -0.1413 -0.0598
  182SOPE   H2R20776   4.661   0.723   6.760  0.6519 -2.0011 -1.0868
  182SOPE   H2S20777   4.793   0.744   6.876  1.1935 -0.0754 -4.4020
  182SOPE    C320778   4.971   0.329   6.713  0.3886 -0.3078 -0.4174
  182SOPE    HX20779   5.041   0.407   6.675 -1.2387  1.9166  0.8836
  182SOPE    HY20780   4.994   0.230   6.668  0.5713 -1.5914  2.3416
  182SOPE   O3120781   4.988   0.328   6.858 -0.2665  0.4989  0.2664
  182SOPE   C3120782   4.933   0.230   6.920 -0.3433 -0.1581 -0.2126
  182SOPE   O3220783   4.860   0.148   6.870  0.5162 -0.5927  0.5475
  182SOPE   C3220784   4.971   0.225   7.069  0.6911 -0.8862 -0.6821
  182SOPE   H2X20785   5.024   0.318   7.100  0.8750 -0.9424 -0.8250
  182SOPE   H2Y20786   5.046   0.145   7.085  0.7913 -0.6968 -0.1945
  182SOPE   C2320787   4.587   0.727   6.958 -0.8991 -0.0816 -0.1149
  182SOPE   H3R20788   4.504   0.653   6.954 -0.2482 -0.9824  1.7767
  182SOPE   H3S20789   4.554   0.827   6.925 -3.0374 -0.3425  1.0870
  182SOPE   C2420790   4.636   0.733   7.099 -0.0180  0.0726  0.3124
  182SOPE   H4R20791   4.549   0.723   7.167 -0.7686 -0.4311 -0.7009
  182SOPE   H4S20792   4.708   0.655   7.132  0.2221  0.6813  1.2780
  182SOPE   C2520793   4.701   0.872   7.132  0.2669 -0.0609 -0.0147
  182SOPE   H5R20794   4.775   0.906   7.057  1.6132  1.1892  1.7754
  182SOPE   H5S20795   4.619   0.947   7.120 -0.0925 -0.0317  2.1757
  182SOPE   C2620796   4.762   0.889   7.269  0.3792 -0.1714 -0.2935
  182SOPE   H6R20797   4.827   0.802   7.292 -0.4524 -1.5740 -2.8766
  182SOPE   H6S20798   4.829   0.978   7.272 -0.4471  0.4526  0.7241
  182SOPE   C2720799   4.650   0.902   7.381 -0.5620  0.0829 -0.2758
  182SOPE   H7R20800   4.580   0.978   7.340 -1.1894  1.4454  3.0124
  182SOPE   H7S20801   4.595   0.806   7.373  1.6071 -1.0968 -2.1529
  182SOPE   C2820802   4.695   0.929   7.523  0.1282 -0.5787 -0.3269
  182SOPE   H8R20803   4.745   1.028   7.535  1.7916 -1.5276  1.1532
  182SOPE   H8S20804   4.600   0.944   7.578  0.3299  3.0745 -0.7661
  182SOPE   C2920805   4.777   0.817   7.583 -0.2067 -0.1161  0.7261
  182SOPE   H9120806   4.806   0.732   7.520 -0.5429  0.6991 -0.5696
  182SOPE  C21020807   4.804   0.818   7.710 -0.4854 -0.1084  0.7536
  182SOPE  H10120808   4.872   0.742   7.752 -2.4667 -1.5716  1.4431
  182SOPE  C21120809   4.752   0.919   7.811 -0.2198  0.0388 -0.2302
  182SOPE  H11R20810   4.653   0.961   7.782 -0.5970  1.9542  3.2119
  182SOPE  H11S20811   4.826   1.002   7.816 -2.1364  1.8094  0.9926
  182SOPE  C21220812   4.718   0.872   7.954 -0.4343  0.5636 -0.6750
  182SOPE  H12R20813   4.642   0.791   7.955  2.0056 -1.8713 -0.3308
  182SOPE  H12S20814   4.670   0.953   8.014 -0.4524 -0.7649  1.1801
  182SOPE  C21320815   4.831   0.816   8.048 -0.3461 -0.7538  0.1467
  182SOPE  H13R20816   4.861   0.717   8.007 -0.2397 -0.5417 -0.2911
  182SOPE  H13S20817   4.800   0.798   8.153  0.1728  1.3905  0.7068
  182SOPE  C21420818   4.949   0.911   8.057 -0.6530  0.2003  0.3042
  182SOPE  H14R20819   4.905   1.006   8.096  0.3737 -0.0017  2.0213
  182SOPE  H14S20820   5.000   0.928   7.960 -0.1756  3.7543  1.0488
  182SOPE  C21520821   5.059   0.857   8.156  0.3955 -0.4408  0.1966
  182SOPE  H15R20822   5.156   0.896   8.120  0.6244 -2.0942 -1.1596
  182SOPE  H15S20823   5.071   0.747   8.142  1.9493  0.0429 -3.6482
  182SOPE  C21620824   5.036   0.896   8.306 -0.2568 -0.1518 -0.2161
  182SOPE  H16R20825   4.993   0.807   8.357 -0.1307  0.3379  0.7643
  182SOPE  H16S20826   4.958   0.975   8.314 -1.5512 -1.3850 -0.2176
  182SOPE  C21720827   5.173   0.942   8.360  0.9969  0.5110  0.6262
  182SOPE  H17R20828   5.222   1.004   8.282 -3.4659  0.6712 -2.4110
  182SOPE  H17S20829   5.238   0.852   8.368  1.4069  0.7663  0.2277
  182SOPE  C21820830   5.172   0.997   8.504 -0.4715 -0.3898  0.3933
  182SOPE  H18R20831   5.268   1.033   8.545 -1.7706  1.2645  2.1465
  182SOPE  H18S20832   5.137   0.920   8.575  1.0337 -1.7721 -0.3115
  182SOPE  H18T20833   5.094   1.076   8.513 -0.9594 -0.5093 -1.9382
  182SOPE   C3320834   4.853   0.199   7.160  0.3544  0.2285  0.1641
  182SOPE   H3X20835   4.798   0.111   7.121 -2.2095  2.4788 -1.6662
  182SOPE   H3Y20836   4.777   0.280   7.152  1.2399  0.8855 -2.4761
  182SOPE   C3420837   4.880   0.175   7.306  0.3661  0.3991 -1.0205
  182SOPE   H4X20838   4.930   0.257   7.362  0.2998 -1.0848  1.2891
  182SOPE   H4Y20839   4.951   0.090   7.312 -0.3616 -0.1548 -0.0586
  182SOPE   C3520840   4.752   0.130   7.386 -0.0467 -0.3479  0.6038
  182SOPE   H5X20841   4.722   0.031   7.346 -0.1424  0.5673 -1.7542
  182SOPE   H5Y20842   4.669   0.196   7.355 -0.2165 -0.8847 -0.1152
  182SOPE   C3620843   4.762   0.140   7.535 -0.5107 -0.1532 -0.4329
  182SOPE   H6X20844   4.673   0.115   7.597  0.9677  1.6764  2.6517
  182SOPE   H6Y20845   4.780   0.247   7.555 -2.4796  0.1817 -0.2785
  182SOPE   C3720846   4.878   0.070   7.606 -0.1430  0.3503 -0.5212
  182SOPE   H7X20847   4.968   0.074   7.542  2.3060  2.2212  2.7068
  182SOPE   H7Y20848   4.853  -0.039   7.606  1.7019 -0.1273 -2.1919
  182SOPE   C3820849   4.916   0.114   7.744 -0.6561  0.4684  0.6745
  182SOPE   H8X20850   4.927   0.225   7.752  1.9543  0.1552  2.7116
  182SOPE   H8Y20851   5.012   0.077   7.784  0.5689  1.8742 -0.8063
  182SOPE   C3920852   4.812   0.095   7.862  0.1033 -0.2793 -0.8782
  182SOPE   H9X20853   4.778  -0.010   7.880 -1.7385  0.5046  0.5383
  182SOPE   H9Y20854   4.724   0.155   7.831 -0.2083 -0.0971  0.3194
  182SOPE  C31020855   4.872   0.158   7.993  0.2819 -0.0620 -0.5630
  182SOPE  H10X20856   4.887   0.268   7.985  0.4246  0.1853  2.1949
  182SOPE  H10Y20857   4.974   0.116   8.008 -0.3896 -2.1189 -1.3399
  182SOPE  C31120858   4.799   0.116   8.122 -1.0835 -0.7166  0.0385
  182SOPE  H11X20859   4.817   0.007   8.137  1.4382 -0.2282  0.9285
  182SOPE  H11Y20860   4.692   0.137   8.101 -0.8160  1.0329  0.2775
  182SOPE  C31220861   4.839   0.199   8.246 -0.0327 -0.0036  0.4376
  182SOPE  H12X20862   4.851   0.305   8.217 -0.3587  0.1638  0.9020
  182SOPE  H12Y20863   4.940   0.166   8.280  0.8619  0.5462 -1.4911
  182SOPE  C31320864   4.735   0.193   8.355  0.2979 -0.3737  0.2815
  182SOPE  H13X20865   4.751   0.094   8.403  1.9280  0.7512  2.2335
  182SOPE  H13Y20866   4.636   0.208   8.308  1.4789  0.0093 -2.3083
  182SOPE  C31420867   4.750   0.294   8.463  0.2841 -0.6519 -0.2340
  182SOPE  H14X20868   4.851   0.284   8.509  0.7813  1.6560 -0.6533
  182SOPE  H14Y20869   4.673   0.272   8.539 -0.4515 -0.3444 -0.8730
  182SOPE  C31520870   4.749   0.442   8.419  0.2206 -0.1711  0.2748
  182SOPE  H15X20871   4.656   0.459   8.360  0.9565 -0.7048 -1.0939
  182SOPE  H15Y20872   4.835   0.452   8.350 -1.2902  0.4862 -1.6281
  182SOPE  C31620873   4.752   0.537   8.534  0.8839  0.3345 -0.5654
  182SOPE  H16X20874   4.664   0.522   8.601  0.8687 -0.7271 -0.8135
  182SOPE  H16Y20875   4.733   0.639   8.494 -3.0684  1.2960  3.0229
  182SOPE  C31720876   4.867   0.532   8.636 -0.5372  0.4340  0.3313
  182SOPE  H17X20877   4.921   0.435   8.642 -0.9371  0.1904 -0.0308
  182SOPE  H17Y20878   4.821   0.560   8.734  0.1285  1.2527  0.4281
  182SOPE  C31820879   4.959   0.649   8.598  0.0939  0.6510  0.1155
  182SOPE  H18X20880   4.901   0.743   8.593 -0.1594  0.5483  1.0622
  182SOPE  H18Y20881   5.006   0.632   8.499 -0.3469  0.1258 -0.0114
  182SOPE  H18Z20882   5.037   0.658   8.677 -2.4073  1.9696  2.5899
  183SOPE     N20883   3.694   1.657   6.026  0.4521  0.2629 -0.3295
  183SOPE   HN120884   3.735   1.741   6.070  0.2540  0.8754 -1.2734
  183SOPE   HN220885   3.671   1.583   6.094  0.7543 -1.6577 -2.1940
  183SOPE   HN320886   3.764   1.632   5.953 -0.9439  0.7881 -1.9502
  183SOPE   C1220887   3.564   1.704   5.957 -0.2286  0.5568 -0.4792
  183SOPE  H12A20888   3.591   1.732   5.853  1.0852  1.0719 -0.0232
  183SOPE  H12B20889   3.529   1.795   6.011 -1.0481  0.1619 -0.3295
  183SOPE   C1120890   3.456   1.597   5.972 -0.4058  0.3792 -0.4123
  183SOPE  H11A20891   3.497   1.502   5.932  0.2292  0.0216  1.0202
  183SOPE  H11B20892   3.370   1.623   5.906  0.8645  0.0024 -2.3036
  183SOPE     P20893   3.326   1.682   6.187  0.2030  0.4793  0.0394
  183SOPE   O1320894   3.246   1.610   6.286  0.6004  0.7903 -0.0000
  183SOPE   O1420895   3.246   1.765   6.091 -0.1466 -0.4671  0.1609
  183SOPE   O1220896   3.412   1.575   6.111  0.2727 -0.8859  0.3895
  183SOPE   O1120897   3.437   1.762   6.264 -0.0045  0.8366  0.8434
  183SOPE    C120898   3.546   1.699   6.330  0.0744 -0.2126 -0.5349
  183SOPE    HA20899   3.621   1.772   6.368  1.2922 -1.7849  0.2258
  183SOPE    HB20900   3.603   1.637   6.257  2.7823  1.6998 -0.2018
  183SOPE    C220901   3.513   1.612   6.458 -0.0050  0.0754 -0.4136
  183SOPE    HS20902   3.443   1.536   6.419 -1.4494  0.1128  1.8825
  183SOPE   O2120903   3.460   1.698   6.564  0.2560  0.6874  0.3215
  183SOPE   C2120904   3.351   1.645   6.628 -0.8763  0.3600  0.2425
  183SOPE   O2220905   3.314   1.527   6.613 -0.2396 -0.5403  0.1446
  183SOPE   C2220906   3.305   1.744   6.736  0.0663  0.2061  0.1171
  183SOPE   H2R20907   3.199   1.768   6.713 -0.1939 -1.5493 -0.6716
  183SOPE   H2S20908   3.375   1.830   6.726 -0.4908  0.4069 -3.0810
  183SOPE    C320909   3.649   1.552   6.518 -0.3250 -0.4996  0.9848
  183SOPE    HX20910   3.706   1.645   6.534  0.0602 -0.3252 -1.1365
  183SOPE    HY20911   3.717   1.493   6.452 -0.3419  0.7109 -0.1428
  183SOPE   O3120912   3.625   1.473   6.637 -0.3247  0.2854 -0.7005
  183SOPE   C3120913   3.564   1.354   6.604 -0.3129 -0.0693 -0.0633
  183SOPE   O3220914   3.543   1.326   6.486 -0.1980  0.3269 -0.2639
  183SOPE   C3220915   3.524   1.271   6.714 -0.5502 -0.3807  0.1891
  183SOPE   H2X20916   3.512   1.343   6.798  1.6356  1.3210 -0.8468
  183SOPE   H2Y20917   3.594   1.187   6.733 -0.5814 -1.1973 -2.8255
  183SOPE   C2320918   3.321   1.691   6.881 -0.3841 -0.0261 -0.3502
  183SOPE   H3R20919   3.249   1.607   6.883 -0.9352  0.3966 -1.2999
  183SOPE   H3S20920   3.289   1.772   6.950 -1.6874  0.8712 -1.9351
  183SOPE   C2420921   3.469   1.664   6.925 -0.1885 -0.2436  0.0115
  183SOPE   H4R20922   3.482   1.558   6.893 -1.2622 -0.2696 -0.3659
  183SOPE   H4S20923   3.532   1.742   6.876 -1.5771 -0.5015 -2.3541
  183SOPE   C2520924   3.494   1.668   7.078  0.6812 -0.3514 -1.1436
  183SOPE   H5R20925   3.599   1.633   7.085  0.2472 -1.5403 -0.1792
  183SOPE   H5S20926   3.489   1.771   7.118  2.6302 -1.3977  2.2164
  183SOPE   C2620927   3.412   1.559   7.151  0.5862 -0.9108  0.6440
  183SOPE   H6R20928   3.437   1.567   7.259  1.2027  2.9835  0.3456
  183SOPE   H6S20929   3.302   1.576   7.155  0.4630 -1.4062 -0.4356
  183SOPE   C2720930   3.432   1.421   7.094 -0.3785 -0.6886  0.0256
  183SOPE   H7R20931   3.349   1.410   7.021 -0.6436 -1.9362  0.4821
  183SOPE   H7S20932   3.530   1.410   7.043 -0.2037 -0.8730  0.3975
  183SOPE   C2820933   3.425   1.300   7.195  0.0832 -0.4471  0.4049
  183SOPE   H8R20934   3.335   1.314   7.259  0.5303 -0.4492  1.0411
  183SOPE   H8S20935   3.406   1.208   7.135 -0.0183  0.0588 -0.3556
  183SOPE   C2920936   3.554   1.290   7.272 -0.7446  0.1622 -0.3630
  183SOPE   H9120937   3.632   1.228   7.225 -0.2888  0.5046 -0.0681
  183SOPE  C21020938   3.582   1.318   7.399  0.3466  0.1736 -0.3436
  183SOPE  H10120939   3.682   1.301   7.441 -0.1393 -1.1323  0.3208
  183SOPE  C21120940   3.487   1.389   7.497  0.2585  0.2949  0.2133
  183SOPE  H11R20941   3.423   1.308   7.538 -0.7205 -0.2384 -2.1994
  183SOPE  H11S20942   3.429   1.452   7.428 -0.4438 -1.2383 -0.6280
  183SOPE  C21220943   3.552   1.471   7.611  0.2660 -0.2996  0.7210
  183SOPE  H12R20944   3.469   1.541   7.636 -1.1889 -1.9866  0.7736
  183SOPE  H12S20945   3.645   1.529   7.591 -0.7738  1.7608  1.5288
  183SOPE  C21320946   3.571   1.381   7.732 -0.4289  0.3908 -0.1307
  183SOPE  H13R20947   3.625   1.289   7.704 -0.0873  0.7205 -0.5757
  183SOPE  H13S20948   3.469   1.351   7.764 -0.1622  0.2151  0.5628
  183SOPE  C21420949   3.634   1.457   7.849  0.2109  0.3146 -0.2789
  183SOPE  H14R20950   3.559   1.531   7.885 -2.1067 -1.0940 -1.8834
  183SOPE  H14S20951   3.727   1.512   7.827  0.4502  0.1255  0.2409
  183SOPE  C21520952   3.671   1.354   7.955  0.5765  0.5535  0.0445
  183SOPE  H15R20953   3.749   1.284   7.917  2.6249  0.7791  3.3827
  183SOPE  H15S20954   3.575   1.301   7.973  0.3014  0.7348 -0.8407
  183SOPE  C21620955   3.737   1.400   8.086 -0.0977 -0.7820  0.2702
  183SOPE  H16R20956   3.826   1.459   8.058 -0.9970 -0.6562 -2.7194
  183SOPE  H16S20957   3.768   1.306   8.137  1.3157  0.1190  1.1055
  183SOPE  C21720958   3.640   1.484   8.170  0.1522 -0.1122 -0.2475
  183SOPE  H17R20959   3.578   1.556   8.113  1.3068  1.6020  0.5631
  183SOPE  H17S20960   3.688   1.557   8.238  0.2362 -0.0219 -0.4013
  183SOPE  C21820961   3.544   1.398   8.250 -0.4700  0.6655 -0.9967
  183SOPE  H18R20962   3.509   1.462   8.334 -0.2382 -0.4422 -0.0282
  183SOPE  H18S20963   3.595   1.312   8.298 -0.1295  2.4381  2.1096
  183SOPE  H18T20964   3.462   1.351   8.192  0.9138 -1.7091 -1.1295
  183SOPE   C3320965   3.381   1.205   6.691  0.6497 -0.2065 -0.0970
  183SOPE   H3X20966   3.389   1.157   6.591 -0.4475  0.1981 -0.4016
  183SOPE   H3Y20967   3.305   1.283   6.669  0.7909  0.1075  0.5121
  183SOPE   C3420968   3.326   1.104   6.795  0.0641 -0.3757 -0.4822
  183SOPE   H4X20969   3.299   1.158   6.888  0.3893  1.3883 -1.3776
  183SOPE   H4Y20970   3.401   1.027   6.821 -0.9948 -0.4521  2.7969
  183SOPE   C3520971   3.211   1.016   6.753 -0.2615  0.0847 -0.1105
  183SOPE   H5X20972   3.230   0.968   6.654  1.1810  1.6405 -0.6276
  183SOPE   H5Y20973   3.121   1.081   6.747 -1.2933 -1.1474  1.2347
  183SOPE   C3620974   3.170   0.895   6.848 -0.3354  0.1822  0.2216
  183SOPE   H6X20975   3.252   0.820   6.845 -0.2083  0.3499 -0.7896
  183SOPE   H6Y20976   3.082   0.843   6.805 -0.6892  2.3816 -1.8916
  183SOPE   C3720977   3.131   0.943   6.988 -0.5760  0.7464 -0.4056
  183SOPE   H7X20978   3.046   0.874   7.011  0.7171 -0.5173  0.7926
  183SOPE   H7Y20979   3.091   1.046   6.988 -0.5877  0.7468 -1.0077
  183SOPE   C3820980   3.238   0.928   7.092  0.2687 -0.3232  0.2195
  183SOPE   H8X20981   3.323   0.989   7.055 -0.7741  0.4777 -0.9792
  183SOPE   H8Y20982   3.273   0.823   7.089  2.0019  0.2440 -1.1139
  183SOPE   C3920983   3.193   0.958   7.233 -0.0089  0.7685 -0.2323
  183SOPE   H9X20984   3.128   0.874   7.266 -1.0552  1.5360 -0.2844
  183SOPE   H9Y20985   3.135   1.053   7.225  0.7529  1.0839 -3.2572
  183SOPE  C31020986   3.299   0.973   7.340  0.2306 -0.5033 -0.3683
  183SOPE  H10X20987   3.359   1.065   7.321  1.7332 -0.8111  2.4020
  183SOPE  H10Y20988   3.368   0.886   7.348 -0.7492 -1.3336 -0.8109
  183SOPE  C31120989   3.238   0.975   7.486 -0.7368 -0.2146  0.1702
  183SOPE  H11X20990   3.170   0.888   7.492 -1.5027  0.4341  1.2639
  183SOPE  H11Y20991   3.185   1.071   7.501 -0.2009  0.2620 -0.8902
  183SOPE  C31220992   3.348   0.975   7.600  0.0870  0.9161  0.0518
  183SOPE  H12X20993   3.422   1.057   7.588  5.1969 -2.5754  3.3013
  183SOPE  H12Y20994   3.411   0.886   7.581 -2.8684 -1.4868  0.6734
  183SOPE  C31320995   3.293   0.979   7.734  0.0364  0.7845 -0.6336
  183SOPE  H13X20996   3.219   0.899   7.753  0.4982  0.4041 -0.4491
  183SOPE  H13Y20997   3.249   1.082   7.736  0.6709  1.0690  1.8298
  183SOPE  C31420998   3.392   0.982   7.847 -0.4797 -0.7927 -0.3979
  183SOPE  H14X20999   3.460   1.069   7.830 -1.9178  0.5157  0.3966
  183SOPE  H14Y21000   3.449   0.886   7.851  0.5009 -0.1891  2.1205
  183SOPE  C31521001   3.325   1.001   7.985  0.4732 -0.4641 -0.0270
  183SOPE  H15X21002   3.254   0.918   8.001 -0.8068  1.0034  2.5158
  183SOPE  H15Y21003   3.267   1.096   7.986  3.2921  1.3867  0.2035
  183SOPE  C31621004   3.430   1.023   8.099  0.0931  0.4489  0.1401
  183SOPE  H16X21005   3.499   1.102   8.063 -0.9885  0.7095 -1.4598
  183SOPE  H16Y21006   3.480   0.924   8.109 -2.5279 -1.1095 -0.9527
  183SOPE  C31721007   3.364   1.064   8.233 -0.2122 -0.7335 -0.0554
  183SOPE  H17X21008   3.300   1.152   8.211  0.2096 -0.4813 -0.2951
  183SOPE  H17Y21009   3.444   1.099   8.301 -0.0152  0.9533 -1.1074
  183SOPE  C31821010   3.284   0.955   8.302 -0.3176 -0.8138 -0.5833
  183SOPE  H18X21011   3.342   0.861   8.293  1.8234  0.4460 -0.4792
  183SOPE  H18Y21012   3.179   0.958   8.265 -0.2782  1.0544 -0.6408
  183SOPE  H18Z21013   3.279   0.992   8.407 -0.6930  0.5313 -1.0523
  184SOPE     N21014   1.714   1.529   6.263 -0.4540 -0.0683 -0.3919
  184SOPE   HN121015   1.722   1.427   6.282 -0.1951 -0.2078 -1.2058
  184SOPE   HN221016   1.656   1.570   6.339 -2.7652  0.1130 -2.1784
  184SOPE   HN321017   1.667   1.532   6.171 -0.7083  1.8554 -0.2483
  184SOPE   C1221018   1.847   1.601   6.270  0.4286 -0.3127 -0.4495
  184SOPE  H12A21019   1.911   1.568   6.185  0.3504  0.4566 -0.8104
  184SOPE  H12B21020   1.894   1.562   6.363  2.6152 -0.1721 -1.4358
  184SOPE   C1121021   1.824   1.750   6.279  0.5654 -0.0485 -0.8770
  184SOPE  H11A21022   1.736   1.774   6.342 -0.5720  0.9992 -2.7676
  184SOPE  H11B21023   1.797   1.794   6.181 -0.8090  0.2412 -0.3868
  184SOPE     P21024   2.050   1.877   6.252  0.3724  0.2282 -0.2457
  184SOPE   O1321025   1.991   1.968   6.156  0.3961 -0.7660 -0.4166
  184SOPE   O1421026   2.130   1.761   6.197 -0.0993 -0.6060  0.0896
  184SOPE   O1221027   1.941   1.814   6.347  0.2228 -0.7323 -0.4105
  184SOPE   O1121028   2.138   1.954   6.352 -0.1228 -0.1489 -0.4474
  184SOPE    C121029   2.215   1.883   6.465  0.1099 -0.1149  0.2769
  184SOPE    HA21030   2.322   1.874   6.435  0.2176  2.8262 -0.5400
  184SOPE    HB21031   2.184   1.778   6.480 -0.1880 -0.0307  0.2601
  184SOPE    C221032   2.199   1.951   6.596  0.4233 -0.4100 -0.2642
  184SOPE    HS21033   2.245   1.893   6.678 -2.5396 -1.4284  0.8007
  184SOPE   O2121034   2.057   1.968   6.628 -0.3529  0.1526 -0.6820
  184SOPE   C2121035   1.996   1.864   6.685 -0.8133 -0.6075  0.1936
  184SOPE   O2221036   2.054   1.766   6.731  0.1931 -0.1062 -0.0410
  184SOPE   C2221037   1.843   1.895   6.706 -0.6916  0.5988 -0.3184
  184SOPE   H2R21038   1.792   1.850   6.618  1.5083  1.2054 -1.9886
  184SOPE   H2S21039   1.836   2.005   6.719  1.5570  0.5479  2.0376
  184SOPE    C321040   2.258   2.093   6.590 -0.3175 -1.1040 -0.9159
  184SOPE    HX21041   2.204   2.154   6.514 -0.5279  0.8898  0.7418
  184SOPE    HY21042   2.364   2.075   6.562  0.9547  1.2425  1.8627
  184SOPE   O3121043   2.264   2.155   6.726 -0.3847 -0.7146 -0.5001
  184SOPE   C3121044   2.172   2.240   6.752 -0.1339 -0.3608  0.5643
  184SOPE   O3221045   2.084   2.272   6.677 -0.1723 -0.0522  0.3820
  184SOPE   C3221046   2.207   2.309   6.879 -0.1846 -0.1343  0.3832
  184SOPE   H2X21047   2.193   2.419   6.871 -3.4131 -0.5093 -0.3573
  184SOPE   H2Y21048   2.316   2.302   6.899 -0.2732 -2.7746  0.3308
  184SOPE   C2321049   1.789   1.831   6.838 -0.2747  0.0546  0.3578
  184SOPE   H3R21050   1.816   1.723   6.829 -1.9182 -0.4525  1.0828
  184SOPE   H3S21051   1.678   1.837   6.845 -0.2309  1.4620  0.0624
  184SOPE   C2421052   1.837   1.894   6.974  0.4057  0.2294  0.7939
  184SOPE   H4R21053   1.946   1.911   6.979  0.4070  0.0284  1.4438
  184SOPE   H4S21054   1.787   1.994   6.975  0.7484  0.3970  1.3893
  184SOPE   C2521055   1.795   1.813   7.105  0.6280  0.0486  0.8144
  184SOPE   H5R21056   1.692   1.775   7.085 -0.3625  2.1304  1.5779
  184SOPE   H5S21057   1.859   1.722   7.110  0.4091 -0.2237 -0.8591
  184SOPE   C2621058   1.810   1.888   7.237  0.0838 -0.2270 -0.9307
  184SOPE   H6R21059   1.915   1.925   7.247 -0.1882  0.4475 -0.4766
  184SOPE   H6S21060   1.740   1.973   7.221  1.2159  1.0393  0.4170
  184SOPE   C2721061   1.785   1.798   7.361  0.2760 -0.2666  0.4299
  184SOPE   H7R21062   1.688   1.744   7.365 -0.5603  1.1795  0.6460
  184SOPE   H7S21063   1.862   1.718   7.361  1.7289  1.0698 -0.6093
  184SOPE   C2821064   1.808   1.889   7.490 -0.2818  0.6043  0.3525
  184SOPE   H8R21065   1.911   1.927   7.471 -0.6192  2.1461  1.3966
  184SOPE   H8S21066   1.738   1.975   7.491 -1.6496 -0.4755  1.1835
  184SOPE   C2921067   1.800   1.826   7.630 -0.2279 -1.0267  0.4209
  184SOPE   H9121068   1.881   1.755   7.650 -0.7761 -0.9077  3.6548
  184SOPE  C21021069   1.696   1.841   7.718 -0.2511 -0.6307 -0.1315
  184SOPE  H10121070   1.694   1.795   7.818  1.2413 -1.7283 -0.5584
  184SOPE  C21121071   1.581   1.930   7.698  0.1489  0.0783 -0.2263
  184SOPE  H11R21072   1.579   1.986   7.602 -0.7722  2.2119  0.9756
  184SOPE  H11S21073   1.589   2.002   7.782  0.1076 -0.7410  0.4993
  184SOPE  C21221074   1.444   1.852   7.694 -0.2543 -0.4609  0.5295
  184SOPE  H12R21075   1.442   1.770   7.618 -1.0063  1.2716 -1.4154
  184SOPE  H12S21076   1.367   1.923   7.658  0.3203 -1.2164 -2.4892
  184SOPE  C21321077   1.414   1.790   7.831  0.0714  0.3770 -0.1507
  184SOPE  H13R21078   1.461   1.855   7.908  1.4646 -0.2620 -0.4401
  184SOPE  H13S21079   1.469   1.694   7.831 -0.7001 -0.2253  3.6452
  184SOPE  C21421080   1.263   1.791   7.852 -0.2894 -0.2191 -0.2048
  184SOPE  H14R21081   1.217   1.702   7.803 -0.2683 -0.5818  0.4300
  184SOPE  H14S21082   1.228   1.887   7.808  1.2709  0.6664  0.4128
  184SOPE  C21521083   1.227   1.790   7.999 -0.3346  0.1684  0.6920
  184SOPE  H15R21084   1.289   1.866   8.053  3.5505 -1.7559 -0.6584
  184SOPE  H15S21085   1.263   1.697   8.049 -2.0264 -0.8759  0.0321
  184SOPE  C21621086   1.079   1.807   8.018  0.2486  0.6822 -0.1773
  184SOPE  H16R21087   1.019   1.719   7.985  2.5657 -0.7046 -0.9653
  184SOPE  H16S21088   1.049   1.905   7.977  1.0601  1.4212  0.9597
  184SOPE  C21721089   1.064   1.833   8.167 -0.2442  0.2840 -0.0047
  184SOPE  H17R21090   1.136   1.908   8.205 -0.3103  0.1997  0.2887
  184SOPE  H17S21091   1.101   1.736   8.205 -0.7879 -0.4235 -1.1962
  184SOPE  C21821092   0.927   1.869   8.220  0.0090  0.6038  0.1247
  184SOPE  H18R21093   0.840   1.811   8.184 -0.0073  0.7926 -0.1467
  184SOPE  H18S21094   0.900   1.976   8.202  1.8360  0.8182 -1.6202
  184SOPE  H18T21095   0.933   1.861   8.331  0.3288  0.3204  0.0880
  184SOPE   C3321096   2.115   2.249   6.991  0.0960 -0.0552 -0.7744
  184SOPE   H3X21097   2.131   2.139   6.994  0.6369  0.0391  1.2407
  184SOPE   H3Y21098   2.006   2.265   6.974 -0.3141 -2.1334 -0.4453
  184SOPE   C3421099   2.149   2.288   7.141 -0.7113 -0.5138  0.2297
  184SOPE   H4X21100   2.056   2.274   7.200 -0.6431  1.9203  0.9875
  184SOPE   H4Y21101   2.180   2.393   7.125  0.5384  0.0733  4.9182
  184SOPE   C3521102   2.273   2.215   7.199 -0.1938  0.3651  0.6160
  184SOPE   H5X21103   2.366   2.252   7.149 -0.7625  0.7083 -0.2093
  184SOPE   H5Y21104   2.260   2.106   7.181 -1.8638  0.5579  0.5131
  184SOPE   C3621105   2.292   2.232   7.353 -0.4544 -0.0695  0.0270
  184SOPE   H6X21106   2.301   2.340   7.372 -0.4921  0.0407 -0.5448
  184SOPE   H6Y21107   2.380   2.175   7.389 -1.3969 -1.6330 -0.0510
  184SOPE   C3721108   2.168   2.189   7.423 -0.4352  0.7208 -0.1079
  184SOPE   H7X21109   2.159   2.088   7.379  3.5363  0.4748 -0.7313
  184SOPE   H7Y21110   2.070   2.235   7.396 -1.2719 -0.4060  0.8862
  184SOPE   C3821111   2.185   2.168   7.572 -0.0206  0.3569  0.5363
  184SOPE   H8X21112   2.113   2.221   7.638  0.0114 -0.2651  1.0808
  184SOPE   H8Y21113   2.285   2.201   7.606  0.6470 -0.2004 -0.7977
  184SOPE   C3921114   2.177   2.016   7.611  0.9309 -0.2958 -0.3881
  184SOPE   H9X21115   2.192   1.939   7.532 -0.3041 -1.2992  0.3077
  184SOPE   H9Y21116   2.072   1.992   7.640  0.8026  0.6317 -0.0573
  184SOPE  C31021117   2.265   1.992   7.739 -0.5526 -0.2992  1.3839
  184SOPE  H10X21118   2.367   2.028   7.711 -0.7883 -0.9699 -0.4053
  184SOPE  H10Y21119   2.278   1.885   7.765  2.6987  0.1551  2.0750
  184SOPE  C31121120   2.220   2.056   7.865  0.5090 -0.7096  0.0097
  184SOPE  H11X21121   2.137   1.991   7.900  1.4097 -2.8525 -1.5851
  184SOPE  H11Y21122   2.186   2.160   7.848 -1.7045 -1.3277  0.3137
  184SOPE  C31221123   2.328   2.064   7.969  0.0099 -0.6613 -0.1520
  184SOPE  H12X21124   2.405   2.132   7.926 -0.6249  0.5196  0.5402
  184SOPE  H12Y21125   2.375   1.964   7.981 -1.5730 -1.1024  3.8455
  184SOPE  C31321126   2.279   2.127   8.100  0.7298 -0.7278 -0.5994
  184SOPE  H13X21127   2.238   2.230   8.086 -0.5516 -1.1594 -0.1128
  184SOPE  H13Y21128   2.368   2.141   8.165 -0.2006  1.7159  0.2723
  184SOPE  C31421129   2.167   2.051   8.171  0.3716 -0.9075  0.2229
  184SOPE  H14X21130   2.156   1.955   8.117 -2.8559 -2.0331  2.5706
  184SOPE  H14Y21131   2.069   2.097   8.146  1.4614  0.8737 -0.9858
  184SOPE  C31521132   2.183   2.016   8.321 -0.1038 -0.0896  0.8935
  184SOPE  H15X21133   2.265   1.947   8.349  0.8968  0.2816 -0.9465
  184SOPE  H15Y21134   2.089   1.963   8.349 -0.7593  0.8822  0.6138
  184SOPE  C31621135   2.185   2.136   8.418  0.7647  0.0486  0.3441
  184SOPE  H16X21136   2.256   2.208   8.373 -0.2519  0.8496 -0.0276
  184SOPE  H16Y21137   2.226   2.086   8.508  0.6829  0.1274  0.4264
  184SOPE  C31721138   2.051   2.198   8.436  0.4068 -0.7110 -0.5170
  184SOPE  H17X21139   1.979   2.118   8.466 -1.0535 -0.7047 -3.6013
  184SOPE  H17Y21140   2.021   2.233   8.335 -2.9645  3.3850  1.5770
  184SOPE  C31821141   2.058   2.319   8.532  0.0491  0.2374  0.5625
  184SOPE  H18X21142   1.958   2.367   8.527 -0.4006 -0.3363  2.8187
  184SOPE  H18Y21143   2.142   2.382   8.498 -0.7043  0.0010 -1.9687
  184SOPE  H18Z21144   2.065   2.281   8.636 -1.0869 -3.9246 -0.6502
  185SAPI   C1221145   0.059   0.121  11.143  0.4992  0.0238  0.1170
  185SAPI    H221146  -0.028   0.085  11.085 -0.7068 -0.3853  2.0755
  185SAPI    O221147   0.013   0.133  11.280 -0.1067 -0.2949  0.0095
  185SAPI   HO221148  -0.010   0.226  11.283  3.1371  0.5888  0.7602
  185SAPI   C1321149   0.177   0.024  11.136  0.0662  0.3003 -0.9212
  185SAPI    H321150   0.228   0.005  11.039 -1.2224 -0.6025 -1.4593
  185SAPI    O321151   0.131  -0.103  11.167 -0.0960  0.2933  0.2463
  185SAPI   HO321152   0.189  -0.159  11.116 -0.2986 -0.7542  1.1219
  185SAPI   C1421153   0.296   0.070  11.224  0.0324  0.2496 -0.2978
  185SAPI    H421154   0.250   0.088  11.324  0.1293  0.6813 -0.3305
  185SAPI    O421155   0.414  -0.022  11.239  0.2149  0.2031 -0.0331
  185SAPI   HO421156   0.380  -0.111  11.234 -0.4235  0.3828  0.7405
  185SAPI   C1521157   0.344   0.204  11.174  0.0599 -0.0375  0.3565
  185SAPI    H521158   0.364   0.177  11.068 -0.3698 -0.9131  0.4891
  185SAPI    O521159   0.464   0.260  11.242  0.0990  0.2376  0.1790
  185SAPI   HO521160   0.485   0.202  11.316 -1.0415 -0.5069 -0.0495
  185SAPI   C1621161   0.226   0.295  11.181  0.3836  0.0476 -0.1172
  185SAPI    H621162   0.198   0.304  11.289  2.2243  2.3061  0.2456
  185SAPI    O621163   0.258   0.428  11.140  0.0347 -0.1759 -0.0681
  185SAPI   HO621164   0.191   0.485  11.178 -1.6082  0.6931 -3.8422
  185SAPI   C1121165   0.109   0.254  11.094 -0.0744  0.3308 -0.0190
  185SAPI    H121166   0.142   0.244  10.989  0.6760 -1.1742  0.3344
  185SAPI     P21167  -0.102   0.374  10.987 -0.0822  0.1794 -0.0340
  185SAPI   O1321168  -0.184   0.495  11.006  0.5127 -0.1404  0.3651
  185SAPI   O1421169  -0.171   0.244  10.967 -1.0109  0.2193 -0.1556
  185SAPI   O1221170   0.008   0.349  11.107 -0.3019  0.1342  0.6803
  185SAPI   O1121171  -0.020   0.390  10.858 -0.2407 -0.2956  0.3307
  185SAPI    C121172   0.095   0.477  10.842 -0.8837  0.5201 -0.2981
  185SAPI    HA21173   0.088   0.570  10.902  0.4478  0.2574  0.2946
  185SAPI    HB21174   0.189   0.427  10.873 -1.9680 -0.8568  0.8802
  185SAPI    C221175   0.115   0.518  10.696 -0.1660 -0.1673 -0.4709
  185SAPI    HS21176   0.035   0.592  10.675  1.5594  2.0110  0.1873
  185SAPI   O2121177   0.096   0.405  10.603  0.3015 -0.0012 -0.4258
  185SAPI   C2121178  -0.023   0.382  10.556  0.8688  0.5570 -0.2139
  185SAPI   O2221179  -0.121   0.450  10.572 -0.3696 -0.4189 -0.3061
  185SAPI   C2221180  -0.013   0.265  10.467 -0.2322  0.3166 -0.4976
  185SAPI   H2R21181   0.089   0.220  10.465 -0.1941  0.4088 -0.6466
  185SAPI   H2S21182  -0.059   0.177  10.516 -0.2795 -0.2291 -1.4912
  185SAPI    C321183   0.253   0.582  10.677  0.5267  0.4569  0.3327
  185SAPI    HX21184   0.323   0.495  10.679  0.1904  0.1569  2.6187
  185SAPI    HY21185   0.300   0.652  10.750  2.1925 -0.2846  0.0293
  185SAPI   O3121186   0.266   0.637  10.545 -0.3090  0.1980 -0.3175
  185SAPI   C3121187   0.201   0.750  10.538  0.6076  0.6088  0.3055
  185SAPI   O3221188   0.157   0.821  10.629 -0.0679 -0.0399 -0.3594
  185SAPI   C3221189   0.185   0.794  10.394 -0.1452  0.1575 -0.0300
  185SAPI   H2X21190   0.289   0.787  10.357  0.4877  1.0806  1.4649
  185SAPI   H2Y21191   0.155   0.900  10.384 -0.7254 -0.0572 -0.5905
  185SAPI   C2321192  -0.076   0.288  10.330 -0.5334  0.6756  0.6679
  185SAPI   H3R21193  -0.075   0.398  10.311 -1.7467  0.3768 -1.4360
  185SAPI   H3S21194  -0.180   0.249  10.318  0.5930 -2.1078 -0.8159
  185SAPI   C2421195   0.013   0.246  10.209 -0.2947 -0.2098  0.5799
  185SAPI   H4R21196   0.108   0.299  10.232  0.1061 -0.4228 -0.5050
  185SAPI   H4S21197  -0.037   0.290  10.120  0.4202  1.6921  1.0656
  185SAPI   C2521198   0.043   0.097  10.205  0.0761 -0.7880 -0.1584
  185SAPI   H5R21199   0.084   0.059  10.300  1.5256  0.3333 -0.2891
  185SAPI   C2621200   0.022   0.012  10.102 -1.2705 -0.1401 -0.2345
  185SAPI   H6R21201   0.055  -0.093  10.113  0.3860  0.3735 -0.0190
  185SAPI   C2721202  -0.031   0.038   9.967 -0.3255  0.3468 -0.2895
  185SAPI   H7R21203  -0.062   0.144   9.957  1.5757  1.2150  2.0907
  185SAPI   H7S21204  -0.118  -0.027   9.945 -0.9868  0.6596  1.3005
  185SAPI   C2821205   0.075   0.012   9.856  0.9300  0.9080  0.4543
  185SAPI   H8R21206   0.178  -0.018   9.882  0.9323  1.2214  0.8148
  185SAPI   C2921207   0.051  -0.005   9.728 -0.2236  0.2350  0.0404
  185SAPI   H9R21208   0.135  -0.011   9.657 -0.6712 -0.2826 -0.4479
  185SAPI  C21021209  -0.083   0.008   9.662 -0.0885 -0.2649 -0.4706
  185SAPI  H10R21210  -0.093   0.103   9.605 -0.1057  0.1833  0.2603
  185SAPI  H10S21211  -0.170   0.012   9.732  0.3443 -0.8026  0.1153
  185SAPI  C21121212  -0.105  -0.113   9.579  0.1907  0.2245 -0.3916
  185SAPI  H11R21213  -0.157  -0.193   9.634  0.7874  0.6116  0.7609
  185SAPI  C21221214  -0.070  -0.139   9.452 -0.2487 -0.0079 -0.2310
  185SAPI  H12R21215  -0.096  -0.242   9.424 -2.1447 -0.3519  2.3615
  185SAPI  C21321216  -0.002  -0.039   9.361 -0.4097  0.9631  0.6415
  185SAPI  H13R21217   0.059   0.031   9.422 -0.5136  1.1685  0.5119
  185SAPI  H13S21218  -0.069   0.014   9.290 -0.5733 -1.9239 -1.5320
  185SAPI  C21421219   0.082  -0.120   9.264  0.2786  0.7102  0.0379
  185SAPI  H14R21220   0.044  -0.188   9.187  0.2433  2.8262 -1.8968
  185SAPI  C21521221   0.207  -0.099   9.241 -0.1449 -0.1346  0.2123
  185SAPI  H15R21222   0.256  -0.166   9.168 -0.4277 -0.4886  0.3474
  185SAPI  C21621223   0.296   0.009   9.300 -1.0736  0.4491 -0.2333
  185SAPI  H16R21224   0.394  -0.030   9.335 -1.1713  1.6476  1.4992
  185SAPI  H16S21225   0.262   0.054   9.396  2.1017  2.8553 -0.0743
  185SAPI  C21721226   0.333   0.122   9.201  0.0653 -0.5227  0.4538
  185SAPI  H17R21227   0.390   0.199   9.257 -1.7148  0.9626  0.3240
  185SAPI  H17S21228   0.251   0.179   9.153  0.2946 -2.6553 -2.7763
  185SAPI  C21821229   0.410   0.073   9.071  0.3932 -0.0803 -0.2431
  185SAPI  H18R21230   0.334   0.013   9.017 -0.4993  1.3508 -0.6370
  185SAPI  H18S21231   0.497   0.012   9.105  0.0311 -0.0511  0.7621
  185SAPI  C21921232   0.459   0.193   8.984  0.0226 -0.6554  0.5232
  185SAPI  H19R21233   0.529   0.265   9.031 -0.1353  2.0209 -2.9277
  185SAPI  H19S21234   0.372   0.260   8.969  1.1106  1.2450  2.1487
  185SAPI  C22021235   0.510   0.144   8.845  0.0489  0.4314  0.0432
  185SAPI  H20R21236   0.529   0.232   8.779  1.3127  1.3340  1.5332
  185SAPI  H20S21237   0.431   0.082   8.798  0.8911  1.0478 -2.3155
  185SAPI  H20T21238   0.610   0.097   8.858  1.5962  3.0444 -1.4559
  185SAPI   C3321239   0.088   0.697  10.318 -0.1344 -0.0906  0.3046
  185SAPI   H3X21240  -0.002   0.674  10.379 -1.0730 -0.0029 -1.0052
  185SAPI   H3Y21241   0.138   0.600  10.301  1.4467 -0.0459  3.7770
  185SAPI   C3421242   0.038   0.754  10.179 -0.0864 -0.0236  0.4754
  185SAPI   H4X21243   0.117   0.745  10.102  0.2437  0.0495  0.8017
  185SAPI   H4Y21244   0.035   0.863  10.200  1.9526  0.0291  0.6790
  185SAPI   C3521245  -0.090   0.686  10.124 -0.0472 -0.7861 -0.7464
  185SAPI   H5X21246  -0.167   0.705  10.203 -0.4102  1.5602 -1.5746
  185SAPI   H5Y21247  -0.071   0.578  10.107  1.4797 -0.5689 -0.5478
  185SAPI   C3621248  -0.138   0.746   9.992 -0.1717  0.3058 -0.2424
  185SAPI   H6X21249  -0.117   0.854  10.005  1.7720 -0.1604  0.8991
  185SAPI   H6Y21250  -0.246   0.726   9.973 -0.5929  1.5417  0.6429
  185SAPI   C3721251  -0.055   0.706   9.875  0.0858  0.8084  0.5627
  185SAPI   H7X21252  -0.064   0.598   9.851 -1.8111  0.6597  1.7855
  185SAPI   H7Y21253   0.053   0.723   9.897  0.9121 -1.9309 -0.9206
  185SAPI   C3821254  -0.091   0.788   9.754 -0.5203 -0.8672 -0.8932
  185SAPI   H8X21255  -0.082   0.897   9.771 -0.9966 -1.0556  0.8108
  185SAPI   H8Y21256  -0.200   0.781   9.737 -0.9923 -1.6700  1.9454
  185SAPI   C3921257  -0.014   0.744   9.630 -0.4554 -0.4417  0.6030
  185SAPI   H9X21258  -0.037   0.641   9.595 -1.3229  0.0069 -0.2017
  185SAPI   H9Y21259   0.093   0.741   9.658 -0.6697 -0.1500  1.4910
  185SAPI  C31021260  -0.043   0.838   9.509  0.0318  0.3082 -0.2101
  185SAPI  H10X21261   0.046   0.855   9.445 -0.9224 -0.3126 -1.7627
  185SAPI  H10Y21262  -0.069   0.938   9.549 -2.0791 -0.0102 -0.6549
  185SAPI  C31121263  -0.154   0.793   9.425  0.4459  0.3951  0.5803
  185SAPI  H11X21264  -0.258   0.805   9.464  0.1694 -1.1332  0.3921
  185SAPI  H11Y21265  -0.140   0.685   9.404 -2.3937  0.1853 -0.6092
  185SAPI  C31221266  -0.149   0.867   9.286 -0.5619  0.0952 -0.9186
  185SAPI  H12X21267  -0.053   0.844   9.235 -0.9919 -0.7546 -1.3612
  185SAPI  H12Y21268  -0.167   0.973   9.315 -1.8997 -0.5103  0.6825
  185SAPI  C31321269  -0.258   0.823   9.186 -0.1670  0.2166  0.4929
  185SAPI  H13X21270  -0.353   0.843   9.240 -1.3132 -1.3225 -0.8769
  185SAPI  H13Y21271  -0.245   0.719   9.152  0.4743  0.3708  0.2487
  185SAPI  C31421272  -0.266   0.907   9.057 -0.2770 -0.1957 -0.3998
  185SAPI  H14X21273  -0.160   0.918   9.027 -0.3129  2.1373  0.0931
  185SAPI  H14Y21274  -0.306   1.009   9.077  1.9646  0.6205  0.1673
  185SAPI  C31521275  -0.337   0.827   8.941 -0.5965 -0.5750 -0.4829
  185SAPI  H15X21276  -0.433   0.791   8.984  0.4981 -1.9294  0.9659
  185SAPI  H15Y21277  -0.265   0.752   8.902  2.2104  1.5134  0.3010
  185SAPI  C31621278  -0.369   0.911   8.821 -0.1402  0.1369 -0.0703
  185SAPI  H16X21279  -0.390   0.838   8.740 -0.9387 -1.3643  1.4142
  185SAPI  H16Y21280  -0.275   0.966   8.797 -0.5150  0.4714 -0.7959
  185SAPI  C31721281  -0.490   1.011   8.837 -0.2261  0.1090  0.1434
  185SAPI  H17X21282  -0.487   1.087   8.756 -0.6270  0.7471  0.7103
  185SAPI  H17Y21283  -0.479   1.067   8.933  1.5836  0.0663 -0.0060
  185SAPI  C31821284  -0.634   0.949   8.835 -0.4228 -0.2112  0.1021
  185SAPI  H18X21285  -0.710   1.024   8.864 -0.9468 -0.8385  0.3723
  185SAPI  H18Y21286  -0.636   0.872   8.915 -0.3955 -1.1298 -0.7512
  185SAPI  H18Z21287  -0.669   0.898   8.742 -1.7791 -0.5516  0.7775
  186SAPI   C1221288   6.362   3.369  11.320  0.3902  0.4767  0.0491
  186SAPI    H221289   6.263   3.325  11.294  0.1138  0.5771  0.8985
  186SAPI    O221290   6.343   3.455  11.428 -0.5178 -0.0170 -0.0347
  186SAPI   HO221291   6.363   3.545  11.401 -0.1263 -0.6861 -2.1329
  186SAPI   C1321292   6.449   3.251  11.348  0.2668  0.4024  0.4541
  186SAPI    H321293   6.449   3.184  11.260  3.6632 -0.4184  0.9280
  186SAPI    O321294   6.404   3.178  11.468  0.4563  0.6171 -0.2879
  186SAPI   HO321295   6.387   3.250  11.530 -0.5082  1.1770 -1.1792
  186SAPI   C1421296   6.594   3.292  11.378  0.5423  0.3367 -0.2386
  186SAPI    H421297   6.585   3.352  11.471 -2.7787  0.4251 -0.4919
  186SAPI    O421298   6.675   3.178  11.407  0.5419  0.7672 -0.3058
  186SAPI   HO421299   6.647   3.156  11.496  0.8920  2.0557  0.1506
  186SAPI   C1521300   6.660   3.383  11.272 -0.5128  0.0435 -0.0371
  186SAPI    H521301   6.680   3.313  11.188 -1.2100  1.4116 -1.3952
  186SAPI    O521302   6.783   3.439  11.312  0.3859 -0.3580  0.0131
  186SAPI   HO521303   6.840   3.429  11.235  1.0215 -0.6011  0.5092
  186SAPI   C1621304   6.559   3.492  11.229  0.0365  0.1054  0.2624
  186SAPI    H621305   6.559   3.565  11.313  0.2936 -0.8802  1.1549
  186SAPI    O621306   6.610   3.552  11.115 -0.1409 -0.1535 -0.0431
  186SAPI   HO621307   6.534   3.557  11.057 -0.9726  0.5677  1.0596
  186SAPI   C1121308   6.418   3.445  11.200  0.0524 -0.4193  0.5139
  186SAPI    H121309   6.417   3.376  11.113  1.7437  2.1579 -1.7091
  186SAPI     P21310   6.269   3.577  11.022 -0.3904  0.0475 -0.0781
  186SAPI   O1321311   6.197   3.705  11.015 -0.3080 -0.2239  0.0341
  186SAPI   O1421312   6.194   3.450  10.986  0.3992 -1.2462  0.7273
  186SAPI   O1221313   6.326   3.558  11.172  0.7351  0.7814  0.2134
  186SAPI   O1121314   6.413   3.590  10.948 -0.3039  0.5446 -0.2843
  186SAPI    C121315   6.446   3.679  10.849  0.1438 -0.6259 -0.2219
  186SAPI    HA21316   6.395   3.777  10.862  0.9314 -0.0006 -1.6812
  186SAPI    HB21317   6.556   3.671  10.852  0.2247 -0.6990 -2.2485
  186SAPI    C221318   6.412   3.625  10.708 -0.2018 -0.3085 -0.7690
  186SAPI    HS21319   6.459   3.691  10.632 -0.3172  0.4560 -0.1904
  186SAPI   O2121320   6.266   3.634  10.696 -0.4695  0.0503  0.6772
  186SAPI   C2121321   6.227   3.625  10.573 -0.0525  0.0334  0.6130
  186SAPI   O2221322   6.292   3.647  10.471  0.3477 -0.3948  0.1460
  186SAPI   C2221323   6.084   3.572  10.568  0.1223 -0.7842 -0.6516
  186SAPI   H2R21324   6.079   3.478  10.626  0.3281 -0.1599  0.4224
  186SAPI   H2S21325   6.019   3.646  10.619  0.3756 -0.8827 -0.1789
  186SAPI    C321326   6.448   3.476  10.690 -0.2437  0.8618  0.1541
  186SAPI    HX21327   6.408   3.414  10.773  0.6667 -0.9210 -0.7007
  186SAPI    HY21328   6.558   3.468  10.705 -0.0230  0.6848 -1.3860
  186SAPI   O3121329   6.417   3.409  10.572  0.2133  0.1316  0.6648
  186SAPI   C3121330   6.488   3.425  10.462 -0.0468  0.0722  0.0914
  186SAPI   O3221331   6.587   3.493  10.454 -0.7030  0.2447  0.5851
  186SAPI   C3221332   6.428   3.329  10.359  0.4257  0.2585  0.2728
  186SAPI   H2X21333   6.324   3.365  10.349  0.3379  0.3572  1.4399
  186SAPI   H2Y21334   6.434   3.224  10.394 -0.1807  1.0457  2.9451
  186SAPI   C2321335   6.023   3.556  10.428  0.4860  0.4837  0.5739
  186SAPI   H3R21336   6.091   3.495  10.365  1.4588  0.1704  1.8872
  186SAPI   H3S21337   6.016   3.657  10.382 -0.0077 -0.5503 -1.8040
  186SAPI   C2421338   5.880   3.500  10.419 -0.2613  0.3135 -0.5017
  186SAPI   H4R21339   5.821   3.525  10.328 -1.8169  0.0844  0.4011
  186SAPI   H4S21340   5.823   3.553  10.498 -1.2595  0.2348 -1.1575
  186SAPI   C2521341   5.865   3.353  10.451  0.4122 -0.1688 -0.3798
  186SAPI   H5R21342   5.870   3.320  10.556 -2.7330  0.4878  0.0655
  186SAPI   C2621343   5.877   3.251  10.359 -0.5335  0.1298  1.0368
  186SAPI   H6R21344   5.881   3.144  10.386  0.6669  0.5426  2.6537
  186SAPI   C2721345   5.914   3.271  10.213 -0.0462  0.5326  0.4253
  186SAPI   H7R21346   6.005   3.218  10.177 -0.0082  1.1503 -0.4409
  186SAPI   H7S21347   5.931   3.378  10.190  1.5626  0.0492 -0.8503
  186SAPI   C2821348   5.787   3.230  10.131 -0.0914 -0.4952 -0.6622
  186SAPI   H8R21349   5.693   3.254  10.184  0.9748  1.1038  0.6063
  186SAPI   C2921350   5.788   3.165  10.009  0.5011  0.3338 -0.2862
  186SAPI   H9R21351   5.694   3.140   9.957  0.0115 -0.5838  1.0041
  186SAPI  C21021352   5.913   3.132   9.936 -0.6900  0.4505 -0.3756
  186SAPI  H10R21353   5.966   3.048   9.986  1.9234  0.5677 -2.7124
  186SAPI  H10S21354   5.990   3.211   9.954  1.0603 -1.1297 -0.5713
  186SAPI  C21121355   5.914   3.099   9.789  0.2230 -0.0336 -0.7885
  186SAPI  H11R21356   5.953   3.177   9.723 -1.8195  0.8932 -0.9869
  186SAPI  C21221357   5.873   2.982   9.739 -0.8176 -0.5373 -0.0194
  186SAPI  H12R21358   5.870   2.970   9.630 -1.3788 -1.0763  0.0515
  186SAPI  C21321359   5.831   2.862   9.819  0.0712  0.3399  0.1334
  186SAPI  H13R21360   5.731   2.879   9.865  1.0942  2.4308  1.7735
  186SAPI  H13S21361   5.898   2.866   9.907  2.4958  0.7761 -1.6496
  186SAPI  C21421362   5.850   2.722   9.750 -0.0742 -0.6119 -0.2629
  186SAPI  H14R21363   5.870   2.726   9.642 -1.5351 -1.6869 -0.6002
  186SAPI  C21521364   5.849   2.604   9.809 -0.3936  0.3224  0.2578
  186SAPI  H15R21365   5.883   2.517   9.751 -0.9624 -0.7547  1.4922
  186SAPI  C21621366   5.831   2.589   9.960 -0.7063 -0.0878  0.6623
  186SAPI  H16R21367   5.926   2.612  10.013 -0.1450 -0.2005 -0.2700
  186SAPI  H16S21368   5.834   2.479   9.976 -1.5715 -0.0291  1.2555
  186SAPI  C21721369   5.695   2.629  10.023  0.7647  0.1535 -0.4211
  186SAPI  H17R21370   5.623   2.565   9.967  0.2586  1.1776 -0.9587
  186SAPI  H17S21371   5.680   2.738  10.014  1.9729  0.7122  2.9382
  186SAPI  C21821372   5.672   2.594  10.170 -0.2288 -0.0915 -0.1371
  186SAPI  H18R21373   5.717   2.496  10.197 -1.2045 -0.2104  1.1191
  186SAPI  H18S21374   5.564   2.585  10.193 -0.7733 -0.6920 -2.5762
  186SAPI  C21921375   5.724   2.706  10.267  0.1210  0.3837 -0.0557
  186SAPI  H19R21376   5.691   2.804  10.228  0.3783  1.1525  1.5624
  186SAPI  H19S21377   5.835   2.705  10.263  0.0767 -0.6974 -1.8853
  186SAPI  C22021378   5.661   2.693  10.410  0.3342  0.5916 -0.1594
  186SAPI  H20R21379   5.683   2.592  10.452  4.3801  0.6212 -1.7039
  186SAPI  H20S21380   5.552   2.707  10.396  0.3363  0.1438 -0.6694
  186SAPI  H20T21381   5.699   2.773  10.477  2.4159  0.7314 -1.4131
  186SAPI   C3321382   6.481   3.351  10.218 -0.1178 -0.0638 -0.0460
  186SAPI   H3X21383   6.588   3.320  10.214  0.2772  1.1221  0.9236
  186SAPI   H3Y21384   6.481   3.461  10.206 -0.8154 -0.1336 -0.7624
  186SAPI   C3421385   6.398   3.299  10.094  0.2024  0.2890  1.1476
  186SAPI   H4X21386   6.308   3.364  10.097  0.3085  0.4183  1.6605
  186SAPI   H4Y21387   6.365   3.195  10.117  0.7791 -0.3243 -0.6603
  186SAPI   C3521388   6.471   3.289   9.961 -0.4527  0.1570  0.1713
  186SAPI   H5X21389   6.522   3.190   9.968 -2.6967 -0.9538  2.6073
  186SAPI   H5Y21390   6.551   3.365   9.944  1.3790 -2.1178 -2.2528
  186SAPI   C3621391   6.371   3.279   9.843  0.0872 -0.7354 -0.4799
  186SAPI   H6X21392   6.323   3.380   9.839 -1.3132 -1.3898 -1.0910
  186SAPI   H6Y21393   6.286   3.210   9.862 -1.5238  1.1897 -0.3093
  186SAPI   C3721394   6.449   3.238   9.711  0.0682 -0.0266 -0.4024
  186SAPI   H7X21395   6.493   3.137   9.723  1.0492  0.5226  0.8914
  186SAPI   H7Y21396   6.536   3.307   9.709  0.0082  0.0707 -3.1704
  186SAPI   C3821397   6.373   3.265   9.581  0.4085 -0.2015  0.7983
  186SAPI   H8X21398   6.448   3.277   9.499 -0.5315 -1.4739 -0.2828
  186SAPI   H8Y21399   6.314   3.359   9.588 -1.4360 -1.4223  2.4549
  186SAPI   C3921400   6.268   3.155   9.547  0.2935 -0.4624  0.3589
  186SAPI   H9X21401   6.194   3.150   9.631 -0.1737 -1.6755 -0.1098
  186SAPI   H9Y21402   6.323   3.059   9.538  3.1464  0.8390  2.3347
  186SAPI  C31021403   6.185   3.178   9.419  0.0098  0.6296  0.1143
  186SAPI  H10X21404   6.256   3.159   9.336  1.0704  0.4868  1.0307
  186SAPI  H10Y21405   6.163   3.286   9.408  1.1099  0.7011 -1.8198
  186SAPI  C31121406   6.057   3.099   9.387  0.1783  0.4758 -0.3947
  186SAPI  H11X21407   6.008   3.113   9.289  1.4691  1.8082 -0.8985
  186SAPI  H11Y21408   5.985   3.117   9.469 -1.7431  2.1052 -2.3511
  186SAPI  C31221409   6.071   2.945   9.379  0.3886  0.0136  1.4652
  186SAPI  H12X21410   5.982   2.885   9.351  1.5318 -1.6987  1.3193
  186SAPI  H12Y21411   6.103   2.915   9.481  2.1034 -2.0881  0.3882
  186SAPI  C31321412   6.195   2.909   9.287 -0.7440 -0.0172  0.3830
  186SAPI  H13X21413   6.288   2.939   9.340  0.6367 -0.6617 -1.5552
  186SAPI  H13Y21414   6.183   2.964   9.191  2.9614  0.4929  0.0631
  186SAPI  C31421415   6.196   2.767   9.240 -0.7849  0.0633  0.2400
  186SAPI  H14X21416   6.099   2.744   9.190 -0.3727 -0.0524 -0.5115
  186SAPI  H14Y21417   6.182   2.702   9.330  0.6081  1.0693  1.2147
  186SAPI  C31521418   6.317   2.731   9.150 -0.1053 -0.1927 -0.5241
  186SAPI  H15X21419   6.322   2.620   9.142 -0.7991 -0.1858 -1.2232
  186SAPI  H15Y21420   6.407   2.758   9.209 -1.8402  1.3638  1.6004
  186SAPI  C31621421   6.313   2.802   9.014 -0.5251  0.3678  0.2257
  186SAPI  H16X21422   6.300   2.912   9.012  1.2890  0.6134 -1.6705
  186SAPI  H16Y21423   6.231   2.764   8.951  0.1016  1.3789 -1.2528
  186SAPI  C31721424   6.437   2.761   8.931  0.3848 -0.4528 -0.0052
  186SAPI  H17X21425   6.465   2.654   8.937 -0.7664 -0.6712  3.2894
  186SAPI  H17Y21426   6.521   2.819   8.974  0.1361  1.7215 -2.2594
  186SAPI  C31821427   6.425   2.813   8.784 -0.0394  0.3946 -0.0458
  186SAPI  H18X21428   6.368   2.908   8.769  0.8089  0.7455 -1.2070
  186SAPI  H18Y21429   6.373   2.739   8.720 -1.3112  0.7624  0.5281
  186SAPI  H18Z21430   6.523   2.847   8.744  1.0783 -0.6963  1.6258
  187SAPI   C1221431   4.276   4.673   6.448  0.1358 -0.0199  0.1577
  187SAPI    H221432   4.286   4.616   6.543 -1.7705 -0.5388  0.0946
  187SAPI    O221433   4.172   4.765   6.475  0.1452  0.3131 -0.3453
  187SAPI   HO221434   4.093   4.711   6.487 -0.4394  1.4896  1.6982
  187SAPI   C1321435   4.409   4.748   6.423 -0.2652 -0.2175  0.8487
  187SAPI    H321436   4.481   4.670   6.389 -1.1670 -1.0635  0.8563
  187SAPI    O321437   4.464   4.812   6.533 -0.1201  0.3296 -0.0949
  187SAPI   HO321438   4.559   4.802   6.544 -0.3193  0.0365  1.7932
  187SAPI   C1421439   4.401   4.835   6.303  0.0136  0.4669  0.4010
  187SAPI    H421440   4.319   4.909   6.312  0.9997  2.0900 -2.7048
  187SAPI    O421441   4.517   4.927   6.292  0.3278 -0.4507 -0.1911
  187SAPI   HO421442   4.590   4.880   6.252  0.0685  1.2014 -2.8930
  187SAPI   C1521443   4.363   4.755   6.181  0.1221 -0.4322  0.2214
  187SAPI    H521444   4.439   4.679   6.152  1.9294  0.2933  2.7783
  187SAPI    O521445   4.355   4.838   6.064  0.2214  0.2817  0.3812
  187SAPI   HO521446   4.423   4.826   5.998 -0.3696  0.6850 -0.3282
  187SAPI   C1621447   4.231   4.680   6.206  0.6861  0.4679 -0.5065
  187SAPI    H621448   4.157   4.759   6.227 -1.1698 -1.5172  0.8513
  187SAPI    O621449   4.189   4.606   6.099  0.1946  0.5663 -0.0048
  187SAPI   HO621450   4.125   4.539   6.125 -1.8291  0.8057 -3.7480
  187SAPI   C1121451   4.250   4.585   6.327  0.3390 -0.1976  1.5693
  187SAPI    H121452   4.336   4.517   6.310  2.6677  2.7803  0.6995
  187SAPI     P21453   4.112   4.360   6.398  0.1684  0.1882 -0.5523
  187SAPI   O1321454   4.217   4.277   6.334 -0.0216  0.3489  0.2688
  187SAPI   O1421455   3.972   4.327   6.382 -0.1697 -0.3933 -0.0046
  187SAPI   O1221456   4.127   4.515   6.354  0.1831 -0.2762  0.2392
  187SAPI   O1121457   4.144   4.374   6.552  0.3281  0.2972 -0.2519
  187SAPI    C121458   4.065   4.445   6.652  0.1858  0.2844  0.7310
  187SAPI    HA21459   4.052   4.553   6.633 -0.6360 -0.2596 -2.5931
  187SAPI    HB21460   3.962   4.404   6.651  0.3843 -0.3593 -1.9261
  187SAPI    C221461   4.125   4.422   6.788  0.2607  0.6796 -0.2091
  187SAPI    HS21462   4.043   4.469   6.846 -0.7846 -0.5609 -0.6335
  187SAPI   O2121463   4.258   4.473   6.804  0.5119  0.2974  0.3784
  187SAPI   C2121464   4.257   4.609   6.825 -0.1130  0.5927  0.4524
  187SAPI   O2221465   4.157   4.675   6.817 -0.1407 -0.6122 -0.3134
  187SAPI   C2221466   4.393   4.649   6.854 -0.2931 -0.1787 -0.0907
  187SAPI   H2R21467   4.434   4.581   6.933 -0.7444 -0.4249 -0.0620
  187SAPI   H2S21468   4.461   4.633   6.768 -0.4422  0.9219 -0.4220
  187SAPI    C321469   4.132   4.279   6.841  0.1230 -0.5481  0.3310
  187SAPI    HX21470   4.201   4.226   6.772  0.3369  0.0193  0.1014
  187SAPI    HY21471   4.034   4.228   6.837 -1.3050  2.0910 -2.2368
  187SAPI   O3121472   4.181   4.270   6.971  0.0586 -0.4644  0.4387
  187SAPI   C3121473   4.089   4.292   7.066  0.7532  0.8607  0.9409
  187SAPI   O3221474   3.970   4.307   7.041  0.0645  0.1228 -0.4460
  187SAPI   C3221475   4.158   4.267   7.199  0.5807 -0.4186 -0.2029
  187SAPI   H2X21476   4.265   4.299   7.194 -0.4640  3.3945 -0.9276
  187SAPI   H2Y21477   4.148   4.160   7.228 -0.7946 -0.3499 -0.3994
  187SAPI   C2321478   4.400   4.801   6.887 -0.4802  0.6469 -0.7694
  187SAPI   H3R21479   4.315   4.861   6.848 -0.0463  0.5092 -1.9556
  187SAPI   H3S21480   4.494   4.849   6.853 -0.3310  0.8554 -0.0871
  187SAPI   C2421481   4.402   4.823   7.039  0.4346  0.2200  0.5983
  187SAPI   H4R21482   4.423   4.931   7.057 -0.1257  0.3684  0.3903
  187SAPI   H4S21483   4.484   4.760   7.078 -0.4764 -2.3495 -1.3620
  187SAPI   C2521484   4.256   4.798   7.100 -0.5092  0.5145  0.1353
  187SAPI   H5R21485   4.174   4.828   7.033  1.4173 -1.0514 -3.2046
  187SAPI   C2621486   4.227   4.742   7.223 -0.1020  0.0194  0.5078
  187SAPI   H6R21487   4.120   4.723   7.239 -0.5208  2.2231  0.5807
  187SAPI   C2721488   4.334   4.691   7.316 -0.7351  0.5684  0.0543
  187SAPI   H7R21489   4.427   4.651   7.269  0.2770  2.5698  0.2419
  187SAPI   H7S21490   4.293   4.606   7.375  0.1256  1.4756  2.0590
  187SAPI   C2821491   4.376   4.799   7.413  0.5711  0.5334 -0.3780
  187SAPI   H8R21492   4.448   4.874   7.379 -0.6619  3.0665  2.1986
  187SAPI   C2921493   4.327   4.802   7.542 -0.3580  0.1865  0.4893
  187SAPI   H9R21494   4.383   4.867   7.611 -0.6630  1.8789 -0.7981
  187SAPI  C21021495   4.230   4.718   7.620  0.7492 -0.0937 -0.8193
  187SAPI  H10R21496   4.170   4.661   7.545 -0.6524 -1.7703  1.4503
  187SAPI  H10S21497   4.160   4.782   7.677 -0.7974 -1.0277 -1.5953
  187SAPI  C21121498   4.294   4.614   7.714  0.2055  0.5580  0.3053
  187SAPI  H11R21499   4.359   4.545   7.658 -1.0972  0.0821 -0.6889
  187SAPI  C21221500   4.284   4.610   7.845 -0.3792  0.5522  0.0390
  187SAPI  H12R21501   4.335   4.527   7.898 -0.9442 -0.0862 -0.3992
  187SAPI  C21321502   4.209   4.704   7.937  0.2676 -0.7162  0.9549
  187SAPI  H13R21503   4.189   4.807   7.899  0.2649  0.0161  2.8276
  187SAPI  H13S21504   4.265   4.735   8.028 -1.6606 -0.8561  2.2555
  187SAPI  C21421505   4.087   4.652   8.003  0.9454  0.4204 -0.1402
  187SAPI  H14R21506   4.099   4.612   8.105 -2.3777  2.3824  1.1987
  187SAPI  C21521507   3.955   4.650   7.959  0.5749  0.0576  0.1200
  187SAPI  H15R21508   3.889   4.599   8.031  1.3388 -1.1590 -0.0169
  187SAPI  C21621509   3.899   4.693   7.819 -0.5233 -0.2944  0.2425
  187SAPI  H16R21510   3.961   4.779   7.785 -1.7955  1.5030  2.1746
  187SAPI  H16S21511   3.805   4.751   7.833 -0.1120  0.4159  0.0943
  187SAPI  C21721512   3.890   4.594   7.711 -0.2328  0.1781  0.8633
  187SAPI  H17R21513   3.993   4.554   7.700  0.7778  2.8994 -0.7322
  187SAPI  H17S21514   3.861   4.640   7.614  1.8892  0.4305  0.2959
  187SAPI  C21821515   3.796   4.479   7.735 -0.1227 -0.7137 -0.2061
  187SAPI  H18R21516   3.696   4.519   7.764 -0.7969 -1.9808 -0.7233
  187SAPI  H18S21517   3.825   4.431   7.831 -1.1848 -1.1107 -0.0747
  187SAPI  C21921518   3.805   4.366   7.632  0.0346  1.0084 -0.3061
  187SAPI  H19R21519   3.760   4.280   7.686  2.5647 -0.6389 -0.6658
  187SAPI  H19S21520   3.908   4.334   7.606 -0.8199 -0.8491 -1.5785
  187SAPI  C22021521   3.742   4.410   7.499 -0.2816  0.2303 -0.2524
  187SAPI  H20R21522   3.749   4.324   7.428 -1.3405  0.2171 -0.3534
  187SAPI  H20S21523   3.794   4.497   7.454 -1.2560  0.0420 -1.8569
  187SAPI  H20T21524   3.633   4.423   7.513 -0.2012 -0.3761  1.0105
  187SAPI   C3321525   4.104   4.356   7.316 -0.0056  0.2600  0.1210
  187SAPI   H3X21526   4.000   4.323   7.336  0.0593  0.4081  0.7215
  187SAPI   H3Y21527   4.105   4.461   7.278  0.3762  0.4630  0.6694
  187SAPI   C3421528   4.190   4.339   7.445 -0.2154  0.7937  0.1769
  187SAPI   H4X21529   4.159   4.424   7.510 -0.9643 -0.5875  1.6987
  187SAPI   H4Y21530   4.297   4.352   7.416  0.2067  0.5281  1.5222
  187SAPI   C3521531   4.161   4.212   7.521  0.4248  0.1746 -0.8599
  187SAPI   H5X21532   4.211   4.122   7.480  0.2811  0.1134 -0.9029
  187SAPI   H5Y21533   4.051   4.197   7.516  0.6160 -3.1388  1.3411
  187SAPI   C3621534   4.197   4.226   7.669 -0.5357 -0.3276  0.5793
  187SAPI   H6X21535   4.121   4.293   7.714 -0.3182  1.2629 -1.2739
  187SAPI   H6Y21536   4.295   4.276   7.652 -1.0759  0.6904  0.3430
  187SAPI   C3721537   4.199   4.096   7.759  0.2968  0.5067 -0.0656
  187SAPI   H7X21538   4.260   4.023   7.701  0.4808  2.1590 -2.0542
  187SAPI   H7Y21539   4.093   4.063   7.766  0.3907  0.1199 -0.3799
  187SAPI   C3821540   4.259   4.114   7.895 -0.2311  0.0534  0.0246
  187SAPI   H8X21541   4.357   4.154   7.861 -1.5078  2.6855 -0.8911
  187SAPI   H8Y21542   4.285   4.025   7.956  2.8631  1.5128  1.0276
  187SAPI   C3921543   4.201   4.226   7.978 -0.0102  0.4026 -0.4761
  187SAPI   H9X21544   4.098   4.204   8.014  0.3326  1.1302  1.0155
  187SAPI   H9Y21545   4.199   4.319   7.918  0.4062  1.0660  0.5250
  187SAPI  C31021546   4.293   4.250   8.098  0.3178  0.4273  0.2129
  187SAPI  H10X21547   4.393   4.275   8.056  0.1093  1.1705  0.1472
  187SAPI  H10Y21548   4.303   4.152   8.149  0.2430  0.9139  1.1770
  187SAPI  C31121549   4.225   4.351   8.190 -0.2570 -0.0458  0.5925
  187SAPI  H11X21550   4.116   4.342   8.170 -0.2038  1.9501 -0.9447
  187SAPI  H11Y21551   4.225   4.452   8.143 -0.7357 -0.8523 -1.2496
  187SAPI  C31221552   4.247   4.346   8.339  0.0138  0.3660 -0.9305
  187SAPI  H12X21553   4.354   4.369   8.359  0.2259  0.5749 -2.2218
  187SAPI  H12Y21554   4.222   4.246   8.379  1.0188  0.6526  0.4888
  187SAPI  C31321555   4.157   4.455   8.394 -0.6446  0.2022  0.0235
  187SAPI  H13X21556   4.053   4.437   8.359  0.1804 -2.4673 -1.3192
  187SAPI  H13Y21557   4.192   4.554   8.359  1.7112 -0.3136  0.6931
  187SAPI  C31421558   4.147   4.452   8.545 -0.3648 -0.4808 -0.4368
  187SAPI  H14X21559   4.091   4.543   8.574  1.0237  0.3535 -0.3040
  187SAPI  H14Y21560   4.251   4.460   8.582 -0.5725 -0.5077  0.1712
  187SAPI  C31521561   4.075   4.336   8.606 -0.3591  0.4643 -0.2375
  187SAPI  H15X21562   4.131   4.249   8.566 -0.5002  0.1308  0.2764
  187SAPI  H15Y21563   3.968   4.330   8.574 -1.2860  2.1096  2.2268
  187SAPI  C31621564   4.084   4.319   8.755  0.3249 -0.0111  0.0197
  187SAPI  H16X21565   4.019   4.396   8.800  1.6361  2.3643 -1.8961
  187SAPI  H16Y21566   4.189   4.341   8.786  0.1408  0.3002  0.4344
  187SAPI  C31721567   4.046   4.175   8.802  0.2473  0.0052 -0.1839
  187SAPI  H17X21568   3.937   4.170   8.785  0.1866  0.7219 -0.0416
  187SAPI  H17Y21569   4.048   4.170   8.913 -0.6984 -2.6700 -0.2269
  187SAPI  C31821570   4.122   4.050   8.757 -0.0807 -0.1675 -0.5846
  187SAPI  H18X21571   4.140   4.051   8.647  1.4907  3.1144 -0.4119
  187SAPI  H18Y21572   4.069   3.954   8.775 -0.8491 -0.2297 -2.8073
  187SAPI  H18Z21573   4.220   4.051   8.809 -0.6905  1.3866  0.6011
  188SAPI   C1221574   4.334   2.110   6.248  1.1842 -0.4905  0.3269
  188SAPI    H221575   4.329   2.119   6.359 -0.6340 -1.5283  0.3807
  188SAPI    O221576   4.312   1.974   6.226 -0.5627 -0.1558 -0.1059
  188SAPI   HO221577   4.344   1.942   6.311  1.9676  3.4910  0.5048
  188SAPI   C1321578   4.225   2.191   6.179  0.4371 -0.0102 -0.3695
  188SAPI    H321579   4.233   2.301   6.197 -0.4840  0.1704 -1.0014
  188SAPI    O321580   4.095   2.161   6.228  0.2233 -0.9827 -0.0089
  188SAPI   HO321581   4.091   2.065   6.240  0.6687 -0.8462  1.4548
  188SAPI   C1421582   4.253   2.173   6.031  0.4751  1.0123  0.1294
  188SAPI    H421583   4.244   2.065   6.006  1.0159  0.6935  1.2045
  188SAPI    O421584   4.148   2.232   5.955  0.2496  0.1732  0.4882
  188SAPI   HO421585   4.058   2.225   5.987 -0.1993  0.6274 -0.6435
  188SAPI   C1521586   4.396   2.207   5.987  0.2742 -0.2488  0.5036
  188SAPI    H521587   4.420   2.311   6.015  0.2648 -0.6732  2.1808
  188SAPI    O521588   4.409   2.212   5.846  0.1598  0.4494  0.3010
  188SAPI   HO521589   4.365   2.288   5.808  0.1417 -0.5795 -1.8622
  188SAPI   C1621590   4.506   2.140   6.065  0.1790  0.4636 -0.3919
  188SAPI    H621591   4.518   2.032   6.042  2.6837  0.6339 -0.1351
  188SAPI    O621592   4.639   2.195   6.051 -0.1732 -0.2713 -0.6278
  188SAPI   HO621593   4.680   2.207   6.137  1.2706  3.3449 -1.6545
  188SAPI   C1121594   4.473   2.156   6.214  0.0771 -0.3845  0.2952
  188SAPI    H121595   4.469   2.264   6.239 -1.4030  0.2841 -2.4624
  188SAPI     P21596   4.677   2.148   6.398 -0.8001 -0.0758 -0.1097
  188SAPI   O1321597   4.728   2.268   6.326  0.0445  0.1917 -0.2541
  188SAPI   O1421598   4.778   2.038   6.426 -0.2656 -0.5285 -0.0276
  188SAPI   O1221599   4.566   2.080   6.302  0.3125  0.5707 -0.3056
  188SAPI   O1121600   4.585   2.184   6.520 -0.4952 -0.2241  0.3390
  188SAPI    C121601   4.653   2.222   6.638 -0.7246  0.0304 -0.0924
  188SAPI    HA21602   4.713   2.136   6.674 -1.0031  0.1122  0.5764
  188SAPI    HB21603   4.729   2.302   6.625  0.6606 -1.4102 -1.3339
  188SAPI    C221604   4.564   2.257   6.758  0.0218 -0.2283 -0.0141
  188SAPI    HS21605   4.483   2.326   6.725 -0.1549 -0.2230  0.4203
  188SAPI   O2121606   4.639   2.310   6.871  0.0979  0.1347 -0.9313
  188SAPI   C2121607   4.662   2.441   6.858 -0.0143 -0.2653 -0.4707
  188SAPI   O2221608   4.626   2.505   6.764  0.1471  0.4518  0.4776
  188SAPI   C2221609   4.727   2.511   6.979 -0.2163  0.1463  0.2531
  188SAPI   H2R21610   4.805   2.448   7.027 -1.0206  0.1938  1.6849
  188SAPI   H2S21611   4.786   2.591   6.930 -0.3470  1.1750  1.7382
  188SAPI    C321612   4.468   2.133   6.795  0.5061  0.4697 -0.0745
  188SAPI    HX21613   4.532   2.042   6.802  0.4992  0.5343  1.0875
  188SAPI    HY21614   4.403   2.115   6.707  0.8285  0.4003 -0.3002
  188SAPI   O3121615   4.400   2.143   6.919  0.1486  0.2839 -0.6007
  188SAPI   C3121616   4.291   2.218   6.928  0.1740 -0.4612 -0.2419
  188SAPI   O3221617   4.240   2.286   6.839  0.3698  0.1900 -0.2601
  188SAPI   C3221618   4.247   2.218   7.076  0.4248 -0.3966  0.8336
  188SAPI   H2X21619   4.137   2.202   7.071  0.2020  1.1262  0.2979
  188SAPI   H2Y21620   4.262   2.322   7.110 -0.9867  0.0616  0.1592
  188SAPI   C2321621   4.638   2.571   7.084 -0.5600 -0.3495 -0.3372
  188SAPI   H3R21622   4.580   2.654   7.037 -0.1925 -1.0728 -2.1455
  188SAPI   H3S21623   4.696   2.613   7.169 -1.4273  0.7981 -0.2816
  188SAPI   C2421624   4.538   2.477   7.162  0.5720 -0.0972 -0.1339
  188SAPI   H4R21625   4.462   2.440   7.089  0.5841  0.1816 -0.2908
  188SAPI   H4S21626   4.489   2.541   7.238 -0.4959 -0.7598 -0.2507
  188SAPI   C2521627   4.618   2.368   7.215  0.0654 -0.2482 -0.5009
  188SAPI   H5R21628   4.649   2.289   7.146  0.8356 -0.7619  0.4023
  188SAPI   C2621629   4.651   2.348   7.347 -0.0424  0.3224 -0.4903
  188SAPI   H6R21630   4.715   2.266   7.381  1.0123  0.7750 -1.3403
  188SAPI   C2721631   4.612   2.436   7.462  0.7957  0.3438 -0.0884
  188SAPI   H7R21632   4.598   2.380   7.557 -2.6204  1.7945  0.4112
  188SAPI   H7S21633   4.508   2.471   7.445  0.6150  0.0538  0.3829
  188SAPI   C2821634   4.697   2.557   7.476  0.6978  0.0555 -0.5605
  188SAPI   H8R21635   4.726   2.610   7.384  0.7719 -0.6852 -0.9715
  188SAPI   C2921636   4.727   2.614   7.599  0.1240 -0.3150  0.0727
  188SAPI   H9R21637   4.795   2.700   7.604 -0.6948  0.3803 -0.5202
  188SAPI  C21021638   4.683   2.566   7.741 -0.4222  0.5001  0.6987
  188SAPI  H10R21639   4.750   2.489   7.784 -3.7930 -2.9788  0.2595
  188SAPI  H10S21640   4.590   2.507   7.730  0.4163 -0.6410 -0.6020
  188SAPI  C21121641   4.683   2.680   7.842  0.7723  0.1883 -0.4367
  188SAPI  H11R21642   4.721   2.780   7.817  0.4853 -0.1048 -2.1313
  188SAPI  C21221643   4.638   2.668   7.971 -0.9227  0.1985 -0.1972
  188SAPI  H12R21644   4.643   2.754   8.039 -2.7726 -0.4028  0.7619
  188SAPI  C21321645   4.578   2.539   8.027  0.0518 -0.1336 -0.0737
  188SAPI  H13R21646   4.597   2.448   7.967 -2.4650 -1.1506  0.5432
  188SAPI  H13S21647   4.471   2.565   8.017  0.1991  0.3576 -0.4020
  188SAPI  C21421648   4.611   2.521   8.166  0.0286  0.7430 -0.4912
  188SAPI  H14R21649   4.699   2.459   8.189 -1.0678 -1.1450 -1.1423
  188SAPI  C21521650   4.524   2.548   8.274 -0.0534 -0.6231  0.2125
  188SAPI  H15R21651   4.558   2.530   8.377  0.1784 -2.9725 -0.2047
  188SAPI  C21621652   4.389   2.615   8.265  0.3374 -0.5890  0.4006
  188SAPI  H16R21653   4.306   2.542   8.279 -0.3451  0.3626  1.4453
  188SAPI  H16S21654   4.372   2.658   8.164  0.5158  0.3975  0.7795
  188SAPI  C21721655   4.358   2.721   8.368  0.0988  0.1630 -0.3085
  188SAPI  H17R21656   4.336   2.680   8.469 -1.3412  2.3017  0.3167
  188SAPI  H17S21657   4.259   2.763   8.343 -1.1052 -2.0423  0.4801
  188SAPI  C21821658   4.459   2.833   8.376  1.0260 -0.4695 -0.2538
  188SAPI  H18R21659   4.463   2.897   8.285 -0.6628 -0.3370 -0.2661
  188SAPI  H18S21660   4.557   2.785   8.397  0.9894 -0.5457 -0.2591
  188SAPI  C21921661   4.434   2.938   8.491 -0.2309  0.1691  0.4676
  188SAPI  H19R21662   4.465   2.889   8.585 -0.0279 -1.2066 -0.2785
  188SAPI  H19S21663   4.326   2.958   8.508 -0.5832  0.0345 -1.3869
  188SAPI  C22021664   4.505   3.071   8.472  0.1643 -0.1049  0.3956
  188SAPI  H20R21665   4.615   3.059   8.462  0.0927 -3.2596  2.1165
  188SAPI  H20S21666   4.495   3.126   8.569  0.3930  0.4149  0.1294
  188SAPI  H20T21667   4.455   3.125   8.389  0.6970 -1.4271 -0.8153
  188SAPI   C3321668   4.304   2.109   7.167  0.0879 -0.8384  0.3098
  188SAPI   H3X21669   4.407   2.145   7.183  0.0761  0.3392 -1.7804
  188SAPI   H3Y21670   4.294   2.004   7.132  1.1041 -1.0539  0.6545
  188SAPI   C3421671   4.235   2.112   7.310 -0.4545 -0.4199 -0.4099
  188SAPI   H4X21672   4.289   2.034   7.368  1.8702  0.7648 -0.8625
  188SAPI   H4Y21673   4.130   2.075   7.312 -0.7891  0.5076 -0.3172
  188SAPI   C3521674   4.234   2.248   7.378  0.5674 -0.4831 -0.0274
  188SAPI   H5X21675   4.156   2.296   7.315 -0.9743 -2.5468  0.2252
  188SAPI   H5Y21676   4.328   2.308   7.375 -0.2325  0.9994  2.1436
  188SAPI   C3621677   4.187   2.239   7.521  0.1117 -0.2683  0.5000
  188SAPI   H6X21678   4.083   2.199   7.526 -0.4661  0.7080 -2.1327
  188SAPI   H6Y21679   4.180   2.342   7.563 -2.3173 -1.3163  2.9361
  188SAPI   C3721680   4.284   2.156   7.607  0.5245 -0.8986 -0.3942
  188SAPI   H7X21681   4.387   2.166   7.567  0.7538  4.0583  0.6871
  188SAPI   H7Y21682   4.249   2.052   7.594 -1.6770 -0.4558  1.2702
  188SAPI   C3821683   4.288   2.208   7.748  0.3312  0.1653 -0.3892
  188SAPI   H8X21684   4.187   2.215   7.795 -0.4926 -2.5244 -1.5610
  188SAPI   H8Y21685   4.337   2.307   7.739 -1.4743  1.1989  0.5864
  188SAPI   C3921686   4.376   2.120   7.835  0.3491  0.1966 -0.5688
  188SAPI   H9X21687   4.464   2.101   7.770 -0.3688  1.5309 -2.0116
  188SAPI   H9Y21688   4.323   2.024   7.854 -2.3984  1.4803 -1.2297
  188SAPI  C31021689   4.423   2.183   7.973  0.2468 -0.8723 -0.2254
  188SAPI  H10X21690   4.496   2.266   7.960  0.9065 -0.8936  2.6903
  188SAPI  H10Y21691   4.469   2.111   8.044 -3.8270 -2.1779  1.4215
  188SAPI  C31121692   4.308   2.249   8.051 -0.4053 -0.8812  0.8696
  188SAPI  H11X21693   4.272   2.333   7.986 -1.6669 -0.3521  2.1988
  188SAPI  H11Y21694   4.357   2.297   8.138  0.1916  3.5645 -1.5812
  188SAPI  C31221695   4.191   2.154   8.078 -0.4487  0.5351  0.5316
  188SAPI  H12X21696   4.229   2.068   8.137  1.8993  0.5305 -0.8649
  188SAPI  H12Y21697   4.145   2.110   7.987  0.0873 -1.0092  0.9706
  188SAPI  C31321698   4.064   2.211   8.152 -0.2526  0.4898  0.1276
  188SAPI  H13X21699   4.099   2.277   8.234  0.9631 -0.3908  0.3537
  188SAPI  H13Y21700   3.998   2.134   8.198 -0.4635  1.5127  1.5995
  188SAPI  C31421701   3.973   2.286   8.053 -0.5354 -0.5533  0.3953
  188SAPI  H14X21702   3.937   2.211   7.980  2.6350 -2.3932  0.5503
  188SAPI  H14Y21703   4.018   2.367   7.991 -2.6975 -0.0654 -0.6066
  188SAPI  C31521704   3.847   2.353   8.119 -0.4135  0.4169 -0.0848
  188SAPI  H15X21705   3.873   2.423   8.202  2.7228 -0.0113 -0.5769
  188SAPI  H15Y21706   3.797   2.263   8.159  0.7268 -0.1073  0.2022
  188SAPI  C31621707   3.766   2.426   8.012  0.4091  0.3089 -0.7821
  188SAPI  H16X21708   3.744   2.366   7.921 -3.6341  1.8788 -1.0228
  188SAPI  H16Y21709   3.829   2.505   7.966  0.2110  1.1474  0.3379
  188SAPI  C31721710   3.636   2.484   8.063 -0.0407  0.1620  0.6052
  188SAPI  H17X21711   3.651   2.553   8.149  2.3337 -0.5000  0.7769
  188SAPI  H17Y21712   3.570   2.402   8.099  1.8261 -1.3705  0.6675
  188SAPI  C31821713   3.565   2.559   7.944 -0.0385 -0.2197 -0.2201
  188SAPI  H18X21714   3.627   2.630   7.886 -0.2490 -1.0863 -1.5428
  188SAPI  H18Y21715   3.482   2.617   7.990 -0.9506 -0.4399 -1.5338
  188SAPI  H18Z21716   3.520   2.479   7.882 -0.3647  0.8986 -1.4714
  189POPC     N21717   4.878   2.154  10.994 -0.2137  0.0683  0.2491
  189POPC   C1221718   4.832   2.134  10.856  0.3080  0.7595 -0.4446
  189POPC  H12A21719   4.887   2.052  10.811 -0.0233 -0.1433  0.7489
  189POPC  H12B21720   4.844   2.226  10.801 -1.9951  2.0178  1.0221
  189POPC   C1321721   4.807   2.267  11.057  0.0665  0.9723  0.3039
  189POPC  H13A21722   4.824   2.269  11.164 -3.0958  3.0152  0.8849
  189POPC  H13B21723   4.848   2.359  11.019 -1.1940  0.9169 -1.2778
  189POPC  H13C21724   4.700   2.265  11.047 -0.0064  2.2460  0.6686
  189POPC   C1421725   4.858   2.031  11.078 -0.6338  0.7260  0.1421
  189POPC  H14A21726   4.753   2.006  11.082 -0.9300  2.0063  0.7635
  189POPC  H14B21727   4.915   1.948  11.040 -0.7625 -0.5788  2.5873
  189POPC  H14C21728   4.896   2.050  11.177  1.2735  0.2015 -0.4513
  189POPC   C1521729   5.024   2.185  11.002  1.0207  0.7127  0.4633
  189POPC  H15A21730   5.085   2.102  10.969 -0.8047 -0.2812 -0.6067
  189POPC  H15B21731   5.051   2.222  11.100 -2.2562 -0.7847  2.0894
  189POPC  H15C21732   5.047   2.266  10.934 -0.7846  0.5795 -0.3801
  189POPC   C1121733   4.681   2.085  10.828 -1.0988  0.5985 -0.7452
  189POPC  H11A21734   4.660   1.991  10.882 -0.8683 -0.1557 -1.9368
  189POPC  H11B21735   4.681   2.054  10.722  2.3175 -2.1145 -0.1314
  189POPC     P21736   4.515   2.268  10.771 -0.2598 -0.2635  0.1851
  189POPC   O1321737   4.490   2.395  10.839 -0.1344  0.3894  0.4313
  189POPC   O1421738   4.397   2.201  10.717  0.1626  0.2558 -0.3472
  189POPC   O1221739   4.584   2.181  10.874  0.0002 -0.1808 -0.4698
  189POPC   O1121740   4.623   2.285  10.658  0.3932  0.2472  0.1948
  189POPC    C121741   4.583   2.277  10.513  0.3746 -0.3279  0.3519
  189POPC    HA21742   4.480   2.315  10.497  1.0220  1.4419  0.1066
  189POPC    HB21743   4.598   2.172  10.479  1.7764  0.5249 -1.9402
  189POPC    C221744   4.674   2.376  10.440 -0.3321  0.1481  0.3198
  189POPC    HS21745   4.669   2.480  10.476  1.8117 -0.8684  4.1012
  189POPC   O2121746   4.652   2.349  10.295 -0.2890  0.2014  0.4204
  189POPC   C2121747   4.545   2.410  10.240 -0.2066  0.4113 -0.1680
  189POPC   O2221748   4.470   2.478  10.304  0.7868 -0.1333  0.7631
  189POPC   C2221749   4.544   2.406  10.090 -0.5396 -0.2975  0.0117
  189POPC   H2R21750   4.570   2.304  10.054  1.6287 -0.2428  1.2221
  189POPC   H2S21751   4.615   2.487  10.063 -0.4318  0.3591  2.1268
  189POPC    C321752   4.820   2.360  10.466 -0.0414 -0.3103 -0.5349
  189POPC    HX21753   4.843   2.252  10.468  1.2261 -0.0478  0.1298
  189POPC    HY21754   4.847   2.396  10.568  0.0836 -1.9747  0.0359
  189POPC   O3121755   4.908   2.426  10.373 -0.0993 -0.1472 -0.3674
  189POPC   C3121756   5.010   2.351  10.331 -0.3709 -0.8793  0.4051
  189POPC   O3221757   5.035   2.235  10.355  0.0350  0.3201  0.7126
  189POPC   C3221758   5.086   2.434  10.233 -0.0650  0.3583 -0.1295
  189POPC   H2X21759   5.094   2.528  10.291 -0.7632 -0.6863  1.7779
  189POPC   H2Y21760   5.027   2.442  10.139 -0.7407 -2.7084 -0.0749
  189POPC   C2321761   4.409   2.447  10.036  0.0712 -0.0200 -0.0260
  189POPC   H3R21762   4.375   2.542  10.083  0.5797  0.3684 -0.4319
  189POPC   H3S21763   4.340   2.364  10.064  0.5475 -0.7897 -1.0605
  189POPC   C2421764   4.400   2.468   9.885 -0.2137 -0.0262 -0.2075
  189POPC   H4R21765   4.422   2.376   9.827 -0.3450  0.6348 -1.3348
  189POPC   H4S21766   4.476   2.541   9.852  0.6450 -0.8715 -0.1408
  189POPC   C2521767   4.254   2.520   9.853 -0.0539  0.3888  0.1307
  189POPC   H5R21768   4.252   2.621   9.899 -0.4530  1.9596 -3.1136
  189POPC   H5S21769   4.178   2.455   9.902 -0.8504  0.1788 -1.3445
  189POPC   C2621770   4.222   2.523   9.704  0.2083  0.6086  0.7675
  189POPC   H6R21771   4.115   2.549   9.690  0.0037  0.2019  1.5491
  189POPC   H6S21772   4.236   2.420   9.665  1.1110  0.5397  1.2550
  189POPC   C2721773   4.306   2.622   9.624 -0.4760 -0.9849  0.4723
  189POPC   H7R21774   4.409   2.584   9.605  0.3195  1.3572 -0.2246
  189POPC   H7S21775   4.324   2.718   9.676 -1.3854  1.2992 -3.1266
  189POPC   C2821776   4.231   2.651   9.486  0.1367  0.4204 -0.5936
  189POPC   H8R21777   4.287   2.728   9.429  1.0996  1.1497  1.2474
  189POPC   H8S21778   4.129   2.688   9.512 -0.5500 -1.8353  0.1460
  189POPC   C2921779   4.230   2.526   9.403 -0.2213  0.6314  0.2729
  189POPC   H9121780   4.216   2.431   9.456  1.2860  0.8283  1.0766
  189POPC  C21021781   4.262   2.516   9.269 -0.0899  0.1468 -0.8120
  189POPC  H10121782   4.248   2.417   9.222  0.1589 -0.0194 -0.5412
  189POPC  C21121783   4.284   2.627   9.173 -0.4295 -0.1738 -0.2424
  189POPC  H11R21784   4.388   2.632   9.136 -0.2271  0.6012  0.4030
  189POPC  H11S21785   4.261   2.728   9.215  0.9332  0.5595 -1.2089
  189POPC  C21221786   4.175   2.630   9.061 -0.0912 -0.1040 -0.2311
  189POPC  H12R21787   4.079   2.639   9.115 -1.0211  0.3199 -1.8758
  189POPC  H12S21788   4.186   2.530   9.013 -0.3261 -0.3479  0.2211
  189POPC  C21321789   4.200   2.745   8.971 -0.2964 -0.1125 -0.7155
  189POPC  H13R21790   4.297   2.738   8.916  1.7660  2.6494  2.1888
  189POPC  H13S21791   4.202   2.835   9.036  0.1328 -0.6638  0.0525
  189POPC  C21421792   4.081   2.759   8.873  0.9577  0.1029 -0.9002
  189POPC  H14R21793   3.987   2.764   8.933  0.0488  0.8072 -2.3262
  189POPC  H14S21794   4.083   2.673   8.803  0.6096  0.0475 -0.8458
  189POPC  C21521795   4.066   2.886   8.789  0.1219 -0.1991 -0.2236
  189POPC  H15R21796   4.159   2.922   8.739 -1.6148  0.8703 -2.9425
  189POPC  H15S21797   4.036   2.965   8.860  2.4475 -1.9615  2.9790
  189POPC  C21621798   3.963   2.889   8.678  0.3052 -0.0243  0.5415
  189POPC  H16R21799   3.978   2.977   8.611 -0.3772 -1.6149 -1.8324
  189POPC  H16S21800   3.866   2.906   8.730  0.1697 -3.1238  1.4707
  189POPC  C21721801   3.959   2.765   8.590  0.1696  0.0015 -0.2905
  189POPC  H17R21802   3.946   2.676   8.655 -1.4658  0.4467  0.0341
  189POPC  H17S21803   4.055   2.757   8.535 -0.0762 -0.1318 -0.7018
  189POPC  C21821804   3.847   2.771   8.486 -0.0408 -0.6476 -0.5762
  189POPC  H18R21805   3.750   2.817   8.512 -1.2587 -3.8007  1.0931
  189POPC  H18S21806   3.818   2.666   8.464 -1.2708 -0.4656  0.0945
  189POPC  H18T21807   3.883   2.816   8.391 -0.3626 -2.3784 -1.5578
  189POPC   C3321808   5.228   2.388  10.200 -0.2726 -0.0355  0.4486
  189POPC   H3X21809   5.279   2.351  10.292  1.5247 -0.4549 -0.6542
  189POPC   H3Y21810   5.288   2.474  10.163 -0.2112 -0.1120  0.3674
  189POPC   C3421811   5.232   2.274  10.099  0.0956 -0.3451  0.2932
  189POPC   H4X21812   5.152   2.203  10.129 -1.6447  1.7750  0.9395
  189POPC   H4Y21813   5.333   2.231  10.110  0.9977  1.5860 -0.0399
  189POPC   C3521814   5.222   2.319   9.958 -0.0828 -0.2594  0.4239
  189POPC   H5X21815   5.124   2.368   9.941 -0.3890  0.3430  3.3570
  189POPC   H5Y21816   5.221   2.227   9.897  0.8434 -0.6401  0.9683
  189POPC   C3621817   5.344   2.406   9.916  0.4530  0.5444 -0.4197
  189POPC   H6X21818   5.437   2.378   9.970  0.6116  0.3208 -0.8003
  189POPC   H6Y21819   5.318   2.508   9.950  1.3870 -0.2181  2.9705
  189POPC   C3721820   5.370   2.412   9.757 -0.5793  0.1894  0.1793
  189POPC   H7X21821   5.267   2.419   9.717 -0.7926 -1.1044  0.4609
  189POPC   H7Y21822   5.412   2.312   9.735  4.1724  2.1589 -0.8567
  189POPC   C3821823   5.470   2.515   9.713  0.1051  0.1300  0.2873
  189POPC   H8X21824   5.568   2.488   9.757  0.1355 -0.2501 -0.0120
  189POPC   H8Y21825   5.433   2.609   9.759 -1.3613  0.1283 -0.8049
  189POPC   C3921826   5.483   2.522   9.563  0.8333  0.2892  0.8489
  189POPC   H9X21827   5.506   2.420   9.526 -0.8386  0.4447 -0.8035
  189POPC   H9Y21828   5.580   2.571   9.539  1.5180 -0.0247  2.7459
  189POPC  C31021829   5.370   2.588   9.484 -0.0259 -0.4088 -0.6833
  189POPC  H10X21830   5.352   2.693   9.515  0.6869  0.1794 -2.1519
  189POPC  H10Y21831   5.272   2.534   9.488 -1.8068  2.5763 -0.6690
  189POPC  C31121832   5.395   2.580   9.342 -0.1245 -0.2388 -0.0095
  189POPC  H11X21833   5.404   2.474   9.311  0.9300 -1.0969  2.9655
  189POPC  H11Y21834   5.494   2.630   9.329  0.4074 -1.0642  0.8099
  189POPC  C31221835   5.308   2.672   9.256  0.0366 -1.0762  0.1222
  189POPC  H12X21836   5.307   2.771   9.307 -1.5442 -0.9181 -0.1667
  189POPC  H12Y21837   5.204   2.633   9.256  0.2317 -1.6887  1.6567
  189POPC  C31321838   5.363   2.691   9.116  0.3697 -0.6836  0.6274
  189POPC  H13X21839   5.349   2.600   9.054 -0.4186  0.0354 -0.2862
  189POPC  H13Y21840   5.473   2.702   9.129  0.1065  0.7945  2.0133
  189POPC  C31421841   5.307   2.815   9.045 -0.9724  0.1502 -0.7944
  189POPC  H14X21842   5.369   2.844   8.958 -0.2119 -0.4212 -0.4499
  189POPC  H14Y21843   5.326   2.901   9.112 -1.0355 -1.0892  0.8664
  189POPC  C31521844   5.165   2.801   8.996  0.0521 -0.6100  0.3956
  189POPC  H15X21845   5.113   2.770   9.089  0.3177  0.0019  0.7584
  189POPC  H15Y21846   5.164   2.718   8.923  1.6362  1.4276 -2.1062
  189POPC  C31621847   5.110   2.932   8.934  0.3336  0.6484  0.4209
  189POPC  H16X21848   5.164   2.973   8.846 -2.9573  1.6066 -1.3326
  189POPC  H16Y21849   5.107   3.011   9.011  0.3585 -0.6606  1.8188
  189POPC  H16Z21850   5.011   2.900   8.895  1.4560 -1.4865 -0.9295
  190POPC     N21851   2.715   5.076  11.048  0.2686 -0.5655  0.3333
  190POPC   C1221852   2.788   5.175  10.960 -0.4269  0.3705  0.5830
  190POPC  H12A21853   2.777   5.146  10.857 -1.0966  0.1930  0.7003
  190POPC  H12B21854   2.894   5.184  10.981 -0.2979 -0.0598  0.1211
  190POPC   C1321855   2.785   4.945  11.049  0.0522 -0.2238 -0.2646
  190POPC  H13A21856   2.774   4.893  10.955 -0.9694  1.4010 -1.0812
  190POPC  H13B21857   2.891   4.958  11.063 -0.0240  1.2803 -0.8889
  190POPC  H13C21858   2.747   4.882  11.128  0.5410 -0.7736 -0.4599
  190POPC   C1421859   2.693   5.126  11.192  0.2523  0.0941  0.8449
  190POPC  H14A21860   2.787   5.146  11.241  0.1989  0.3821  0.8279
  190POPC  H14B21861   2.631   5.214  11.195 -2.2454 -1.5156  0.3666
  190POPC  H14C21862   2.650   5.049  11.254 -1.3555  0.9992  0.9036
  190POPC   C1521863   2.579   5.032  10.987  0.7776 -0.2015 -0.3415
  190POPC  H15A21864   2.519   5.120  10.973  2.5217  0.6674 -3.2953
  190POPC  H15B21865   2.530   4.966  11.057  0.0286 -1.7263 -2.2310
  190POPC  H15C21866   2.590   4.987  10.890  0.5582  1.6612 -1.2676
  190POPC   C1121867   2.744   5.326  10.972 -0.3442  0.3647  0.4193
  190POPC  H11A21868   2.813   5.382  10.906  0.0823 -3.2952 -2.6033
  190POPC  H11B21869   2.757   5.360  11.076 -2.3694 -3.1000  1.9822
  190POPC     P21870   2.502   5.405  11.023 -0.4512 -0.0321 -0.0600
  190POPC   O1321871   2.558   5.443  11.155  0.5045  0.6603 -0.2074
  190POPC   O1421872   2.372   5.330  11.037 -0.3446  0.1237  0.0616
  190POPC   O1221873   2.609   5.324  10.937 -0.0012 -0.3361  0.7892
  190POPC   O1121874   2.478   5.533  10.930  0.3159  0.1845  0.0813
  190POPC    C121875   2.400   5.533  10.814 -0.0056 -0.0525  0.3353
  190POPC    HA21876   2.325   5.616  10.813  1.2212  1.2185 -3.2037
  190POPC    HB21877   2.349   5.436  10.794  1.1780 -0.6292  0.0649
  190POPC    C221878   2.490   5.577  10.698  0.3887 -0.1953 -0.0601
  190POPC    HS21879   2.428   5.610  10.612 -0.5515 -0.2270  0.5931
  190POPC   O2121880   2.577   5.469  10.671  0.4179  0.2150  0.4340
  190POPC   C2121881   2.625   5.472  10.540 -0.3415  0.0107  0.0235
  190POPC   O2221882   2.595   5.554  10.459 -0.5424  0.4551  0.5452
  190POPC   C2221883   2.714   5.350  10.523  0.0275 -0.5189  0.2930
  190POPC   H2R21884   2.651   5.260  10.539 -1.7982  0.8918  1.4378
  190POPC   H2S21885   2.782   5.361  10.610  0.1066 -0.2031  0.1903
  190POPC    C321886   2.571   5.704  10.735 -0.1853 -0.1421  0.2750
  190POPC    HX21887   2.654   5.681  10.806 -0.7117  0.9992  1.3149
  190POPC    HY21888   2.504   5.762  10.802 -1.6203 -2.0287  0.5559
  190POPC   O3121889   2.630   5.776  10.625  0.5653  0.7086  0.5416
  190POPC   C3121890   2.544   5.862  10.576  0.5183 -0.5514 -0.6160
  190POPC   O3221891   2.427   5.882  10.617 -0.0730 -0.6363 -0.2403
  190POPC   C3221892   2.612   5.944  10.463  0.1016 -0.6846 -0.5717
  190POPC   H2X21893   2.664   5.879  10.388  2.0541 -0.5195  0.5605
  190POPC   H2Y21894   2.697   5.999  10.510 -0.5596  2.1043 -2.3594
  190POPC   C2321895   2.799   5.354  10.400  0.2957  0.2423 -0.3464
  190POPC   H3R21896   2.873   5.271  10.404 -0.5260 -0.5218 -0.6121
  190POPC   H3S21897   2.846   5.454  10.385  0.6355  0.2924  0.9148
  190POPC   C2421898   2.717   5.323  10.269 -0.0174  0.1055 -0.3361
  190POPC   H4R21899   2.634   5.396  10.261 -1.1926 -1.0901  0.5133
  190POPC   H4S21900   2.671   5.223  10.285 -0.6067  0.3601 -0.4266
  190POPC   C2521901   2.793   5.311  10.141  0.1986  0.1759 -0.4401
  190POPC   H5R21902   2.874   5.236  10.156 -0.0623  0.4266  2.9106
  190POPC   H5S21903   2.830   5.412  10.116  0.0831  0.6787  1.2986
  190POPC   C2621904   2.714   5.252  10.023  0.3303 -0.3696 -0.2231
  190POPC   H6R21905   2.617   5.305  10.022  0.2168 -0.1414  4.0438
  190POPC   H6S21906   2.703   5.142  10.034  1.3556 -0.4976 -0.3472
  190POPC   C2721907   2.784   5.268   9.889 -0.3443 -0.0327  0.6094
  190POPC   H7R21908   2.880   5.212   9.885  1.2513  2.5990 -0.6855
  190POPC   H7S21909   2.811   5.375   9.881  0.6866 -0.1749  1.8585
  190POPC   C2821910   2.695   5.225   9.775  0.0521  0.6228  0.8555
  190POPC   H8R21911   2.605   5.290   9.778 -0.3640  0.0284  2.4625
  190POPC   H8S21912   2.665   5.119   9.794 -0.1077  0.7403  1.2840
  190POPC   C2921913   2.772   5.229   9.645 -0.0251  0.0021  0.2011
  190POPC   H9121914   2.843   5.311   9.628  1.3001 -0.7356  1.9134
  190POPC  C21021915   2.768   5.135   9.546 -0.8419  0.0462 -0.2649
  190POPC  H10121916   2.831   5.154   9.458 -1.8859  1.0066 -0.8203
  190POPC  C21121917   2.691   5.007   9.544  0.3296 -0.8605 -0.5618
  190POPC  H11R21918   2.584   5.029   9.524 -0.2332 -0.9320  2.0474
  190POPC  H11S21919   2.690   4.962   9.645 -1.2814 -0.0544 -0.1879
  190POPC  C21221920   2.761   4.912   9.446  0.2027  0.3452  0.3352
  190POPC  H12R21921   2.730   4.808   9.469 -0.8766  0.5533 -0.1500
  190POPC  H12S21922   2.872   4.907   9.460  0.6694 -0.7713 -2.9033
  190POPC  C21321923   2.713   4.929   9.295  0.0616  0.8998  0.7289
  190POPC  H13R21924   2.765   4.860   9.225 -1.9621  0.5652 -0.5450
  190POPC  H13S21925   2.732   5.033   9.264  2.7878  0.0995 -0.5929
  190POPC  C21421926   2.569   4.884   9.264  0.3722  0.2988  0.0792
  190POPC  H14R21927   2.504   4.955   9.319 -0.2889 -0.6340  0.5150
  190POPC  H14S21928   2.561   4.776   9.287  0.1971  0.4099  0.5616
  190POPC  C21521929   2.534   4.890   9.113  0.0256  0.0661 -0.4434
  190POPC  H15R21930   2.430   4.854   9.098 -0.3940  0.9685  0.1757
  190POPC  H15S21931   2.586   4.814   9.052 -0.3091  1.6633 -2.8616
  190POPC  C21621932   2.542   5.028   9.043 -0.2649  0.1863 -0.4599
  190POPC  H16R21933   2.546   5.007   8.934  1.5474  0.3020 -0.4531
  190POPC  H16S21934   2.630   5.089   9.073  1.5635 -2.5771  0.1509
  190POPC  C21721935   2.410   5.107   9.071 -0.2956  0.5192  0.4899
  190POPC  H17R21936   2.393   5.116   9.180  0.9334 -1.5095  0.8865
  190POPC  H17S21937   2.319   5.055   9.035  0.3112 -0.9392  1.0006
  190POPC  C21821938   2.410   5.254   9.007 -0.4150 -0.8113 -0.0596
  190POPC  H18R21939   2.504   5.309   9.032  0.8845 -2.8421 -0.2338
  190POPC  H18S21940   2.325   5.319   9.036  2.5692  2.8635  1.2855
  190POPC  H18T21941   2.401   5.241   8.897 -1.3488  2.8674 -0.5580
  190POPC   C3321942   2.515   6.047  10.394 -0.2547  0.1783 -0.0458
  190POPC   H3X21943   2.491   6.119  10.475  0.1187 -2.5335  2.6291
  190POPC   H3Y21944   2.429   5.987  10.358 -1.9470  2.9082 -0.8771
  190POPC   C3421945   2.574   6.122  10.272 -0.3669 -0.3481  0.6950
  190POPC   H4X21946   2.685   6.131  10.274 -0.5211  3.6210  0.2818
  190POPC   H4Y21947   2.546   6.230  10.270 -0.0395 -0.2711 -0.8118
  190POPC   C3521948   2.543   6.063  10.137  0.1054 -0.0610  0.5573
  190POPC   H5X21949   2.434   6.057  10.117  0.3556 -0.7244 -0.7062
  190POPC   H5Y21950   2.572   5.957  10.151  0.4650  0.1164  1.2134
  190POPC   C3621951   2.623   6.132  10.021 -0.0289 -0.2214  0.1736
  190POPC   H6X21952   2.730   6.131  10.048 -0.8651 -1.1757  4.2317
  190POPC   H6Y21953   2.591   6.238  10.011  0.3125 -0.1876 -0.5822
  190POPC   C3721954   2.592   6.075   9.881 -0.0626 -0.3449 -0.0442
  190POPC   H7X21955   2.489   6.034   9.871 -0.9407  2.1017 -1.8541
  190POPC   H7Y21956   2.665   5.992   9.865 -1.9018 -2.0565 -0.0653
  190POPC   C3821957   2.616   6.185   9.777 -0.0764 -0.2602 -0.5119
  190POPC   H8X21958   2.724   6.213   9.778  0.6105 -2.6796 -0.7124
  190POPC   H8Y21959   2.550   6.268   9.810  0.9657  0.2321  0.4191
  190POPC   C3921960   2.582   6.149   9.628  0.0680 -0.3376 -0.1446
  190POPC   H9X21961   2.551   6.242   9.576 -0.6830 -0.6764 -0.3158
  190POPC   H9Y21962   2.497   6.078   9.625 -0.8997  0.7074  1.1605
  190POPC  C31021963   2.704   6.096   9.558 -0.1193  0.3051  0.2138
  190POPC  H10X21964   2.736   6.000   9.603  1.2095  0.6486  0.0695
  190POPC  H10Y21965   2.791   6.166   9.560 -0.4174  0.8017 -1.7735
  190POPC  C31121966   2.674   6.079   9.407  0.4695  0.1911  0.0522
  190POPC  H11X21967   2.629   6.165   9.354 -0.4219 -0.1605  0.2201
  190POPC  H11Y21968   2.607   5.991   9.402  1.2654 -0.3831 -0.9588
  190POPC  C31221969   2.795   6.049   9.318  0.5436  0.4098 -0.3284
  190POPC  H12X21970   2.855   5.968   9.366  1.1714  0.9267 -0.2272
  190POPC  H12Y21971   2.851   6.144   9.310  1.2974  0.0940  0.9442
  190POPC  C31321972   2.750   6.021   9.174 -0.4593 -0.7355 -0.1068
  190POPC  H13X21973   2.661   6.085   9.156 -1.0133 -1.1025  1.2198
  190POPC  H13Y21974   2.712   5.917   9.179 -0.8957 -0.6608 -1.4962
  190POPC  C31421975   2.845   6.034   9.061  0.0672 -1.0282  0.2254
  190POPC  H14X21976   2.815   5.988   8.964  0.0040  1.9206 -1.2743
  190POPC  H14Y21977   2.939   5.983   9.092  0.0984 -0.3800  1.2325
  190POPC  C31521978   2.885   6.179   9.025 -0.4744  0.4279 -0.3320
  190POPC  H15X21979   2.955   6.181   8.939 -0.2318 -1.1927 -0.1979
  190POPC  H15Y21980   2.932   6.239   9.106  0.8716 -0.6893 -0.2424
  190POPC  C31621981   2.769   6.273   9.002  0.5376 -0.4270  0.3530
  190POPC  H16X21982   2.716   6.234   8.911  0.2853 -1.0504  0.7612
  190POPC  H16Y21983   2.802   6.378   8.990 -1.6812  0.4396  1.3178
  190POPC  H16Z21984   2.692   6.270   9.082  0.8934  1.4945  0.8219
  191POPC     N21985   6.754   1.712   5.888  0.5935  0.7902  0.2180
  191POPC   C1221986   6.743   1.764   6.031 -1.3191 -0.8956  0.0147
  191POPC  H12A21987   6.700   1.863   6.031  0.8373  0.1042 -0.9386
  191POPC  H12B21988   6.841   1.772   6.078 -1.4978 -0.9737  0.4052
  191POPC   C1321989   6.620   1.751   5.824  0.4007  0.0222  0.4915
  191POPC  H13A21990   6.600   1.857   5.817  0.7404  0.0005 -4.0890
  191POPC  H13B21991   6.618   1.730   5.718 -0.1235  1.3089  0.2256
  191POPC  H13C21992   6.540   1.698   5.872  0.8851 -0.7069  0.5041
  191POPC   C1421993   6.865   1.768   5.813  0.2872 -0.0281  0.8971
  191POPC  H14A21994   6.844   1.870   5.782 -0.0370 -1.1351 -3.0985
  191POPC  H14B21995   6.948   1.754   5.881 -1.8994 -2.0022  3.3485
  191POPC  H14C21996   6.877   1.700   5.730 -0.9697 -1.7990  2.1100
  191POPC   C1521997   6.756   1.555   5.875 -0.5212 -0.1989  0.6314
  191POPC  H15A21998   6.673   1.509   5.927 -0.8523 -0.5107 -0.1660
  191POPC  H15B21999   6.844   1.522   5.929 -0.2670  1.0301  1.0134
  191POPC  H15C22000   6.755   1.532   5.770  1.7137  0.6331  0.3542
  191POPC   C1122001   6.643   1.687   6.129 -0.2698  0.0129 -0.0163
  191POPC  H11A22002   6.658   1.709   6.237  0.3819  0.7778 -0.2468
  191POPC  H11B22003   6.667   1.579   6.115 -1.5585 -0.4244  0.9432
  191POPC     P22004   6.436   1.849   6.135  0.4804 -0.1392  0.4638
  191POPC   O1322005   6.296   1.857   6.086  0.0715  0.3347 -0.3349
  191POPC   O1422006   6.523   1.964   6.101 -0.0140 -0.0233  0.1355
  191POPC   O1222007   6.507   1.709   6.099 -0.1987 -0.3231  0.2740
  191POPC   O1122008   6.439   1.838   6.291 -0.1897 -0.5295  0.3415
  191POPC    C122009   6.323   1.846   6.383 -0.4374  0.4406 -0.1964
  191POPC    HA22010   6.332   1.758   6.450  2.0533 -0.5147 -1.6360
  191POPC    HB22011   6.228   1.835   6.325 -0.8104  1.9084  0.0901
  191POPC    C222012   6.327   1.972   6.473 -0.0086 -0.5016 -0.2507
  191POPC    HS22013   6.295   2.057   6.410  1.4726  0.6591  0.5060
  191POPC   O2122014   6.463   1.999   6.520  0.1131  0.1151 -0.4739
  191POPC   C2122015   6.497   2.130   6.525 -0.3825 -0.0140 -0.3571
  191POPC   O2222016   6.444   2.226   6.475  0.1598  0.5989  0.1667
  191POPC   C2222017   6.633   2.131   6.604  0.9049  0.1146  1.0688
  191POPC   H2R22018   6.675   2.234   6.591 -0.6072  0.7510  0.9525
  191POPC   H2S22019   6.695   2.052   6.557 -1.7796 -2.4786  1.5836
  191POPC    C322020   6.241   1.953   6.598 -0.1385  0.3853  0.7778
  191POPC    HX22021   6.282   1.871   6.660 -0.4374 -0.2908  0.0956
  191POPC    HY22022   6.138   1.924   6.567 -0.0039 -1.1581  1.6830
  191POPC   O3122023   6.237   2.073   6.667 -0.2555 -0.3323  0.2368
  191POPC   C3122024   6.121   2.143   6.685 -0.1218 -0.0943 -0.2058
  191POPC   O3222025   6.021   2.110   6.630 -0.3072  0.5404  0.7008
  191POPC   C3222026   6.153   2.255   6.782  0.0998 -0.5729 -0.2295
  191POPC   H2X22027   6.089   2.342   6.754  0.1825 -0.3721  0.1893
  191POPC   H2Y22028   6.262   2.275   6.771  0.0413 -0.7481 -1.1929
  191POPC   C2322029   6.630   2.106   6.759  0.1330  0.1013 -0.2369
  191POPC   H3R22030   6.684   2.014   6.790 -4.2840 -2.4543  0.6816
  191POPC   H3S22031   6.526   2.082   6.790  1.3538 -1.6520  3.0294
  191POPC   C2422032   6.687   2.226   6.839  0.0723 -0.2377  0.7394
  191POPC   H4R22033   6.766   2.283   6.786  1.2894  0.1875  2.8712
  191POPC   H4S22034   6.740   2.191   6.931 -0.9208  1.2052  1.8959
  191POPC   C2522035   6.584   2.324   6.896  0.4485 -0.1334  0.7738
  191POPC   H5R22036   6.531   2.272   6.979 -1.7777 -0.0378 -0.5079
  191POPC   H5S22037   6.505   2.345   6.821  0.6518 -0.0584  0.5799
  191POPC   C2622038   6.646   2.452   6.952 -0.2733 -0.0495 -0.3222
  191POPC   H6R22039   6.645   2.522   6.866 -0.5259  1.0013  0.5151
  191POPC   H6S22040   6.753   2.443   6.983 -0.0855  1.3236 -0.5155
  191POPC   C2722041   6.558   2.513   7.064 -0.4317 -0.1273 -0.3302
  191POPC   H7R22042   6.589   2.460   7.157 -1.6183  1.9246  1.3288
  191POPC   H7S22043   6.455   2.481   7.038 -0.0850 -0.4840 -1.3064
  191POPC   C2822044   6.576   2.666   7.098  0.3641  0.0232 -0.4715
  191POPC   H8R22045   6.495   2.687   7.172 -1.8012 -1.2373 -2.3451
  191POPC   H8S22046   6.557   2.733   7.011  2.0014  0.3687 -0.5880
  191POPC   C2922047   6.714   2.691   7.153  0.1498  0.3836 -0.0816
  191POPC   H9122048   6.805   2.671   7.094  1.2106  1.5505  1.0880
  191POPC  C21022049   6.739   2.743   7.271  0.1823 -0.1587  0.0276
  191POPC  H10122050   6.847   2.747   7.288  0.3219  1.6095 -1.0106
  191POPC  C21122051   6.645   2.788   7.378  0.2201  0.3147  0.3323
  191POPC  H11R22052   6.555   2.723   7.385  0.8834 -0.6470  0.0479
  191POPC  H11S22053   6.598   2.887   7.358 -2.7888  0.0310  4.4473
  191POPC  C21222054   6.723   2.799   7.509 -0.5182  0.1705  0.5142
  191POPC  H12R22055   6.825   2.839   7.490 -1.2658  1.6747 -0.4431
  191POPC  H12S22056   6.743   2.694   7.542 -0.0138 -0.5536 -1.8973
  191POPC  C21322057   6.659   2.876   7.632 -0.7087 -0.4007  0.1941
  191POPC  H13R22058   6.558   2.836   7.656 -1.3329  2.0744  2.0262
  191POPC  H13S22059   6.635   2.981   7.609 -0.5991 -0.2495  0.7517
  191POPC  C21422060   6.734   2.862   7.762 -0.5411 -1.0406  0.5927
  191POPC  H14R22061   6.838   2.898   7.751 -0.9366 -0.1828 -0.5916
  191POPC  H14S22062   6.742   2.753   7.783  0.4346 -0.5823  2.9650
  191POPC  C21522063   6.659   2.929   7.872 -0.5066 -0.9411 -0.1767
  191POPC  H15R22064   6.554   2.892   7.869 -0.8156 -0.0773 -0.3959
  191POPC  H15S22065   6.641   3.038   7.863  0.2071 -0.9105 -1.4311
  191POPC  C21622066   6.713   2.902   8.014 -0.0311  0.0912  0.6068
  191POPC  H16R22067   6.776   2.810   8.006  1.6262  1.3281 -2.6367
  191POPC  H16S22068   6.620   2.864   8.060 -0.0433 -1.1856 -0.3976
  191POPC  C21722069   6.777   3.012   8.093  0.3045 -0.7232 -0.7265
  191POPC  H17R22070   6.711   3.102   8.097  2.2144  0.7515 -0.9220
  191POPC  H17S22071   6.864   3.042   8.030  0.5774  0.6812  0.2817
  191POPC  C21822072   6.812   2.964   8.240  0.3572 -0.3434  0.4867
  191POPC  H18R22073   6.729   2.932   8.306 -0.0369 -1.9677 -0.7354
  191POPC  H18S22074   6.863   3.043   8.299 -1.9502  2.2553 -0.7641
  191POPC  H18T22075   6.883   2.881   8.221  0.6454  0.0583 -0.2630
  191POPC   C3322076   6.112   2.237   6.931  0.1236 -0.3338  0.3106
  191POPC   H3X22077   6.162   2.143   6.965  0.8692 -1.2208 -2.9121
  191POPC   H3Y22078   6.005   2.205   6.935 -0.1899 -0.0736 -3.1230
  191POPC   C3422079   6.150   2.360   7.017 -0.0288  0.0249 -0.2933
  191POPC   H4X22080   6.083   2.440   6.978 -0.4266 -0.7029 -1.1091
  191POPC   H4Y22081   6.254   2.384   6.985 -0.8489  2.6404 -1.2775
  191POPC   C3522082   6.150   2.339   7.172  0.4050 -0.5118  0.7135
  191POPC   H5X22083   6.217   2.252   7.191  0.8307 -0.4381 -0.3766
  191POPC   H5Y22084   6.050   2.310   7.210  1.4821 -3.6958  1.4043
  191POPC   C3622085   6.209   2.460   7.234 -0.2515  0.3078 -0.5330
  191POPC   H6X22086   6.145   2.551   7.233  1.3113  1.4405 -0.2792
  191POPC   H6Y22087   6.305   2.484   7.184  1.1381 -2.9897  0.2589
  191POPC   C3722088   6.235   2.432   7.381  0.5471 -0.3311 -0.4903
  191POPC   H7X22089   6.296   2.339   7.384  0.5249 -0.4015 -1.7106
  191POPC   H7Y22090   6.139   2.412   7.432 -0.6512  0.7134 -2.2420
  191POPC   C3822091   6.305   2.538   7.458 -0.7640  0.7034 -0.5133
  191POPC   H8X22092   6.230   2.618   7.478 -1.0148  0.7397 -1.5637
  191POPC   H8Y22093   6.378   2.583   7.386  1.2412 -0.0196  0.9614
  191POPC   C3922094   6.354   2.478   7.597  0.0191 -0.5026  0.1288
  191POPC   H9X22095   6.419   2.389   7.581  1.7413  0.8184 -0.5178
  191POPC   H9Y22096   6.259   2.457   7.651 -1.8005  2.3901 -1.6233
  191POPC  C31022097   6.422   2.577   7.691 -0.2584 -0.0423 -0.5023
  191POPC  H10X22098   6.359   2.668   7.706 -0.9638 -0.5306 -0.4306
  191POPC  H10Y22099   6.514   2.624   7.651  1.4808 -0.0246  3.0882
  191POPC  C31122100   6.453   2.515   7.828 -0.6664  0.8020 -0.2371
  191POPC  H11X22101   6.498   2.415   7.810 -3.0435 -0.8509  2.3398
  191POPC  H11Y22102   6.352   2.487   7.865  0.4465  0.3846  2.6842
  191POPC  C31222103   6.534   2.600   7.929 -0.4163  0.2597 -0.4628
  191POPC  H12X22104   6.481   2.695   7.950 -2.7748 -1.1638  0.5278
  191POPC  H12Y22105   6.636   2.626   7.895 -0.4814 -0.2633 -1.0777
  191POPC  C31322106   6.550   2.521   8.063 -0.4781  0.0687  0.8792
  191POPC  H13X22107   6.612   2.432   8.039 -2.4886 -1.0472 -0.4211
  191POPC  H13Y22108   6.449   2.491   8.099 -1.3912  3.4208  1.4238
  191POPC  C31422109   6.627   2.608   8.169  1.0539  0.5360 -0.6584
  191POPC  H14X22110   6.575   2.703   8.192  2.2404  1.0986 -0.1989
  191POPC  H14Y22111   6.724   2.631   8.120  0.0766  1.4275 -2.2480
  191POPC  C31522112   6.644   2.545   8.302  0.5714 -0.0668 -0.0727
  191POPC  H15X22113   6.749   2.568   8.330 -0.0710  3.1128  0.1592
  191POPC  H15Y22114   6.635   2.435   8.299 -0.8164 -0.0040  0.9300
  191POPC  C31622115   6.556   2.595   8.415  0.3765  0.4379 -0.3485
  191POPC  H16X22116   6.565   2.703   8.438  0.5431 -0.0106  1.9905
  191POPC  H16Y22117   6.590   2.546   8.509 -1.1093 -0.0030 -0.0084
  191POPC  H16Z22118   6.451   2.562   8.400  0.0119  1.2528  0.3285
  192POPC     N22119   4.390   3.843   6.215 -0.1205  0.4708  0.1495
  192POPC   C1222120   4.270   3.924   6.264  0.6203 -0.6021 -0.0585
  192POPC  H12A22121   4.263   4.017   6.208  1.4527 -0.7458 -0.4229
  192POPC  H12B22122   4.287   3.935   6.370 -1.9259 -3.3530  0.7582
  192POPC   C1322123   4.412   3.717   6.289  0.0320  0.1925  0.1693
  192POPC  H13A22124   4.440   3.739   6.391 -1.0372  4.7652 -0.2797
  192POPC  H13B22125   4.323   3.656   6.292  0.2456 -0.1936 -0.9886
  192POPC  H13C22126   4.486   3.665   6.230 -0.0855  0.4892 -0.2399
  192POPC   C1422127   4.359   3.803   6.073 -0.6196 -0.3122  0.2977
  192POPC  H14A22128   4.334   3.885   6.008  0.3649 -1.7487 -2.0449
  192POPC  H14B22129   4.447   3.761   6.026 -0.8569  0.2023 -0.6263
  192POPC  H14C22130   4.273   3.737   6.070 -0.6625 -0.2674 -2.3542
  192POPC   C1522131   4.513   3.940   6.220  0.3753  0.2334 -0.5155
  192POPC  H15A22132   4.603   3.895   6.179  1.3305  0.9973  0.6739
  192POPC  H15B22133   4.540   3.974   6.319 -0.0436 -0.0047 -0.3140
  192POPC  H15C22134   4.493   4.025   6.157 -2.0695  0.3390  0.3163
  192POPC   C1122135   4.124   3.868   6.275 -0.1692 -0.0052 -0.0354
  192POPC  H11A22136   4.089   3.855   6.170  1.1592 -1.1206 -0.3634
  192POPC  H11B22137   4.053   3.936   6.328 -0.4921 -3.5734  4.7107
  192POPC     P22138   4.093   3.705   6.473 -0.3100  0.3645 -0.2431
  192POPC   O1322139   4.080   3.557   6.470 -0.1992  0.3049  0.4384
  192POPC   O1422140   3.980   3.788   6.510 -0.0928  0.1494 -0.2523
  192POPC   O1222141   4.126   3.743   6.324  0.2734 -0.0288 -0.0746
  192POPC   O1122142   4.223   3.749   6.550  0.1228  0.1997 -0.2618
  192POPC    C122143   4.308   3.666   6.624 -0.7608 -0.4163 -0.0413
  192POPC    HA22144   4.409   3.709   6.610 -1.0246  0.0812 -0.4759
  192POPC    HB22145   4.316   3.563   6.584 -2.3141 -0.3891 -0.5159
  192POPC    C222146   4.247   3.646   6.760  0.6928 -0.2635  0.2055
  192POPC    HS22147   4.149   3.600   6.734  0.1803  0.6393  0.5128
  192POPC   O2122148   4.234   3.771   6.821  0.2611 -0.5425 -0.4755
  192POPC   C2122149   4.133   3.784   6.901 -0.1566  0.5007  0.6004
  192POPC   O2222150   4.052   3.700   6.936  0.4276  0.3871 -0.0772
  192POPC   C2222151   4.150   3.919   6.972  0.0141 -0.6439 -0.0050
  192POPC   H2R22152   4.079   3.918   7.057 -1.0027  0.1044 -0.8103
  192POPC   H2S22153   4.125   3.997   6.897  2.4808 -0.4989 -0.7613
  192POPC    C322154   4.334   3.551   6.851 -0.1130 -0.0671  0.1760
  192POPC    HX22155   4.433   3.601   6.861  0.1278 -0.6256  0.6848
  192POPC    HY22156   4.345   3.465   6.781 -1.0066 -0.5116  0.5681
  192POPC   O3122157   4.278   3.519   6.984 -0.5842 -0.7045  0.7868
  192POPC   C3122158   4.183   3.425   6.968 -0.0495  0.4747 -0.3326
  192POPC   O3222159   4.145   3.372   6.867 -0.4016  0.9139  0.0791
  192POPC   C3222160   4.146   3.369   7.098  0.3785 -0.1823  0.3947
  192POPC   H2X22161   4.057   3.427   7.131 -0.0137 -0.5141 -0.0772
  192POPC   H2Y22162   4.230   3.399   7.164  0.6290 -2.7947  1.3952
  192POPC   C2322163   4.296   3.950   7.020  0.2134  0.5289  0.2062
  192POPC   H3R22164   4.294   4.052   7.065 -1.4336  0.8562 -0.5156
  192POPC   H3S22165   4.367   3.963   6.936  1.7243 -0.5319  1.2647
  192POPC   C2422166   4.352   3.852   7.121  0.2295 -0.5993  0.0485
  192POPC   H4R22167   4.442   3.889   7.175  0.5626 -2.6469  1.0036
  192POPC   H4S22168   4.402   3.770   7.064  0.4585 -0.0595 -0.5349
  192POPC   C2522169   4.259   3.795   7.222  0.0782  0.7317  0.1129
  192POPC   H5R22170   4.171   3.746   7.175  0.6065 -1.0741  0.8985
  192POPC   H5S22171   4.219   3.878   7.283  0.5025  2.2134 -1.5590
  192POPC   C2622172   4.318   3.697   7.324 -0.0490  0.3420  0.1561
  192POPC   H6R22173   4.354   3.608   7.269 -2.1709 -1.0835  0.9401
  192POPC   H6S22174   4.228   3.658   7.377 -0.4423 -0.2943 -0.9587
  192POPC   C2722175   4.421   3.753   7.420  0.6793 -0.5137 -0.2828
  192POPC   H7R22176   4.375   3.848   7.455 -0.7282 -0.6294 -1.6583
  192POPC   H7S22177   4.520   3.777   7.375 -0.3523  2.9870 -0.9870
  192POPC   C2822178   4.449   3.662   7.549  0.9087 -0.1129  0.4716
  192POPC   H8R22179   4.529   3.711   7.608 -0.8628  2.3429  0.9849
  192POPC   H8S22180   4.485   3.580   7.483 -1.2808  0.8876 -2.1148
  192POPC   C2922181   4.333   3.612   7.631 -0.5111  0.2370 -0.0754
  192POPC   H9122182   4.279   3.524   7.592  0.5541 -0.4073 -0.1341
  192POPC  C21022183   4.298   3.656   7.750 -0.0392 -0.0459 -0.3999
  192POPC  H10122184   4.206   3.624   7.800  0.1397 -0.9172 -0.6132
  192POPC  C21122185   4.381   3.752   7.832  0.5331  1.3074  0.2417
  192POPC  H11R22186   4.362   3.858   7.805 -1.0295  0.3252 -2.9075
  192POPC  H11S22187   4.488   3.732   7.810 -0.5272 -2.1209 -2.6460
  192POPC  C21222188   4.373   3.734   7.982 -0.2724  0.1570 -0.2344
  192POPC  H12R22189   4.432   3.813   8.032 -2.4212  1.2768  0.6702
  192POPC  H12S22190   4.405   3.631   8.010 -1.6843  0.0900  1.3351
  192POPC  C21322191   4.232   3.754   8.047 -0.4156  0.1233 -0.3663
  192POPC  H13R22192   4.146   3.700   8.001 -0.3435 -2.8749  2.6135
  192POPC  H13S22193   4.202   3.858   8.024 -0.9663 -0.5838 -3.3608
  192POPC  C21422194   4.232   3.725   8.194 -0.1502 -0.5971  0.8477
  192POPC  H14R22195   4.133   3.762   8.230 -0.4832  0.0901 -0.6896
  192POPC  H14S22196   4.318   3.777   8.242  1.1452 -0.4759 -1.4648
  192POPC  C21522197   4.263   3.579   8.237  0.6221  0.4847  0.7227
  192POPC  H15R22198   4.362   3.561   8.189  0.4997  1.5565  0.0409
  192POPC  H15S22199   4.190   3.512   8.186  2.6734  0.1643 -2.0719
  192POPC  C21622200   4.263   3.554   8.388  0.2428 -0.1303  0.1147
  192POPC  H16R22201   4.165   3.549   8.442  0.6911 -0.0626  0.9573
  192POPC  H16S22202   4.313   3.645   8.429 -0.5568  0.0978  0.6061
  192POPC  C21722203   4.340   3.425   8.422  0.3112 -0.2816 -0.2879
  192POPC  H17R22204   4.432   3.428   8.360  0.7889  1.1419  0.4373
  192POPC  H17S22205   4.293   3.328   8.395 -2.2373 -0.3045  3.4635
  192POPC  C21822206   4.362   3.417   8.572 -0.4222  0.5711 -0.0218
  192POPC  H18R22207   4.374   3.520   8.614 -1.1230  0.0167  1.6353
  192POPC  H18S22208   4.452   3.356   8.592 -0.6761 -1.0810 -3.3102
  192POPC  H18T22209   4.268   3.380   8.619  0.6502  0.8217  2.4647
  192POPC   C3322210   4.124   3.217   7.092  0.1363 -0.1387 -0.4563
  192POPC   H3X22211   4.218   3.158   7.094 -1.3735 -2.6933 -0.5476
  192POPC   H3Y22212   4.064   3.189   7.003 -1.1084  0.1376  0.2595
  192POPC   C3422213   4.040   3.165   7.212  0.4195 -0.2751  0.6751
  192POPC   H4X22214   4.017   3.061   7.182 -0.3279  0.5267 -1.7548
  192POPC   H4Y22215   3.947   3.226   7.218  0.7707  0.6035 -1.7299
  192POPC   C3522216   4.110   3.173   7.347  0.3994 -0.2432 -0.4158
  192POPC   H5X22217   4.135   3.275   7.381  1.1800 -0.1074 -1.3522
  192POPC   H5Y22218   4.208   3.120   7.335  0.5107 -0.4688  1.2779
  192POPC   C3622219   4.029   3.101   7.457 -0.6139 -0.2713 -0.4853
  192POPC   H6X22220   4.016   2.994   7.428  0.5948 -0.8588  0.9464
  192POPC   H6Y22221   3.922   3.127   7.453 -1.1574 -2.2387 -0.0777
  192POPC   C3722222   4.077   3.110   7.597  0.2544  0.3351 -0.0544
  192POPC   H7X22223   4.142   3.027   7.631 -0.4612  0.6727  2.4005
  192POPC   H7Y22224   3.982   3.100   7.655  0.4883 -0.7991  0.1475
  192POPC   C3822225   4.145   3.245   7.644  0.2984  0.3257  0.1501
  192POPC   H8X22226   4.095   3.335   7.602 -1.8395 -0.3895  0.9967
  192POPC   H8Y22227   4.252   3.240   7.614  0.9302 -0.5524  2.3419
  192POPC   C3922228   4.142   3.265   7.800  0.1915 -0.4275 -0.6641
  192POPC   H9X22229   4.206   3.347   7.838 -2.9368  1.0500  1.9165
  192POPC   H9Y22230   4.174   3.168   7.842  4.8877  1.3867  0.5655
  192POPC  C31022231   3.997   3.288   7.864  0.0245 -0.7051 -0.3556
  192POPC  H10X22232   3.924   3.209   7.836  0.2903 -0.7582 -0.9004
  192POPC  H10Y22233   3.968   3.388   7.825  3.6442  0.6302 -0.0506
  192POPC  C31122234   3.998   3.311   8.012 -0.3950 -0.2253  0.0945
  192POPC  H11X22235   4.060   3.399   8.040 -1.3631  0.2634  0.7565
  192POPC  H11Y22236   4.043   3.226   8.068  0.5738  1.4242  1.9456
  192POPC  C31222237   3.853   3.341   8.067  0.1098 -0.6291  0.4376
  192POPC  H12X22238   3.785   3.256   8.048 -0.9851  0.5581 -1.2020
  192POPC  H12Y22239   3.811   3.431   8.019  1.7943 -0.5327 -0.9668
  192POPC  C31322240   3.865   3.373   8.221  0.7465  0.4872  0.5751
  192POPC  H13X22241   3.782   3.441   8.247  1.3581  0.7243  1.9903
  192POPC  H13Y22242   3.964   3.421   8.237 -0.0360  2.0999  0.7761
  192POPC  C31422243   3.840   3.242   8.304 -0.1696  0.5607 -0.6374
  192POPC  H14X22244   3.919   3.167   8.284  1.3536  1.9274 -0.0017
  192POPC  H14Y22245   3.741   3.200   8.276 -0.0450  1.5051 -2.6950
  192POPC  C31522246   3.817   3.259   8.460 -0.4425 -0.2941 -0.4360
  192POPC  H15X22247   3.795   3.159   8.502  2.0712 -1.0949 -0.8655
  192POPC  H15Y22248   3.729   3.326   8.474  0.5937  1.1801 -0.7992
  192POPC  C31622249   3.944   3.309   8.529 -1.1885  0.0214  0.3135
  192POPC  H16X22250   4.031   3.257   8.483  0.2371  0.9603  1.8022
  192POPC  H16Y22251   3.951   3.297   8.640 -0.8333 -2.2051  0.0928
  192POPC  H16Z22252   3.970   3.416   8.514 -3.3236  0.5457  0.1029
  193SOD    SOD22253   3.958   0.518   4.776 -0.2359 -0.1009  0.1375
  194SOD    SOD22254   0.984   4.821  13.872  0.1594  0.0357 -0.2781
  195SOD    SOD22255   5.117   5.928  11.117 -0.1324 -0.5629  0.0234
  196SOD    SOD22256   1.899   1.840  11.456  0.1142  0.4814  0.2223
  197SOD    SOD22257   5.496   3.883  15.230 -0.2247 -0.2471  0.4025
  198SOD    SOD22258   2.345   1.306   3.978  0.1920  0.5387  0.2183
  199SOD    SOD22259   1.356   1.040  12.905  0.1455  0.6618  0.2108
  200SOD    SOD22260   1.481   1.199   2.773 -0.0109 -0.5191  0.6148
  201SOD    SOD22261   4.534   0.260  11.439  0.1360  0.4899 -0.2744
  202SOD    SOD22262   3.279   2.837   2.014 -0.5641 -0.4580 -0.0171
  203SOD    SOD22263   0.980   1.527  16.369  0.0854 -0.2092  0.0923
  204SOD    SOD22264   5.747   4.661   4.490  0.6298  0.0698 -0.1190
  205SOD    SOD22265   1.122   4.211  12.811 -0.1243 -0.0818 -0.1122
  206SOD    SOD22266   6.297   2.625   6.213  0.1437 -0.9141  0.4845
  207SOD    SOD22267   3.592   0.440  15.682  0.5323 -0.2612 -0.2592
  208SOD    SOD22268   1.799   1.413   1.345 -0.1377  0.3676  0.0769
  209SOD    SOD22269   1.800   5.978   1.514  0.2616 -0.1639 -0.6700
  210SOD    SOD22270   5.604   5.697  14.787 -0.2613 -0.3110 -0.2520
  211SOD    SOD22271   4.790   4.676  10.910 -0.0218  0.2564  0.1970
  212SOD    SOD22272   3.405   3.936  17.195 -0.0256  0.2909  0.2645
  213SOD    SOD22273   2.251   1.078   0.529  0.4803  0.0259  0.0353
  214SOD    SOD22274   4.872   2.019  15.284 -0.1589  0.5465 -0.0793
  215SOD    SOD22275   3.641   3.236  11.845  0.0658  0.1843  0.0711
  216SOD    SOD22276   5.203   0.456   5.944  0.0783  0.1022 -0.0758
  217SOD    SOD22277   1.883   4.944   6.602 -0.0737 -0.1170 -0.4603
  218SOD    SOD22278   2.144   2.750  15.240  0.2221  0.5194 -0.4886
  219SOD    SOD22279   4.555   1.279  12.982  0.1132  0.0792  0.0817
  220SOD    SOD22280   2.119   6.678   1.681 -0.0428  0.3519  0.0730
  221SOD    SOD22281   2.954   5.008   6.197 -0.0871 -0.0915  1.0336
  222SOD    SOD22282   2.618   0.741  11.884 -0.3902  0.0296 -0.2633
  223SOD    SOD22283   1.490   1.160   5.841 -0.0653  0.2221  0.1477
  224SOD    SOD22284   6.762   2.440  16.038 -0.0264 -0.0174  0.1150
  225SOD    SOD22285   0.257   3.141  11.836  0.1148 -0.4264 -0.0681
  226SOD    SOD22286   4.753   2.864  11.984 -0.6391 -0.1224  0.5228
  227SOD    SOD22287   0.648   6.229   4.116  0.1261 -0.0328  0.3353
  228SOD    SOD22288   1.668   2.822  13.376 -0.7463  0.2912 -0.0110
  229SOD    SOD22289   2.354   3.897  13.279 -0.3753 -0.3405  0.1521
  230SOD    SOD22290   0.111   3.972  12.928 -0.0321 -0.5057 -0.2364
  231SOD    SOD22291   6.400   3.063   5.397 -0.2536 -0.1425  0.1797
  232SOD    SOD22292   4.997   3.835   3.601  0.2632 -0.4185  0.1412
  233SOD    SOD22293   5.177   0.638  12.464  0.0067 -0.1654 -0.1632
  234SOD    SOD22294   4.661   4.335  12.226  0.2131  0.0572 -0.2219
  235SOD    SOD22295   0.862   0.085  11.207 -0.4926 -0.4328  0.1232
  236SOD    SOD22296   3.484   2.672  13.116  0.5296  0.2478  0.0630
  237SOD    SOD22297   2.567   0.862   2.975 -0.0275 -0.2266 -0.3658
  238SOD    SOD22298   1.020   2.034  13.638 -0.2800  0.5023 -0.1559
  239SOD    SOD22299   6.760   4.609  16.926 -0.0462 -0.0742  0.0622
  240SOD    SOD22300   0.703   6.715   6.132 -0.0347 -0.0474  0.2985
  241SOD    SOD22301   4.108   2.381  10.383  0.1171  0.3086 -0.3261
  242SOD    SOD22302   0.515   3.944   4.714  0.4352 -0.2207  0.1721
  243SOD    SOD22303   1.474   0.720  15.334 -0.4485  0.0889 -0.0902
  244SOD    SOD22304   3.468   3.520   1.167  0.3717 -0.0489 -0.1452
  245SOD    SOD22305   4.934   0.751  14.869 -0.1711 -0.3462  0.2555
  246SOD    SOD22306   1.173   6.755  11.993  0.9439 -0.5848  0.4048
  247SOD    SOD22307   4.089   6.054  14.617 -0.0089  0.2696  0.3856
  248SOD    SOD22308   3.393   5.238  12.032  0.0711 -0.2829 -0.2978
  249SOD    SOD22309   2.988   3.154  11.061  0.0303  0.2197  0.2882
  250SOD    SOD22310   3.988   3.954  10.728  0.2205  0.2709 -0.0608
  251SOD    SOD22311   4.666   5.603   6.361  0.0571  0.3982  0.7737
  252SOD    SOD22312   3.674   5.996   3.758 -0.4700 -0.4223  0.2260
  253SOD    SOD22313   3.558   4.357  12.524 -0.2797  0.2786 -0.3804
  254SOD    SOD22314   0.896   1.033   5.643 -0.3930  0.0358  0.3813
  255SOD    SOD22315   5.039   1.142   6.636 -0.1418  0.1935 -0.6474
  256SOD    SOD22316   3.267   4.272  14.832 -0.0605 -0.5242  0.2543
  257SOD    SOD22317   2.901   2.040  16.162  0.0437  0.1985  0.7362
  258SOD    SOD22318   3.491   3.384  13.367  0.5639 -0.0385  0.7420
  259SOD    SOD22319   3.595   0.255  12.422 -0.2221 -0.0071 -0.2091
  260SOD    SOD22320   4.202   1.646   1.395  0.4999 -0.0870  0.0678
  261SOD    SOD22321   4.742   3.260  15.406  0.8451 -0.0128  0.1484
  262SOD    SOD22322   3.182   3.373   0.216 -0.0936  0.6878 -0.4205
  263SOD    SOD22323   6.632   0.408  11.883 -0.0116  0.5948 -0.0505
  264SOD    SOD22324   2.758   3.542   2.419 -0.2200 -0.2034 -0.0693
  265SOD    SOD22325   5.932   3.472   2.313 -0.1802 -0.0829  0.3408
  266SOD    SOD22326   4.799   0.568   5.048  0.3674  0.0854  0.2089
  267SOD    SOD22327   6.671   4.086  11.175 -0.3326  0.6418 -0.7459
  268SOD    SOD22328   5.105   5.063  15.306 -0.7328 -0.1176 -0.1576
  269SOD    SOD22329   1.898   4.439   4.098 -0.1756 -0.2390 -0.2434
  270CLA    CLA22330   4.217   0.842   0.872  0.0677 -0.2319  0.0968
  271CLA    CLA22331   3.860   2.913  15.660 -0.3172 -0.6257 -0.4651
  272CLA    CLA22332   2.484   0.838   1.325  0.3186  0.0029 -0.0903
  273CLA    CLA22333   6.041   5.608   1.971 -0.2044 -0.3462 -0.0953
  274CLA    CLA22334   4.037   2.954  17.059 -0.1236  0.4230 -0.3526
  275CLA    CLA22335   2.195   3.595  16.644 -0.4595  0.1427 -0.0648
  276CLA    CLA22336   3.637   3.512  12.682 -0.1101 -0.0379 -0.6683
  277CLA    CLA22337   3.485   3.265  12.318  0.1658 -0.0357 -0.2218
  278CLA    CLA22338   6.645   1.881  13.336 -0.3917  0.0913 -0.1069
  279CLA    CLA22339   4.263   0.160  16.668 -0.0972  0.0322 -0.0226
  280CLA    CLA22340   1.662   1.931  16.893  0.3839  0.0028  0.0300
  281CLA    CLA22341   1.236   3.281   4.063  0.1800  0.4302  0.1721
  282CLA    CLA22342   3.596   1.097   4.074  0.1365  0.0247 -0.5696
  283CLA    CLA22343   0.367   5.999   0.886  0.0852 -0.0508 -0.2843
  284CLA    CLA22344   3.955   4.433  13.734 -0.1844 -0.3735 -0.0439
  285CLA    CLA22345   3.110   4.609  12.249  0.2866  0.2502 -0.3709
  286CLA    CLA22346   1.629   4.205  12.599 -0.3789  0.2773  0.2198
  287CLA    CLA22347   5.123   3.851  16.859 -0.0324 -0.0139  0.2368
  288CLA    CLA22348   5.683   4.372   1.936  0.1696 -0.3718 -0.0373
  289CLA    CLA22349   2.284   1.026   2.602  0.1955  0.0977  0.2854
  290CLA    CLA22350   6.115   6.282  14.392  0.1902  0.1405  0.1395
  291CLA    CLA22351   5.380   5.071  15.260  0.3016  0.4016  0.4625
  292CLA    CLA22352   4.736   4.057  14.056  0.2739  0.1550 -0.0359
  293CLA    CLA22353   3.444   0.981  15.775  0.1166  0.0467 -0.2666
  294CLA    CLA22354   3.963   0.313  12.820 -0.0116 -0.0396 -0.1929
  295CLA    CLA22355   5.082   3.314   4.516 -0.1324 -0.1179 -0.2751
  296CLA    CLA22356   1.260   2.113  14.482 -0.0922  0.0841  0.1392
  297CLA    CLA22357   0.884   2.168  13.846  0.2152  0.1574 -0.1330
  298CLA    CLA22358   4.750   5.294   3.806  0.0799  0.0475 -0.3170
  299CLA    CLA22359   3.971   6.084   2.356  0.1476  0.0231 -0.3346
  300CLA    CLA22360   3.039   2.666   1.516  0.4156 -0.3440  0.0519
  301CLA    CLA22361   0.850   1.133  13.262 -0.1303  0.1663 -0.3015
  302CLA    CLA22362   1.763   4.164  14.252 -0.0687 -0.5204  0.3729
  303CLA    CLA22363   2.060   6.011   3.980 -0.0378  0.2310 -0.1952
  304CLA    CLA22364   4.603   3.490   0.476 -0.5346 -0.2826 -0.1934
  305CLA    CLA22365   0.476   0.514  13.641  0.4054  0.2753  0.2871
  306CLA    CLA22366   6.446   1.380  14.648 -0.0515  0.2543 -0.3416
  307CLA    CLA22367   0.727   0.272  13.307 -0.5397  0.1036 -0.0991
  308CLA    CLA22368   5.970   5.419  15.065  0.0981  0.0430  0.3570
  309CLA    CLA22369   2.634   1.432  15.203 -0.1251 -0.0970  0.2786
  310CLA    CLA22370   3.634   5.981  12.408 -0.4312 -0.3181 -0.2903
  311CLA    CLA22371   2.686   1.392  11.865 -0.0698  0.1338 -0.2946
  312CLA    CLA22372   2.387   2.526  14.560  0.2391  0.1953  0.5207
  313CLA    CLA22373   0.866   6.252  15.156  0.1817  0.0666  0.3763
  314CLA    CLA22374   6.727   2.322  11.286  0.1384 -0.0701 -0.0054
  315CLA    CLA22375   3.671   5.247  14.326 -0.0938  0.0989 -0.0481
  316CLA    CLA22376   3.255   4.869   1.127  0.1864  0.4075 -0.2593
  317CLA    CLA22377   5.784   0.813   3.740 -0.1697  0.1549  0.1688
  318CLA    CLA22378   1.346   1.786   5.195 -0.0520 -0.2347 -0.0256
  319CLA    CLA22379   4.721   3.908   2.057 -0.2077  0.2502  0.0152
  320CLA    CLA22380   3.984   3.384  13.508 -0.2065  0.2008 -0.1126
  321CLA    CLA22381   2.497   1.692   3.292  0.2140 -0.2004 -0.3275
  322CLA    CLA22382   2.744   4.124  12.059 -0.0645 -0.0860  0.5480
  323TIP3   OH222383   1.902   2.991   1.319  0.2644  0.1466  0.2240
  323TIP3    H122384   1.853   3.049   1.378  2.1418  1.4720  0.5677
  323TIP3    H222385   1.939   3.050   1.253  1.3964 -0.8022 -0.0141
  324TIP3   OH222386   4.183   3.765   3.289 -0.8200 -0.2221 -0.5989
  324TIP3    H122387   4.188   3.815   3.371 -0.2606 -0.1197 -0.6902
  324TIP3    H222388   4.267   3.717   3.286 -1.2204 -0.9425 -0.6523
  325TIP3   OH222389   1.964   5.849   5.095 -0.2576  0.0737 -0.1057
  325TIP3    H122390   2.018   5.914   5.050  1.1414 -0.6289  0.4873
  325TIP3    H222391   1.934   5.893   5.174 -0.7974  0.5598 -0.5752
  326TIP3   OH222392   3.691   3.882   5.217  0.6403  0.4799  0.0327
  326TIP3    H122393   3.740   3.812   5.174 -0.2046  0.8362 -1.6060
  326TIP3    H222394   3.612   3.892   5.164 -0.1090  1.4804  1.2623
  327TIP3   OH222395   6.586   4.278   4.664 -0.4874 -0.0179 -0.5212
  327TIP3    H122396   6.574   4.184   4.656  0.0694 -0.0064 -1.5776
  327TIP3    H222397   6.638   4.289   4.744  0.2159 -0.6793 -0.8730
  328TIP3   OH222398   0.555   3.161  13.358  0.1250  0.2679 -0.1072
  328TIP3    H122399   0.503   3.241  13.363  0.3476  0.4253 -0.3084
  328TIP3    H222400   0.644   3.188  13.383  0.3719  0.2448 -0.9229
  329TIP3   OH222401   2.841   3.058  15.906  0.9143 -0.1725  0.3707
  329TIP3    H122402   2.800   3.093  15.827  0.6475 -2.1048 -0.4097
  329TIP3    H222403   2.815   3.118  15.976  0.6767  1.2622 -0.8913
  330TIP3   OH222404   3.187   1.526  13.619  0.0353 -0.2074 -0.4450
  330TIP3    H122405   3.270   1.544  13.664 -0.0756  0.6081 -0.5531
  330TIP3    H222406   3.211   1.470  13.546  0.3276 -0.9191  0.1782
  331TIP3   OH222407   0.077   4.574   1.334  0.1568  0.9391 -0.5988
  331TIP3    H122408   0.039   4.522   1.263 -0.0407  2.6827 -1.8260
  331TIP3    H222409   0.002   4.599   1.389 -0.3469  3.0400 -2.1326
  332TIP3   OH222410   5.989   2.978   5.603  0.8409 -0.3232  0.4835
  332TIP3    H122411   5.972   3.062   5.559 -1.2565 -0.4026  1.0678
  332TIP3    H222412   6.082   2.982   5.625  1.0279  1.4142 -0.4132
  333TIP3   OH222413   3.471   2.243  14.943  0.3332  0.0107  0.0951
  333TIP3    H122414   3.495   2.321  14.893 -1.4153  0.3982 -0.2027
  333TIP3    H222415   3.478   2.171  14.880  1.1517  0.0315  0.1504
  334TIP3   OH222416   0.225   3.801   3.063 -0.4560 -0.6391 -0.2539
  334TIP3    H122417   0.194   3.715   3.092 -2.1534  0.2133  0.5554
  334TIP3    H222418   0.252   3.787   2.972 -0.3178 -2.1105 -0.0050
  335TIP3   OH222419   1.539   5.894   6.137 -0.1423  0.0984  0.1403
  335TIP3    H122420   1.521   5.986   6.160  0.9771  0.1214  1.0021
  335TIP3    H222421   1.631   5.881   6.160  0.1721 -0.8004 -1.4806
  336TIP3   OH222422   6.204   0.646   1.473  0.0540 -0.6012 -0.3106
  336TIP3    H122423   6.211   0.732   1.432 -2.4040 -0.1752 -0.0309
  336TIP3    H222424   6.141   0.659   1.545  0.5481 -2.3690  0.4952
  337TIP3   OH222425   3.818   3.233   4.464 -0.2069  0.1904 -1.0614
  337TIP3    H122426   3.853   3.289   4.395  0.4408  0.0319 -0.8698
  337TIP3    H222427   3.894   3.185   4.497 -0.2457  1.2697  0.7305
  338TIP3   OH222428   4.293   5.283  10.538  0.0780  0.0184 -0.0540
  338TIP3    H122429   4.202   5.308  10.527 -0.0438  2.7913  4.5258
  338TIP3    H222430   4.340   5.331  10.469 -1.7100 -0.3316 -1.5886
  339TIP3   OH222431   2.125   6.020  15.440  0.1367 -0.1280 -0.1401
  339TIP3    H122432   2.030   6.023  15.447  0.1359  0.6465 -0.3279
  339TIP3    H222433   2.141   5.978  15.355 -0.0664  0.6349 -0.5675
  340TIP3   OH222434   3.491   5.385  11.881 -0.1467 -0.5949  0.0930
  340TIP3    H122435   3.433   5.387  11.805 -0.5582 -0.7453  0.3961
  340TIP3    H222436   3.579   5.382  11.844 -0.2984  0.3656 -0.3748
  341TIP3   OH222437   6.255   2.158   0.905  0.2300 -0.1769 -0.1056
  341TIP3    H122438   6.180   2.107   0.875  0.3152 -0.8964  0.8479
  341TIP3    H222439   6.270   2.128   0.995 -0.1625  2.0403  0.7680
  342TIP3   OH222440   4.112   2.605  10.337  0.0243 -0.4665 -0.8275
  342TIP3    H122441   4.041   2.662  10.366  0.6617 -0.1605  0.1837
  342TIP3    H222442   4.192   2.648  10.368  0.4529 -2.8591  1.7364
  343TIP3   OH222443   5.915   1.720  16.167  0.2046  0.1348  0.2660
  343TIP3    H122444   5.992   1.718  16.224  0.7996 -0.4785 -0.5210
  343TIP3    H222445   5.865   1.796  16.195  0.7974  0.1943  1.1866
  344TIP3   OH222446   0.846   5.132  16.507 -0.4621  0.2360  0.4509
  344TIP3    H122447   0.764   5.084  16.508 -1.0345  1.1811  0.2933
  344TIP3    H222448   0.824   5.216  16.466  0.7504  0.1953 -0.3314
  345TIP3   OH222449   4.237   6.379  16.583 -0.3539 -0.0679 -0.3464
  345TIP3    H122450   4.154   6.401  16.625 -0.2024 -0.3909  0.1358
  345TIP3    H222451   4.212   6.328  16.506 -0.5721 -1.4421  0.5894
  346TIP3   OH222452   0.880   4.318  14.900  0.3692  0.7238  0.3050
  346TIP3    H122453   0.882   4.305  14.806  1.4414 -0.7210  0.5062
  346TIP3    H222454   0.967   4.351  14.922  0.2442  0.7174  0.8261
  347TIP3   OH222455   1.700   0.920  12.017  0.0486  0.2770 -0.4507
  347TIP3    H122456   1.706   1.015  12.015  1.2302  0.2285  0.0191
  347TIP3    H222457   1.778   0.890  11.970 -0.0477 -0.4649 -0.1526
  348TIP3   OH222458   0.781   6.598   5.530 -0.5929  0.3663  0.8539
  348TIP3    H122459   0.846   6.651   5.576 -0.1678  0.1297  0.5335
  348TIP3    H222460   0.795   6.618   5.438 -0.3926 -0.3466  0.7265
  349TIP3   OH222461   5.233   6.650   3.113  0.4095  0.2202  0.1054
  349TIP3    H122462   5.258   6.574   3.166 -0.0218  0.6910  0.9836
  349TIP3    H222463   5.214   6.613   3.027  1.8646 -0.4527  0.0388
  350TIP3   OH222464   5.255   5.928   4.864  0.4255 -0.0446  0.1959
  350TIP3    H122465   5.304   5.860   4.912  1.1424 -0.4042 -1.0108
  350TIP3    H222466   5.242   5.891   4.777 -0.6705  0.6911  0.0357
  351TIP3   OH222467   3.300   4.817  13.395 -0.4867  0.4499  0.5417
  351TIP3    H122468   3.288   4.911  13.381  1.0061  0.8271  1.5565
  351TIP3    H222469   3.273   4.803  13.486 -1.0625 -0.1813  0.2799
  352TIP3   OH222470   6.638   1.337   4.698 -0.3391 -0.1594 -0.2870
  352TIP3    H122471   6.680   1.414   4.661 -0.0312  0.3135  0.9923
  352TIP3    H222472   6.637   1.353   4.792 -2.2400 -0.7349 -0.1558
  353TIP3   OH222473   6.715   4.822  16.463  0.1829  0.1428 -0.2661
  353TIP3    H122474   6.778   4.840  16.533  1.6213  0.3712 -1.5668
  353TIP3    H222475   6.741   4.736  16.429  1.1789  1.1194 -2.1634
  354TIP3   OH222476   0.921   2.597   0.552 -0.1589  0.3606 -0.3862
  354TIP3    H122477   0.926   2.503   0.570  0.2925  0.5795  0.7354
  354TIP3    H222478   0.849   2.628   0.607  1.3183  1.0692  1.2619
  355TIP3   OH222479   5.751   1.621   5.862 -1.0969  0.5094 -0.1067
  355TIP3    H122480   5.821   1.556   5.861 -0.4139  1.0687  2.7111
  355TIP3    H222481   5.704   1.604   5.943 -0.2677  4.0501  1.3111
  356TIP3   OH222482   4.446   0.470  16.971 -0.3356 -0.0898  0.1149
  356TIP3    H122483   4.456   0.418  17.051  1.3415  1.7294  1.1601
  356TIP3    H222484   4.494   0.420  16.905 -1.0631 -1.2107  0.3872
  357TIP3   OH222485   3.700   3.981   2.731  0.6675  0.0615  0.1104
  357TIP3    H122486   3.743   4.066   2.742  1.2575 -0.2390  0.1951
  357TIP3    H222487   3.773   3.918   2.731  0.2450 -0.4289 -0.0766
  358TIP3   OH222488   6.562   4.742   1.641 -0.1572  0.0838 -1.0169
  358TIP3    H122489   6.611   4.824   1.643  0.8104 -0.4477 -2.0872
  358TIP3    H222490   6.624   4.676   1.672 -0.7229 -0.3582 -0.7943
  359TIP3   OH222491   6.513   1.398  14.171 -0.5696  0.0114  0.4264
  359TIP3    H122492   6.467   1.447  14.103 -1.1397 -0.4102  0.4942
  359TIP3    H222493   6.517   1.458  14.246 -1.4086 -0.0916  0.5635
  360TIP3   OH222494   3.389   4.501  12.133 -0.3739 -0.3301  0.0894
  360TIP3    H122495   3.367   4.429  12.074  0.0714  0.0905 -0.6057
  360TIP3    H222496   3.307   4.549  12.144 -0.3302 -0.0700 -0.6673
  361TIP3   OH222497   0.271   3.374   4.246  0.3226  0.5720 -0.4585
  361TIP3    H122498   0.330   3.327   4.186  1.0116 -0.9751  1.3197
  361TIP3    H222499   0.328   3.406   4.316 -0.5002  2.1144 -0.4473
  362TIP3   OH222500   1.673   3.051  13.755 -0.1819  0.0889 -0.2634
  362TIP3    H122501   1.613   3.122  13.730 -0.3612 -0.0146 -0.1361
  362TIP3    H222502   1.750   3.096  13.789 -0.8443  0.2381  1.1324
  363TIP3   OH222503   1.736   1.853  15.316 -0.2864  0.1660  0.0207
  363TIP3    H122504   1.740   1.925  15.380  1.3381 -0.0534  0.2008
  363TIP3    H222505   1.742   1.897  15.231 -2.1643  0.4350 -0.0223
  364TIP3   OH222506   1.897   2.160   6.488  0.4434 -0.1148  0.6378
  364TIP3    H122507   1.919   2.200   6.572 -0.7776 -0.5676  1.2018
  364TIP3    H222508   1.932   2.071   6.494 -1.1723 -0.7408  1.4199
  365TIP3   OH222509   6.346   4.069   1.026 -0.6429  0.7446 -0.1742
  365TIP3    H122510   6.258   4.034   1.014 -1.5832  2.0534  2.3009
  365TIP3    H222511   6.356   4.135   0.956  0.1795 -2.3261 -3.2490
  366TIP3   OH222512   4.388   2.101  13.403 -0.7607 -0.3892  0.1483
  366TIP3    H122513   4.481   2.089  13.385 -1.0569 -0.7084 -1.3434
  366TIP3    H222514   4.350   2.014  13.390 -1.1475 -0.4681  1.6742
  367TIP3   OH222515   3.300   3.984   5.793  0.4963 -0.2453 -0.1835
  367TIP3    H122516   3.222   3.933   5.813  0.1992 -0.0678 -0.8696
  367TIP3    H222517   3.319   3.965   5.701  0.0819  1.2687 -0.6052
  368TIP3   OH222518   1.765   5.696  12.563 -0.3685  0.3077  0.1396
  368TIP3    H122519   1.771   5.790  12.547 -0.4965  0.0876 -1.3691
  368TIP3    H222520   1.831   5.679  12.630 -0.7533  1.5446  0.8869
  369TIP3   OH222521   3.733   5.757  11.889 -0.2030 -0.1165  0.0745
  369TIP3    H122522   3.692   5.728  11.808  1.0499  0.3144 -0.7387
  369TIP3    H222523   3.681   5.832  11.916 -2.0450 -1.6349  0.9525
  370TIP3   OH222524   4.980   0.346  10.930  0.4240  0.2991  0.2127
  370TIP3    H122525   4.897   0.305  10.955  0.5876  0.1308  0.4860
  370TIP3    H222526   4.961   0.388  10.846  0.3103 -0.5285 -0.1917
  371TIP3   OH222527   6.507   4.409  16.070 -0.2997  0.1511 -0.5898
  371TIP3    H122528   6.421   4.367  16.072 -0.3986  0.2201  2.3877
  371TIP3    H222529   6.513   4.454  16.155  2.4292  0.6460 -0.9527
  372TIP3   OH222530   0.564   4.982  12.455 -0.0348 -0.5777  0.6744
  372TIP3    H122531   0.636   5.045  12.454 -0.4083 -0.0712  2.2723
  372TIP3    H222532   0.504   5.014  12.387  0.9009 -0.6300 -0.2087
  373TIP3   OH222533   6.000   6.076   2.658 -0.4235  0.3941  0.1367
  373TIP3    H122534   6.037   6.004   2.710 -0.7331  0.7745  0.8921
  373TIP3    H222535   6.022   6.155   2.707 -1.5432  0.6876  0.1898
  374TIP3   OH222536   0.087   4.036   3.168  0.6709  0.1168  0.4245
  374TIP3    H122537   0.128   3.954   3.141  0.4227 -0.0765  0.6292
  374TIP3    H222538   0.111   4.098   3.100 -0.1035 -0.4131 -0.3603
  375TIP3   OH222539   2.970   1.389   2.181 -0.1870 -0.2568  1.2768
  375TIP3    H122540   2.963   1.408   2.275 -0.7502 -0.1381  1.2117
  375TIP3    H222541   2.930   1.465   2.138  1.5650  0.5154  0.8753
  376TIP3   OH222542   6.754   6.224  15.560  0.7174 -0.2967 -0.5532
  376TIP3    H122543   6.708   6.198  15.640 -0.1513 -0.4009 -1.0752
  376TIP3    H222544   6.841   6.249  15.590  0.2422  0.1892  0.5051
  377TIP3   OH222545   2.410   3.175  13.802  0.2618  0.3288 -0.3325
  377TIP3    H122546   2.320   3.153  13.824 -0.1836  0.2130 -2.1277
  377TIP3    H222547   2.461   3.100  13.834 -0.3961 -0.0641 -0.1856
  378TIP3   OH222548   3.568   3.694   2.452  0.2262  0.0047  0.3982
  378TIP3    H122549   3.572   3.633   2.526  0.2701  0.7578  1.0258
  378TIP3    H222550   3.552   3.779   2.492 -1.0032  0.2458 -0.5579
  379TIP3   OH222551   0.853   5.623  16.328 -0.7240 -0.0346 -0.5226
  379TIP3    H122552   0.946   5.634  16.309 -0.6373 -1.7000 -1.2386
  379TIP3    H222553   0.823   5.710  16.353  1.4358  0.2024  1.6677
  380TIP3   OH222554   1.796   2.480   6.170 -0.0603 -0.2490 -0.3760
  380TIP3    H122555   1.780   2.570   6.198 -0.6258 -0.0162 -1.3931
  380TIP3    H222556   1.796   2.484   6.075  0.1312 -1.2927 -0.4319
  381TIP3   OH222557   4.403   6.462   3.742 -0.1014  0.5575  0.3270
  381TIP3    H122558   4.339   6.406   3.786 -0.4749  0.1815 -0.6640
  381TIP3    H222559   4.349   6.525   3.693  0.0859 -1.5742 -2.9483
  382TIP3   OH222560   3.458   6.212  14.418  0.0239 -0.1739  0.2654
  382TIP3    H122561   3.407   6.262  14.354 -0.2501  0.0717  0.6771
  382TIP3    H222562   3.454   6.263  14.498 -0.5259 -0.9999  0.7844
  383TIP3   OH222563   3.525   5.214   0.335 -0.6208  0.4364 -0.5592
  383TIP3    H122564   3.551   5.304   0.353  0.6587  0.6331 -2.9680
  383TIP3    H222565   3.450   5.198   0.393 -0.5657  2.8648  0.2628
  384TIP3   OH222566   4.210   1.852   2.055  0.1692  0.0005 -0.3035
  384TIP3    H122567   4.178   1.914   1.989  1.4328  1.0364 -0.0002
  384TIP3    H222568   4.243   1.908   2.126  0.8672 -1.0280  0.2083
  385TIP3   OH222569   2.213   0.366   0.634 -0.1335  0.0506  0.1194
  385TIP3    H122570   2.208   0.301   0.705  2.3298 -0.6662 -0.2373
  385TIP3    H222571   2.239   0.315   0.557 -0.7675  1.1030 -0.8159
  386TIP3   OH222572   4.356   2.382  12.434 -0.6531  0.0770  0.6174
  386TIP3    H122573   4.397   2.338  12.508 -2.8641  2.1868  3.3170
  386TIP3    H222574   4.430   2.411  12.380  1.0301 -2.0447  1.6331
  387TIP3   OH222575   6.393   6.088   4.341 -0.0246 -0.0789  0.5194
  387TIP3    H122576   6.375   5.994   4.333 -0.9322  0.1973 -1.0826
  387TIP3    H222577   6.315   6.123   4.384 -0.3663  0.1615 -0.2952
  388TIP3   OH222578   2.690   6.505   3.610  0.1245  0.0335  0.3780
  388TIP3    H122579   2.687   6.531   3.702  0.2903  0.9138  0.1471
  388TIP3    H222580   2.599   6.507   3.581  0.0625 -0.3349  0.5456
  389TIP3   OH222581   2.473   2.920  13.837  0.4858 -0.2034  0.2013
  389TIP3    H122582   2.530   2.848  13.862 -0.1997 -0.7112  0.3316
  389TIP3    H222583   2.428   2.890  13.758 -0.3624 -0.2327  0.6810
  390TIP3   OH222584   4.128   5.950   1.952  0.0343  0.8431 -0.3852
  390TIP3    H122585   4.137   5.953   1.857 -0.2435  0.9666 -0.4071
  390TIP3    H222586   4.036   5.926   1.967  0.5813 -1.3247 -0.1722
  391TIP3   OH222587   0.721   2.282   6.659  0.0137 -0.2014  0.3415
  391TIP3    H122588   0.762   2.368   6.657 -0.0004 -0.1136  2.1238
  391TIP3    H222589   0.689   2.273   6.749 -1.8916 -1.1950 -0.3842
  392TIP3   OH222590   6.173   4.641  11.993 -0.4006  0.8758 -0.0327
  392TIP3    H122591   6.258   4.657  12.033 -0.3393  0.7546 -0.1148
  392TIP3    H222592   6.156   4.548  12.008 -1.3605  1.2836  1.6133
  393TIP3   OH222593   1.019   3.666  13.512  0.4498  0.0278  0.6918
  393TIP3    H122594   0.939   3.716  13.496  0.8898  0.4992 -0.1017
  393TIP3    H222595   1.040   3.682  13.604  0.5251  1.2378  0.4791
  394TIP3   OH222596   4.068   4.658   3.891 -0.4077 -0.0517 -0.7463
  394TIP3    H122597   4.020   4.721   3.837  0.9921 -1.0027 -3.2930
  394TIP3    H222598   4.125   4.712   3.946 -1.7325  0.9531 -0.3135
  395TIP3   OH222599   3.376   5.242   4.549  0.5985 -0.0502  0.4492
  395TIP3    H122600   3.302   5.302   4.562  0.2480 -0.1758 -0.8437
  395TIP3    H222601   3.344   5.180   4.484  1.7954 -0.2061  0.0010
  396TIP3   OH222602   2.753   5.085   0.948  0.1876  0.1462  0.5785
  396TIP3    H122603   2.759   5.072   0.853  1.6082 -1.2433  0.8112
  396TIP3    H222604   2.773   5.178   0.960 -0.3957  0.4317 -0.5024
  397TIP3   OH222605   3.609   2.576   2.231 -0.3609 -0.0625 -0.0518
  397TIP3    H122606   3.699   2.564   2.262 -0.8953 -0.7021  1.3470
  397TIP3    H222607   3.619   2.608   2.141  1.2597  0.4996  0.2834
  398TIP3   OH222608   6.185   5.632   3.151  0.3362  0.1872  0.2801
  398TIP3    H122609   6.202   5.547   3.190  1.6411  0.6357  0.7472
  398TIP3    H222610   6.144   5.612   3.066 -1.1807 -0.8265  1.1978
  399TIP3   OH222611   3.443   5.508   6.165  0.6849  0.0175  0.6778
  399TIP3    H122612   3.430   5.454   6.244  1.8548  0.1847  1.0065
  399TIP3    H222613   3.533   5.489   6.139  0.3813  0.1544 -0.4849
  400TIP3   OH222614   4.758   4.919  16.144 -0.1544 -0.1658  0.0874
  400TIP3    H122615   4.776   5.003  16.102  2.5956  0.0957  1.5727
  400TIP3    H222616   4.729   4.943  16.233 -0.7008 -0.7712  0.0751
  401TIP3   OH222617   0.923   5.038   2.197 -0.0095 -0.2216  0.2569
  401TIP3    H122618   0.861   4.983   2.149  1.1632 -0.8264 -0.6075
  401TIP3    H222619   1.003   4.986   2.203  0.0837  0.0648  2.4045
  402TIP3   OH222620   1.251   3.169  12.624 -0.3432 -0.6221  0.5629
  402TIP3    H122621   1.330   3.128  12.589 -0.8711 -1.8169  0.6958
  402TIP3    H222622   1.249   3.255  12.584  1.7964  0.0223  1.6718
  403TIP3   OH222623   1.157   3.955   6.558 -0.2577  0.1109 -0.2386
  403TIP3    H122624   1.157   3.966   6.463 -1.7699  1.4235 -0.1255
  403TIP3    H222625   1.206   4.030   6.591 -0.3808  0.0641  0.0563
  404TIP3   OH222626   1.344   3.405  11.500 -0.1097 -0.2412  0.6804
  404TIP3    H122627   1.311   3.476  11.446 -0.3995 -0.4543  0.5790
  404TIP3    H222628   1.438   3.421  11.506  0.1921 -1.0507 -1.1605
  405TIP3   OH222629   2.671   2.253   0.039 -0.2388  0.1692  0.9417
  405TIP3    H122630   2.732   2.201  -0.014 -0.1469  0.8776  0.3392
  405TIP3    H222631   2.652   2.330  -0.014 -1.1675  0.2715  1.3972
  406TIP3   OH222632   3.532   2.452   0.304  0.2279  0.0376 -0.6150
  406TIP3    H122633   3.576   2.535   0.283 -0.3018  0.2027 -1.1108
  406TIP3    H222634   3.459   2.448   0.242  0.3629 -0.8939 -0.7216
  407TIP3   OH222635   5.878   0.763   5.985  0.4344 -0.5786 -0.4539
  407TIP3    H122636   5.907   0.674   5.964  4.6409 -0.1569  2.2992
  407TIP3    H222637   5.811   0.751   6.052  0.2763 -1.6846 -0.7919
  408TIP3   OH222638   0.089   3.250  10.931 -1.0218 -0.0400 -0.5511
  408TIP3    H122639   0.027   3.218  10.996  0.1258 -1.7269 -0.2275
  408TIP3    H222640   0.064   3.207  10.849 -0.4602 -0.4966 -0.4851
  409TIP3   OH222641   0.308   5.723   0.679 -0.2176 -0.3299  0.3001
  409TIP3    H122642   0.346   5.796   0.729  1.4285 -1.4820  0.8296
  409TIP3    H222643   0.219   5.751   0.660  0.0597  1.4149  1.3102
  410TIP3   OH222644   4.130   0.122   5.271 -0.3879  1.1176 -0.1750
  410TIP3    H122645   4.141   0.217   5.277 -0.8259  1.2168 -0.8046
  410TIP3    H222646   4.199   0.086   5.327  0.5615  1.7858 -0.8831
  411TIP3   OH222647   6.015   2.462  14.700  0.3610  0.9051  0.0879
  411TIP3    H122648   6.069   2.537  14.725  0.5496  0.5487  0.8007
  411TIP3    H222649   5.976   2.433  14.782  1.5823 -0.7646  0.1373
  412TIP3   OH222650   5.373   0.440   6.137 -0.0021 -0.5040  0.4361
  412TIP3    H122651   5.363   0.427   6.231 -3.2575  3.1534  0.8736
  412TIP3    H222652   5.421   0.523   6.129  0.4890 -0.8994 -1.1614
  413TIP3   OH222653   1.937   3.505   6.232  0.0793 -0.1093  0.3024
  413TIP3    H122654   1.981   3.425   6.205  0.7945  0.4008 -0.0573
  413TIP3    H222655   1.855   3.505   6.182  0.3305 -0.3338 -0.1139
  414TIP3   OH222656   4.793   0.184   5.857 -0.6138 -0.1924 -0.4497
  414TIP3    H122657   4.825   0.197   5.767  1.5125  1.7736  0.4765
  414TIP3    H222658   4.830   0.100   5.884  2.8516  1.3054  0.0446
  415TIP3   OH222659   2.318   1.769   4.027  0.2645 -0.2009  0.2416
  415TIP3    H122660   2.264   1.804   3.957  0.0386 -1.0153 -0.0046
  415TIP3    H222661   2.322   1.675   4.010 -2.0347 -0.8947  2.7656
  416TIP3   OH222662   3.544   3.645  16.741  0.3927  0.1116 -0.4496
  416TIP3    H122663   3.490   3.712  16.698  0.3277 -0.5962 -1.4919
  416TIP3    H222664   3.633   3.678  16.733  0.3911 -0.0452 -1.2105
  417TIP3   OH222665   5.750   5.238  14.052 -0.0967  0.3068 -0.1452
  417TIP3    H122666   5.781   5.246  14.143 -0.0844  1.0204 -0.2055
  417TIP3    H222667   5.682   5.171  14.056 -0.2666  0.5071  0.4393
  418TIP3   OH222668   5.298   0.101  14.117  0.6676 -0.5874  0.2451
  418TIP3    H122669   5.287   0.009  14.143  0.9900 -0.6203  0.2776
  418TIP3    H222670   5.256   0.107  14.032 -1.8642 -0.0811  1.4513
  419TIP3   OH222671   2.959   4.031  13.098  0.0486  0.4431  0.4868
  419TIP3    H122672   3.025   3.963  13.103 -1.5363 -1.3349 -0.8997
  419TIP3    H222673   2.989   4.089  13.028 -0.0790 -0.6619 -0.5139
  420TIP3   OH222674   1.326   5.994   3.916  0.1781  0.3193  0.2216
  420TIP3    H122675   1.296   6.071   3.964 -2.3002 -0.0831 -0.5225
  420TIP3    H222676   1.343   6.026   3.827 -1.5018 -0.0351 -0.2692
  421TIP3   OH222677   0.528   2.177  15.197 -0.4477 -0.0243 -0.6235
  421TIP3    H122678   0.436   2.197  15.216 -0.2325  0.1862  0.2455
  421TIP3    H222679   0.547   2.101  15.251  0.5475  1.3680  1.0820
  422TIP3   OH222680   5.869   0.017  16.687  0.7305 -0.2819  0.8165
  422TIP3    H122681   5.895  -0.008  16.598 -1.3429 -0.5102  0.2031
  422TIP3    H222682   5.822   0.100  16.676 -0.4867 -0.8432  1.4958
  423TIP3   OH222683   1.644   3.300  11.543  0.3501 -0.2714 -0.0648
  423TIP3    H122684   1.607   3.224  11.497 -0.3853 -1.4350  2.3027
  423TIP3    H222685   1.738   3.291  11.532  0.2056 -0.6816 -1.0612
  424TIP3   OH222686   3.401   2.915  13.895 -0.5270 -0.2627 -0.1122
  424TIP3    H122687   3.372   2.870  13.975  0.1066  0.6420  0.6474
  424TIP3    H222688   3.391   3.008  13.915 -0.4769 -0.0255 -1.1395
  425TIP3   OH222689   2.973   4.203  10.682 -0.4578 -0.2069  0.8434
  425TIP3    H122690   3.034   4.171  10.749 -1.2072 -0.4569  1.4271
  425TIP3    H222691   3.018   4.277  10.642  0.1897 -0.3292  1.3258
  426TIP3   OH222692   3.783   6.754   0.550  0.6740 -0.1434  0.2382
  426TIP3    H122693   3.791   6.836   0.599  2.9306 -0.4012  0.4018
  426TIP3    H222694   3.860   6.703   0.575 -0.4749 -2.1741 -0.1676
  427TIP3   OH222695   4.998   1.959  14.112 -0.2933 -0.1777  0.0941
  427TIP3    H122696   5.051   1.921  14.182  0.7533 -0.6615 -0.9312
  427TIP3    H222697   4.907   1.943  14.139  0.1001 -0.9967  0.9848
  428TIP3   OH222698   4.097   2.328   5.126 -0.1965  0.1187 -0.7293
  428TIP3    H122699   4.067   2.306   5.038  0.1143  0.1001 -0.8318
  428TIP3    H222700   4.163   2.261   5.146  0.4116  0.6710 -0.8551
  429TIP3   OH222701   5.796   6.767  13.916 -0.1977 -0.7934 -0.4889
  429TIP3    H122702   5.828   6.790  14.004 -0.7135 -0.5040 -0.3763
  429TIP3    H222703   5.830   6.836  13.859 -1.3898  0.0492 -0.2192
  430TIP3   OH222704   6.631   3.688   6.041 -0.3121 -0.4521 -0.1948
  430TIP3    H122705   6.714   3.650   6.070 -0.3072 -0.8708 -0.7524
  430TIP3    H222706   6.633   3.681   5.946 -1.4184 -1.4113 -0.1806
  431TIP3   OH222707   0.258   0.705   3.485  0.2210 -0.3134 -0.1309
  431TIP3    H122708   0.243   0.714   3.391 -0.1301 -1.2113 -0.1712
  431TIP3    H222709   0.345   0.664   3.492  0.9164  1.1204 -0.0090
  432TIP3   OH222710   2.164   2.615   0.508 -0.1392  0.3698 -0.1333
  432TIP3    H122711   2.096   2.682   0.507 -0.0063  0.5369  0.9827
  432TIP3    H222712   2.126   2.543   0.559  0.5240  0.4855  0.5481
  433TIP3   OH222713   1.306   0.196  10.883  0.8694  0.6630  0.1150
  433TIP3    H122714   1.278   0.285  10.904  1.1053  0.7564  0.0327
  433TIP3    H222715   1.323   0.155  10.967 -2.3045 -0.3285  0.4033
  434TIP3   OH222716   3.292   0.334  14.791 -0.5506  0.3513  0.1535
  434TIP3    H122717   3.225   0.290  14.738 -1.7015  0.7664  1.2198
  434TIP3    H222718   3.293   0.424  14.759  0.0980  0.1607 -0.4016
  435TIP3   OH222719   0.310   2.272  16.320  0.3010  0.1779 -0.0188
  435TIP3    H122720   0.245   2.324  16.366  1.3434  1.8112 -0.3380
  435TIP3    H222721   0.393   2.315  16.337  1.2146 -1.3544 -0.3579
  436TIP3   OH222722   2.877   0.979   0.125 -0.4005  0.2680  0.0056
  436TIP3    H122723   2.895   1.045   0.058 -1.5478 -0.3207 -0.9259
  436TIP3    H222724   2.782   0.973   0.128 -0.3460 -0.1812  1.2484
  437TIP3   OH222725   3.733   2.738   1.989 -0.0390  0.4031 -0.4589
  437TIP3    H122726   3.795   2.666   1.989  0.1719  0.5869 -0.6138
  437TIP3    H222727   3.784   2.815   1.964 -0.1398  0.7124  0.2451
  438TIP3   OH222728   5.019   4.272   3.341  0.1407 -0.2467  0.0794
  438TIP3    H122729   5.055   4.185   3.318  0.4430 -0.1553  0.1980
  438TIP3    H222730   4.924   4.260   3.337  0.1593 -0.8381  1.0236
  439TIP3   OH222731   3.617   1.871  17.194  0.4135  0.1603  0.1577
  439TIP3    H122732   3.692   1.915  17.235 -0.0513 -0.0612  1.2820
  439TIP3    H222733   3.656   1.812  17.130  1.1503  0.7867  0.0215
  440TIP3   OH222734   4.707   5.782   1.534 -0.1321  0.6798  0.0001
  440TIP3    H122735   4.699   5.773   1.439 -2.8742 -0.5899  0.2432
  440TIP3    H222736   4.634   5.839   1.559  0.6758  1.1786  1.3680
  441TIP3   OH222737   4.146   2.814  15.629 -0.0314 -0.0341  0.0393
  441TIP3    H122738   4.064   2.855  15.655  0.1206  1.4067 -1.5429
  441TIP3    H222739   4.128   2.777  15.542  0.7374 -0.4787  0.0580
  442TIP3   OH222740   0.025   2.537  11.769  0.1671  0.1240  0.2541
  442TIP3    H122741   0.114   2.550  11.802  0.1517 -0.4834  0.5410
  442TIP3    H222742   0.036   2.482  11.691  0.1088  0.7094 -0.1798
  443TIP3   OH222743   2.521   5.084   2.680 -0.1224 -0.3932  0.1988
  443TIP3    H122744   2.456   5.120   2.740 -0.2253  0.1238 -0.2097
  443TIP3    H222745   2.486   4.999   2.654 -1.4022  0.5081 -1.1819
  444TIP3   OH222746   3.873   4.651   5.954 -0.0745  0.1660  0.1586
  444TIP3    H122747   3.852   4.566   5.993 -0.5346  0.9167  1.6055
  444TIP3    H222748   3.814   4.712   5.997  1.8193  1.5897  0.8673
  445TIP3   OH222749   2.220   3.982  14.689 -0.4088 -0.1829 -0.0952
  445TIP3    H122750   2.153   4.040  14.654  0.1180  0.5782  0.1173
  445TIP3    H222751   2.262   3.944  14.612 -1.6255 -1.3199 -0.2197
  446TIP3   OH222752   1.040   0.372   4.293 -0.0278 -0.3105  0.2974
  446TIP3    H122753   0.978   0.425   4.245  0.0900  1.1132  1.6311
  446TIP3    H222754   1.120   0.373   4.240 -0.8010 -1.3335 -0.9356
  447TIP3   OH222755   0.376   2.029  11.914  0.2396  0.0149 -0.5184
  447TIP3    H122756   0.317   1.963  11.950  0.3997 -0.8457 -1.7642
  447TIP3    H222757   0.367   2.021  11.819  0.2040  1.8643 -0.7144
  448TIP3   OH222758   4.756   2.516  16.974 -0.5151  0.0451 -0.3752
  448TIP3    H122759   4.713   2.487  17.055 -0.6629 -0.2488 -0.5545
  448TIP3    H222760   4.818   2.447  16.953 -0.7552 -0.0748 -0.7202
  449TIP3   OH222761   4.881   5.249   5.995 -0.2137  0.4445 -0.3987
  449TIP3    H122762   4.878   5.211   5.907  1.8548 -0.3184 -0.2037
  449TIP3    H222763   4.973   5.241   6.021 -1.2515 -2.6295  3.2294
  450TIP3   OH222764   3.688   0.739   2.438  0.0181  0.0494  0.5050
  450TIP3    H122765   3.664   0.728   2.346 -0.5380 -1.7207  0.8204
  450TIP3    H222766   3.618   0.792   2.475 -0.3733 -0.2240  0.1596
  451TIP3   OH222767   6.541   3.847  12.352 -0.1068  0.6543  0.9347
  451TIP3    H122768   6.549   3.849  12.447 -1.5734  0.3938  1.0890
  451TIP3    H222769   6.601   3.915  12.321 -1.1589  2.2521  2.1840
  452TIP3   OH222770   5.419   5.508  10.528 -0.3647  0.0953 -0.0612
  452TIP3    H122771   5.409   5.588  10.580 -0.3595  0.3474 -0.4406
  452TIP3    H222772   5.507   5.477  10.548 -0.0945  0.5884 -0.4690
  453TIP3   OH222773   3.183   2.371  12.684 -0.3092 -0.1292  0.9710
  453TIP3    H122774   3.210   2.333  12.600 -2.7103  0.5263 -0.1917
  453TIP3    H222775   3.200   2.464  12.675 -0.0073 -0.1299  1.4849
  454TIP3   OH222776   3.174   4.570   2.822 -0.4834 -0.1841  0.2382
  454TIP3    H122777   3.251   4.589   2.877 -0.2797 -1.6726  0.5068
  454TIP3    H222778   3.171   4.642   2.759  0.8195  0.1788  0.5615
  455TIP3   OH222779   3.948   5.976   1.136  0.2923 -0.4141 -0.0969
  455TIP3    H122780   3.909   5.925   1.064 -2.7491  0.9687  0.4165
  455TIP3    H222781   3.924   5.928   1.215 -0.7700  0.6270  0.2477
  456TIP3   OH222782   5.400   2.296  12.252 -0.0207  0.1080 -0.0375
  456TIP3    H122783   5.412   2.264  12.341 -1.0046 -1.3950 -0.4035
  456TIP3    H222784   5.311   2.333  12.251  0.6642  1.8387  0.0607
  457TIP3   OH222785   2.701   0.802   1.118  0.0944 -0.0630  0.5436
  457TIP3    H122786   2.627   0.811   1.178  0.4345  0.7126  0.8533
  457TIP3    H222787   2.757   0.736   1.159  0.6736  0.9710  1.4551
  458TIP3   OH222788   5.001   4.070   4.995  0.3487  0.2771  0.1954
  458TIP3    H122789   4.972   4.159   4.976 -0.8662 -0.1247  0.0944
  458TIP3    H222790   4.928   4.031   5.043  0.6957 -0.7952 -0.1214
  459TIP3   OH222791   3.547   2.855  14.565 -0.1024 -0.1464 -0.0872
  459TIP3    H122792   3.469   2.852  14.510 -0.6496  1.6086  0.5295
  459TIP3    H222793   3.617   2.821  14.509 -0.9088  0.3039 -1.4105
  460TIP3   OH222794   0.727   3.591   3.661 -0.4059 -0.3074  0.2204
  460TIP3    H122795   0.650   3.638   3.628 -0.7419 -0.5421  0.6570
  460TIP3    H222796   0.793   3.601   3.592 -0.1612  1.5511  0.6656
  461TIP3   OH222797   5.089   3.413   2.431 -0.1437 -0.1472 -0.2304
  461TIP3    H122798   5.091   3.416   2.336  0.0609  0.8426 -0.2035
  461TIP3    H222799   5.099   3.504   2.459  1.1094 -0.5458  0.7504
  462TIP3   OH222800   0.562   2.671  15.081  0.1826  0.6043 -0.1540
  462TIP3    H122801   0.497   2.660  15.150  0.8878 -1.9166  0.2017
  462TIP3    H222802   0.511   2.682  15.001 -0.7052 -0.9128  0.1709
  463TIP3   OH222803   0.741   5.255  11.201 -0.0875  0.0764 -0.0658
  463TIP3    H122804   0.671   5.198  11.168 -0.6608  0.9422 -0.3964
  463TIP3    H222805   0.805   5.258  11.130 -1.4847  2.2172 -1.3512
  464TIP3   OH222806   4.316   4.208   4.969 -0.4186 -0.1214 -0.2747
  464TIP3    H122807   4.247   4.223   5.033  0.4715  3.6743  0.0247
  464TIP3    H222808   4.275   4.153   4.902 -4.0491  2.4794 -0.4829
  465TIP3   OH222809   5.342   0.015  14.558 -0.0663  0.0958  0.1881
  465TIP3    H122810   5.350   0.086  14.494  1.5319  0.4954  0.7678
  465TIP3    H222811   5.427  -0.029  14.555 -1.4603 -2.7298 -1.1404
  466TIP3   OH222812   4.015   3.046   0.157 -0.7865 -0.5827 -0.2233
  466TIP3    H122813   4.079   3.006   0.097  0.3512  1.5206 -0.4898
  466TIP3    H222814   3.981   3.121   0.109 -1.5172 -0.1571  0.9334
  467TIP3   OH222815   0.623   2.506   1.384  0.5491  0.0641  0.0938
  467TIP3    H122816   0.707   2.483   1.421 -0.2216 -1.3712  1.0324
  467TIP3    H222817   0.559   2.458   1.436 -0.7161 -0.5333 -1.8852
  468TIP3   OH222818   4.105   2.095  11.024  0.3156 -0.3002 -0.4828
  468TIP3    H122819   4.137   2.091  10.934  0.5390  0.0924 -0.4191
  468TIP3    H222820   4.062   2.010  11.038  0.7404 -0.5655 -0.7863
  469TIP3   OH222821   3.245   4.523   1.742  0.0318 -0.4182  0.3161
  469TIP3    H122822   3.214   4.603   1.698 -1.7683 -1.3856 -0.2737
  469TIP3    H222823   3.338   4.519   1.722 -0.0862  0.9149 -0.6433
  470TIP3   OH222824   1.128   4.538  16.251  0.2785  0.4920  0.5036
  470TIP3    H122825   1.149   4.552  16.159 -1.3596  0.2725  0.0707
  470TIP3    H222826   1.205   4.570  16.298  1.2079  0.4465 -0.9364
  471TIP3   OH222827   4.669   3.122   1.912  0.6024 -0.2910  0.1600
  471TIP3    H122828   4.716   3.043   1.940  0.0303  0.7268  4.8671
  471TIP3    H222829   4.711   3.193   1.961 -2.3416  1.4334  0.4047
  472TIP3   OH222830   3.074   6.233  17.004 -0.6627 -0.6229 -0.4905
  472TIP3    H122831   3.057   6.240  16.910 -1.2383 -3.5636 -0.7022
  472TIP3    H222832   3.154   6.181  17.010 -0.3616 -0.0649  0.6799
  473TIP3   OH222833   2.238   3.984   1.834 -0.2702  0.3663 -0.3210
  473TIP3    H122834   2.304   4.053   1.837  0.9487 -0.7813  0.5766
  473TIP3    H222835   2.231   3.961   1.741 -0.0406  1.0823 -0.5200
  474TIP3   OH222836   0.408   2.513   3.554 -0.6412 -0.1564  0.2188
  474TIP3    H122837   0.478   2.490   3.614  0.5579  0.7413 -0.7810
  474TIP3    H222838   0.356   2.433   3.546  0.4158 -0.9219  0.7854
  475TIP3   OH222839   3.774   6.320  12.419 -0.0482 -0.2875 -0.1286
  475TIP3    H122840   3.680   6.337  12.416  0.2777  1.6071 -0.9324
  475TIP3    H222841   3.785   6.238  12.372 -1.4131 -1.2834  1.1640
  476TIP3   OH222842   2.180   5.666   5.296 -0.1645 -0.2505  0.3438
  476TIP3    H122843   2.169   5.603   5.226 -2.3763 -0.0965  0.5038
  476TIP3    H222844   2.102   5.721   5.293  0.0878  0.3203  2.3701
  477TIP3   OH222845   2.556   1.556   4.766 -0.6427 -0.2150 -0.4203
  477TIP3    H122846   2.503   1.615   4.712 -0.2887 -0.9172 -1.5659
  477TIP3    H222847   2.614   1.512   4.704  0.2570 -0.5480  0.6271
  478TIP3   OH222848   1.334   1.753  14.250  0.2237  0.4651  0.2880
  478TIP3    H122849   1.332   1.659  14.272 -0.4374  0.3656 -0.1554
  478TIP3    H222850   1.242   1.775  14.235  0.4931  0.8911 -0.8134
  479TIP3   OH222851   3.125   0.609   0.646 -0.4236  0.0136  0.2516
  479TIP3    H122852   3.045   0.578   0.689 -1.0927  1.4850  0.1179
  479TIP3    H222853   3.094   0.648   0.564  0.5551 -0.3359 -0.2907
  480TIP3   OH222854   2.540   0.443   0.162  0.2003 -0.3404  0.4822
  480TIP3    H122855   2.601   0.450   0.089  1.0101 -0.5968  1.1157
  480TIP3    H222856   2.573   0.369   0.214 -0.5136 -0.3306  0.9609
  481TIP3   OH222857   5.764   5.371  15.869 -0.1409 -0.1923  0.0950
  481TIP3    H122858   5.844   5.318  15.865  1.3882  1.8096  1.6945
  481TIP3    H222859   5.708   5.326  15.932 -0.3381 -1.6281 -1.0498
  482TIP3   OH222860   2.850   4.166   3.555  0.5445  0.0532 -0.6902
  482TIP3    H122861   2.778   4.189   3.498  0.0319  0.8155  0.2433
  482TIP3    H222862   2.919   4.135   3.496  0.5137  2.0426 -1.8238
  483TIP3   OH222863   1.644   2.195  12.323  0.0404 -0.4295 -0.0147
  483TIP3    H122864   1.645   2.279  12.370 -0.1197 -0.9608  0.9858
  483TIP3    H222865   1.728   2.192  12.277  0.0885  0.2380  0.0205
  484TIP3   OH222866   5.466   4.248  14.199  0.3286  0.5647 -0.4220
  484TIP3    H122867   5.415   4.172  14.228 -0.4122  0.4687 -1.8731
  484TIP3    H222868   5.530   4.262  14.269 -0.8277 -0.1388  0.8334
  485TIP3   OH222869   0.762   6.197   1.453 -0.1859  0.2387  0.1599
  485TIP3    H122870   0.848   6.160   1.474  0.5348  1.4601 -0.5140
  485TIP3    H222871   0.735   6.152   1.373 -0.0994 -0.0468  0.2935
  486TIP3   OH222872   4.054   4.980   2.190  0.3506  0.6102 -0.1732
  486TIP3    H122873   4.146   4.977   2.166  0.4094 -1.7324  0.1740
  486TIP3    H222874   4.051   5.036   2.268  1.6708 -0.2253  0.5139
  487TIP3   OH222875   4.485   3.437  13.620 -0.0709  0.3094 -0.1993
  487TIP3    H122876   4.414   3.377  13.643 -0.0029  0.8324  1.5707
  487TIP3    H222877   4.451   3.524  13.642  0.1511  0.8516 -1.8921
  488TIP3   OH222878   3.867   1.504  14.195 -0.3910 -0.5055 -0.2680
  488TIP3    H122879   3.794   1.494  14.255 -0.6473  2.5820  0.0838
  488TIP3    H222880   3.938   1.454  14.235 -1.5232 -1.3193  0.7889
  489TIP3   OH222881   1.995   4.609   1.134 -0.3822 -0.0405 -0.2900
  489TIP3    H122882   2.013   4.566   1.218  1.5279 -0.3381 -0.7995
  489TIP3    H222883   1.938   4.548   1.088 -3.0385  0.9464  1.4330
  490TIP3   OH222884   5.848   0.622  15.255  0.2446 -0.2218  0.1427
  490TIP3    H122885   5.928   0.610  15.204 -0.0293  0.2686 -0.4140
  490TIP3    H222886   5.784   0.563  15.216 -0.3949  1.1856 -1.0567
  491TIP3   OH222887   6.098   6.203  10.687  0.5707  0.0034 -0.2046
  491TIP3    H122888   6.166   6.139  10.708  2.9560  1.7366 -1.9590
  491TIP3    H222889   6.034   6.155  10.635  0.4908 -1.6383  1.2989
  492TIP3   OH222890   0.718   2.352   5.699 -0.6074  0.2476 -0.4682
  492TIP3    H122891   0.758   2.349   5.786 -0.7093  1.6262 -0.3469
  492TIP3    H222892   0.624   2.361   5.716 -0.8073 -1.0283 -0.7508
  493TIP3   OH222893   4.087   2.954  16.130 -0.1416 -0.2502 -0.4675
  493TIP3    H122894   4.052   2.882  16.078  1.0684 -1.3705  0.2174
  493TIP3    H222895   4.036   2.951  16.211  1.1460 -1.5749  0.3325
  494TIP3   OH222896   5.377   6.163   4.866  0.2058 -0.0825  1.0126
  494TIP3    H122897   5.343   6.197   4.783  2.0263  1.3720  0.7764
  494TIP3    H222898   5.335   6.078   4.877 -0.3277 -0.1700 -1.2376
  495TIP3   OH222899   6.314   0.145   4.256  0.5602  0.8053 -0.4625
  495TIP3    H122900   6.238   0.098   4.222 -0.1693  0.8527  1.0554
  495TIP3    H222901   6.290   0.237   4.251  0.5106  0.8198  0.0328
  496TIP3   OH222902   0.630   3.233   3.800  0.2716 -0.1506 -0.2150
  496TIP3    H122903   0.640   3.304   3.864  0.0278 -0.3801  0.0798
  496TIP3    H222904   0.709   3.179   3.813  0.4548  0.0615 -0.4361
  497TIP3   OH222905   1.174   5.083   0.812  0.1335  0.0227  0.4261
  497TIP3    H122906   1.247   5.144   0.808 -0.3101  0.5751  0.6394
  497TIP3    H222907   1.098   5.136   0.789 -0.2315 -0.4950  0.4309
  498TIP3   OH222908   3.758   3.951  12.300  0.5212  0.0022  0.5399
  498TIP3    H122909   3.684   3.964  12.240  1.5923 -0.3918 -0.9232
  498TIP3    H222910   3.724   3.893  12.367 -0.1378 -1.3082 -0.8688
  499TIP3   OH222911   0.252   4.262  14.059  0.0185  0.4590 -0.4255
  499TIP3    H122912   0.220   4.346  14.092 -0.6479  0.1252 -0.1867
  499TIP3    H222913   0.187   4.199  14.091 -0.5224  0.0899 -2.1646
  500TIP3   OH222914   5.155   6.060   0.488  0.1966 -0.2274 -0.0884
  500TIP3    H122915   5.160   5.978   0.538  0.9476  0.2452  0.6373
  500TIP3    H222916   5.063   6.088   0.496  0.1958 -0.4239  0.5953
  501TIP3   OH222917   3.974   5.123  10.568  0.4231 -0.2749 -0.3234
  501TIP3    H122918   3.991   5.185  10.639 -0.0131 -0.0713 -0.3949
  501TIP3    H222919   3.961   5.178  10.491  0.7612 -0.4910 -0.5347
  502TIP3   OH222920   1.548   1.538  12.171 -0.7093 -0.4381  0.7122
  502TIP3    H122921   1.539   1.452  12.130  0.7971 -0.3138  0.0588
  502TIP3    H222922   1.459   1.560  12.200 -1.2915 -1.7847  0.0499
  503TIP3   OH222923   1.438   4.391  17.240  0.5058  0.2403 -0.2981
  503TIP3    H122924   1.376   4.383  17.167  0.2998 -1.6885  0.0242
  503TIP3    H222925   1.522   4.366  17.202  0.6168  0.4006 -0.1561
  504TIP3   OH222926   3.425   1.361   3.181 -0.0147 -0.3160 -0.3723
  504TIP3    H122927   3.451   1.310   3.258  1.6941  0.1653 -0.6034
  504TIP3    H222928   3.463   1.448   3.195 -0.1184 -0.0668 -1.5240
  505TIP3   OH222929   3.863   6.121   0.361 -0.0738  0.1575 -0.2801
  505TIP3    H122930   3.913   6.045   0.390 -0.3082 -0.0061 -0.3048
  505TIP3    H222931   3.886   6.131   0.269 -1.0429 -0.6793 -0.6267
  506TIP3   OH222932   5.057   6.429  11.816  0.2312 -0.3029 -0.2410
  506TIP3    H122933   5.043   6.334  11.819  0.0848 -0.2745  1.5428
  506TIP3    H222934   5.152   6.439  11.822  0.2114 -0.3576  0.3098
  507TIP3   OH222935   4.133   6.668  13.714  0.0107 -0.2937 -0.8328
  507TIP3    H122936   4.188   6.625  13.779 -0.0445 -0.6742 -1.0333
  507TIP3    H222937   4.154   6.624  13.632 -0.6537 -0.5095 -0.8992
  508TIP3   OH222938   0.505   5.792  13.761 -0.3194 -0.7128 -0.1750
  508TIP3    H122939   0.436   5.797  13.826  0.1572 -0.4801  0.3218
  508TIP3    H222940   0.562   5.867  13.780 -0.6513 -0.1127 -1.4208
  509TIP3   OH222941   0.463   2.964  15.515 -0.5742  0.3075  0.6903
  509TIP3    H122942   0.386   2.981  15.462 -0.6831  0.5826  0.9306
  509TIP3    H222943   0.534   2.949  15.452 -0.7025  0.6230  0.4715
  510TIP3   OH222944   2.175   4.649  16.949  0.0257  0.5175 -0.5853
  510TIP3    H122945   2.149   4.737  16.923  0.3698  0.9201  0.3851
  510TIP3    H222946   2.268   4.657  16.972 -0.0980  0.0521  0.1086
  511TIP3   OH222947   2.616   4.826   1.631  0.5400  0.7261 -0.0292
  511TIP3    H122948   2.596   4.838   1.723  3.1114 -0.6939  0.8324
  511TIP3    H222949   2.652   4.910   1.603  1.6739  0.5862  0.9027
  512TIP3   OH222950   2.905   4.097   4.057  0.1911  0.1011 -0.5204
  512TIP3    H122951   2.861   4.181   4.071  0.0284  0.0563 -0.7614
  512TIP3    H222952   2.976   4.096   4.122 -0.2929  0.0784  0.0111
  513TIP3   OH222953   0.973   5.809  12.666 -0.5710  0.2602 -0.1360
  513TIP3    H122954   0.990   5.894  12.626  1.2206 -0.3246 -0.6989
  513TIP3    H222955   0.950   5.830  12.757  0.2653  1.3475 -0.1494
  514TIP3   OH222956   0.631   3.571   2.406  0.3055 -0.3180  0.1322
  514TIP3    H122957   0.692   3.557   2.479  1.9046 -1.6772 -1.3759
  514TIP3    H222958   0.577   3.492   2.404 -1.1254  0.5924  1.0402
  515TIP3   OH222959   2.670   1.403  11.562  0.5839  0.3894  0.4155
  515TIP3    H122960   2.665   1.381  11.655  1.6608 -1.0654  0.1578
  515TIP3    H222961   2.753   1.450  11.554  1.3604 -1.0481 -0.0938
  516TIP3   OH222962   6.133   6.734   2.329  0.2413  0.7666  0.4878
  516TIP3    H122963   6.156   6.786   2.406  0.7980 -0.7251  1.3596
  516TIP3    H222964   6.039   6.717   2.340 -0.1477  2.2544 -0.2473
  517TIP3   OH222965   4.289   6.603   1.339 -0.0551  0.7205 -0.1167
  517TIP3    H122966   4.300   6.548   1.261  1.5768  1.0441 -0.1414
  517TIP3    H222967   4.235   6.550   1.398  1.5937 -1.0264 -0.0786
  518TIP3   OH222968   3.975   2.867   3.049  0.3088  0.2652  0.0028
  518TIP3    H122969   4.052   2.832   3.094  0.0029 -1.0753 -0.4756
  518TIP3    H222970   3.902   2.813   3.080 -0.2267  0.6656 -0.5436
  519TIP3   OH222971   2.463   3.385  11.470  0.0062 -0.1580  0.0331
  519TIP3    H122972   2.479   3.479  11.472 -2.1705  0.3030 -0.9810
  519TIP3    H222973   2.371   3.376  11.497  0.2070 -2.0092  0.2155
  520TIP3   OH222974   0.324   0.349   4.106  0.1647 -0.4279 -0.0251
  520TIP3    H122975   0.343   0.260   4.137 -0.5522 -0.8780 -0.8463
  520TIP3    H222976   0.342   0.346   4.012 -0.5942  0.0933 -0.1903
  521TIP3   OH222977   6.674   6.161  16.933  0.2123 -0.6371 -0.1474
  521TIP3    H122978   6.719   6.241  16.960  1.0078 -1.5369  1.2906
  521TIP3    H222979   6.745   6.100  16.910 -0.3285 -1.3834  0.1278
  522TIP3   OH222980   0.049   2.120  14.797 -0.1816  0.0155 -0.3132
  522TIP3    H122981   0.081   2.155  14.714  1.1087 -0.1854  0.0641
  522TIP3    H222982   0.129   2.102  14.847 -0.9058  2.8870  2.1644
  523TIP3   OH222983   4.809   3.853  16.891  0.0214 -0.4960  0.0854
  523TIP3    H122984   4.805   3.873  16.984  0.3234  1.0884 -0.2229
  523TIP3    H222985   4.902   3.856  16.870  0.1146 -2.4019  0.0178
  524TIP3   OH222986   5.637   4.590   3.514 -0.0887 -0.0073 -0.2162
  524TIP3    H122987   5.719   4.636   3.527 -1.0567  2.0640 -0.9978
  524TIP3    H222988   5.570   4.657   3.521 -1.7926 -1.7155  0.8847
  525TIP3   OH222989   2.204   5.730   1.731  0.3468 -0.0857 -0.7332
  525TIP3    H122990   2.286   5.736   1.779 -2.1755  0.6982  4.1111
  525TIP3    H222991   2.178   5.638   1.739 -1.0332  0.4331  1.4253
  526TIP3   OH222992   0.315   5.322  16.978  0.4798  0.2207 -0.4340
  526TIP3    H122993   0.360   5.293  17.057  1.6094  0.1419 -1.0870
  526TIP3    H222994   0.267   5.245  16.948  1.1551 -0.1578 -0.5709
  527TIP3   OH222995   0.293   3.385  15.330  0.1617 -0.0515 -0.5881
  527TIP3    H122996   0.207   3.426  15.343 -0.0180 -0.0515 -1.7054
  527TIP3    H222997   0.298   3.319  15.399 -0.5778  0.1966 -0.2815
  528TIP3   OH222998   2.597   0.268   1.396  0.1700 -0.1692 -0.4450
  528TIP3    H122999   2.528   0.248   1.333  0.6686 -2.4191 -0.3522
  528TIP3    H223000   2.675   0.282   1.342  0.1996 -0.2731 -0.4302
  529TIP3   OH223001   5.259   0.925   4.764  0.0010  0.1205 -0.3080
  529TIP3    H123002   5.295   1.004   4.803  0.6152  0.2328 -1.0891
  529TIP3    H223003   5.260   0.860   4.834  0.3712  0.5382  0.0700
  530TIP3   OH223004   2.285   4.166  15.368  0.0084 -0.2840  0.5660
  530TIP3    H123005   2.290   4.090  15.426  0.5709 -0.3389  0.4477
  530TIP3    H223006   2.370   4.209  15.377 -1.3604  2.2900  3.2808
  531TIP3   OH223007   6.572   0.800   1.185 -0.2722 -0.4002 -0.0656
  531TIP3    H123008   6.512   0.725   1.191  0.2537 -0.7511  1.0946
  531TIP3    H223009   6.562   0.845   1.269  0.5621 -0.0593 -0.1404
  532TIP3   OH223010   2.012   1.022  13.648  0.2527  0.6374 -0.2202
  532TIP3    H123011   1.926   1.062  13.651  0.0908  0.2404  1.5509
  532TIP3    H223012   1.995   0.928  13.645  0.6090  0.5618 -0.0337
  533TIP3   OH223013   1.983   3.330  13.257  0.7781  0.5348 -0.3276
  533TIP3    H123014   1.997   3.309  13.165  1.4740 -2.1619  0.3084
  533TIP3    H223015   1.911   3.273  13.285  2.4659 -0.8870  1.4337
  534TIP3   OH223016   4.595   0.140  11.239 -0.5267  0.1031 -0.5490
  534TIP3    H123017   4.560   0.153  11.151 -0.5734  0.5494 -0.4666
  534TIP3    H223018   4.623   0.048  11.241  0.4085  0.3586 -1.3519
  535TIP3   OH223019   4.178   5.158   0.190 -0.6915 -0.8572 -0.2537
  535TIP3    H123020   4.252   5.191   0.140  0.7117 -1.6602  1.1894
  535TIP3    H223021   4.216   5.130   0.273 -2.9492  0.6785  1.4085
  536TIP3   OH223022   4.661   1.338  10.768  0.3413  0.5337  0.1467
  536TIP3    H123023   4.571   1.369  10.756  0.3434  0.7608  0.7078
  536TIP3    H223024   4.687   1.309  10.680  0.4102  2.3254 -0.4652
  537TIP3   OH223025   2.601   4.299  14.946 -0.0594  0.2414 -0.2754
  537TIP3    H123026   2.575   4.240  14.875 -0.7018  0.3053 -0.0942
  537TIP3    H223027   2.599   4.386  14.906 -0.7736  0.3163 -0.0881
  538TIP3   OH223028   3.341   1.942   2.215  0.2998 -0.6790  0.3709
  538TIP3    H123029   3.264   1.999   2.213 -0.3385 -1.5163  0.5076
  538TIP3    H223030   3.407   1.993   2.263 -0.7600 -0.6457  1.8935
  539TIP3   OH223031   3.177   0.280  15.864 -0.1169  0.3874  0.5968
  539TIP3    H123032   3.088   0.315  15.859 -0.6672 -0.8807  1.0885
  539TIP3    H223033   3.182   0.240  15.951  0.1796 -1.4389 -0.2219
  540TIP3   OH223034   1.609   6.641  15.842  0.2518  0.0778 -0.5868
  540TIP3    H123035   1.630   6.562  15.892  0.1118  0.0841 -0.5173
  540TIP3    H223036   1.678   6.703  15.866  0.7091 -0.2163 -1.1001
  541TIP3   OH223037   6.209   3.431  16.987 -0.6768 -0.0033 -0.0076
  541TIP3    H123038   6.268   3.489  17.035 -1.8453 -0.7573  2.5100
  541TIP3    H223039   6.174   3.486  16.916  2.9212  0.4668 -1.6312
  542TIP3   OH223040   5.062   2.562   4.653  0.2681  0.0370  0.1040
  542TIP3    H123041   5.031   2.489   4.600  1.6202 -2.4510  2.4407
  542TIP3    H223042   5.017   2.552   4.737  0.0774  2.2764  0.3254
  543TIP3   OH223043   4.989   4.563   1.571 -0.3707  0.2668  0.9010
  543TIP3    H123044   4.952   4.553   1.659 -2.2946  0.0076  0.1198
  543TIP3    H223045   4.927   4.517   1.514  0.2276  1.3987 -0.7273
  544TIP3   OH223046   0.958   0.107  11.977  0.6401  0.1128  0.5669
  544TIP3    H123047   0.961   0.201  11.956  1.5209 -0.1748 -0.6925
  544TIP3    H223048   0.905   0.103  12.056 -0.5551  1.5553 -0.0935
  545TIP3   OH223049   5.604   4.855  13.744 -0.3879  0.1578  0.2883
  545TIP3    H123050   5.629   4.843  13.836 -2.8481  1.3370  1.1944
  545TIP3    H223051   5.521   4.902  13.748 -1.9098 -1.9902 -2.4698
  546TIP3   OH223052   3.338   5.087   5.875 -0.3651 -0.0361  0.4736
  546TIP3    H123053   3.274   5.047   5.817  0.6146 -0.6076 -0.2529
  546TIP3    H223054   3.410   5.023   5.880  0.4651  0.8804  0.6918
  547TIP3   OH223055   1.134   4.041  12.161 -0.2657  0.2933 -0.1288
  547TIP3    H123056   1.107   4.069  12.248  0.1178  1.0397 -0.2419
  547TIP3    H223057   1.215   3.991  12.177 -0.3452  0.1940 -0.0327
  548TIP3   OH223058   6.472   3.045  13.702  0.6592  0.5055 -0.8357
  548TIP3    H123059   6.436   3.121  13.656 -1.4791 -0.4611 -0.8795
  548TIP3    H223060   6.476   3.072  13.793 -2.4206 -0.0215 -0.4387
  549TIP3   OH223061   2.436   5.424   1.130  0.4368  0.0808 -0.1400
  549TIP3    H123062   2.374   5.481   1.177  0.8628  0.5812 -0.1773
  549TIP3    H223063   2.383   5.383   1.062  0.2945  1.0843 -0.6515
  550TIP3   OH223064   3.206   5.150  11.548 -0.2655  0.2663 -0.0369
  550TIP3    H123065   3.189   5.214  11.478 -1.1389  0.5584  0.4263
  550TIP3    H223066   3.120   5.113  11.568  0.3266 -1.7313 -0.9032
  551TIP3   OH223067   0.372   0.214  11.746  0.1884  0.6447  0.0256
  551TIP3    H123068   0.282   0.246  11.736 -0.1506  0.2626  1.5634
  551TIP3    H223069   0.421   0.289  11.779  0.7663  1.2273 -2.0156
  552TIP3   OH223070   4.295   4.909  12.709  0.5591  0.3176  0.0119
  552TIP3    H123071   4.272   4.872  12.794  0.5284  1.2320  0.4206
  552TIP3    H223072   4.228   4.875  12.649  0.6914 -0.4849  0.3124
  553TIP3   OH223073   2.127   1.633   3.557  0.0826  0.4881 -0.7353
  553TIP3    H123074   2.156   1.674   3.476 -2.5183  1.6357 -1.2051
  553TIP3    H223075   2.050   1.683   3.583  0.5530 -0.1162  2.2496
  554TIP3   OH223076   3.283   5.440  16.855 -0.1167  0.0027 -0.7224
  554TIP3    H123077   3.227   5.369  16.885 -0.0324 -0.0228 -0.6244
  554TIP3    H223078   3.344   5.399  16.794  0.9945 -0.3377  0.5583
  555TIP3   OH223079   1.379   4.715  15.069  0.0434 -0.4216 -0.2788
  555TIP3    H123080   1.423   4.794  15.039  2.9094 -1.5154  0.6689
  555TIP3    H223081   1.388   4.653  14.996 -0.5593 -0.4416 -0.3388
  556TIP3   OH223082   6.524   0.252  15.206 -0.5923  0.0141 -0.5564
  556TIP3    H123083   6.570   0.311  15.266  2.3901 -1.4695 -1.1898
  556TIP3    H223084   6.575   0.171  15.209 -2.2158 -1.1787 -2.7208
  557TIP3   OH223085   6.178   6.335   1.737  0.4385  0.5408 -0.0017
  557TIP3    H123086   6.093   6.365   1.768 -0.1076 -1.3768  0.4768
  557TIP3    H223087   6.222   6.301   1.816 -0.3674 -3.0115 -0.9149
  558TIP3   OH223088   4.139   0.519  14.774  0.0196 -0.0116 -0.4745
  558TIP3    H123089   4.056   0.567  14.780  0.1680  0.2012 -0.0536
  558TIP3    H223090   4.126   0.442  14.830  0.3115  0.3358  0.0829
  559TIP3   OH223091   5.490   4.288  16.819 -0.8471 -0.9247 -0.0611
  559TIP3    H123092   5.518   4.275  16.728 -1.6785 -2.2629 -0.1549
  559TIP3    H223093   5.570   4.280  16.870 -0.5379 -1.3192 -0.5881
  560TIP3   OH223094   3.212   2.277   1.924  0.2225  0.6531  0.2216
  560TIP3    H123095   3.297   2.254   1.963  1.2608  1.7906 -1.2506
  560TIP3    H223096   3.208   2.226   1.843  0.4270  2.0346 -0.6967
  561TIP3   OH223097   5.026   0.027  15.129 -0.4341 -0.6463 -0.4045
  561TIP3    H123098   5.115   0.029  15.093 -1.4202 -0.6191 -3.0348
  561TIP3    H223099   5.003  -0.066  15.133 -0.8320 -0.5967 -1.2700
  562TIP3   OH223100   4.475   0.012  15.659 -0.1984 -0.4105  0.1638
  562TIP3    H123101   4.394  -0.008  15.612  1.3293 -1.5552 -2.1235
  562TIP3    H223102   4.525   0.067  15.600  0.5657  0.6730  1.7349
  563TIP3   OH223103   4.310   1.220  16.692 -0.3169 -0.0127  0.0346
  563TIP3    H123104   4.314   1.161  16.767 -0.3872 -0.6620 -0.4589
  563TIP3    H223105   4.229   1.196  16.648 -0.6229  0.8393  0.1321
  564TIP3   OH223106   3.939   2.996   2.259  0.0011  0.2616  0.0975
  564TIP3    H123107   4.000   3.035   2.322  2.4871 -0.6652 -1.5389
  564TIP3    H223108   3.945   3.052   2.182  0.8504 -1.2573 -1.0011
  565TIP3   OH223109   5.701   5.867  16.996  0.1863 -0.3527  0.4921
  565TIP3    H123110   5.628   5.884  16.936 -1.9005 -0.8035  2.7775
  565TIP3    H223111   5.767   5.932  16.972 -2.3950  2.5324  0.6128
  566TIP3   OH223112   5.097   3.232  12.418  0.5839  0.1254 -0.5909
  566TIP3    H123113   5.125   3.277  12.339  0.1397  1.7526  0.1312
  566TIP3    H223114   5.178   3.218  12.468  0.8242 -0.6302 -1.1753
  567TIP3   OH223115   3.676   6.464   6.718 -0.4749  0.0215 -0.0364
  567TIP3    H123116   3.645   6.375   6.737 -1.5727  0.1337 -1.1637
  567TIP3    H223117   3.771   6.457   6.723 -0.5493 -1.1367  0.2201
  568TIP3   OH223118   0.004   2.344   3.705  0.1698  0.8104  0.3115
  568TIP3    H123119   0.010   2.347   3.609  0.7108  0.0934  0.3105
  568TIP3    H223120   0.066   2.410   3.735  2.0423 -0.7585  0.1739
  569TIP3   OH223121   1.969   2.965  12.893 -0.0628 -0.0160 -0.2669
  569TIP3    H123122   2.021   2.912  12.833  0.6740  0.7076 -0.2938
  569TIP3    H223123   1.890   2.913  12.909  0.8631 -1.3825  0.1392
  570TIP3   OH223124   6.685   2.111   0.957  0.8717 -0.3460  0.3733
  570TIP3    H123125   6.759   2.050   0.957  0.3284 -1.0619 -1.3662
  570TIP3    H223126   6.607   2.055   0.957  0.3020  0.3958  1.4832
  571TIP3   OH223127   5.364   6.237  13.414 -0.0109 -0.0473  0.0405
  571TIP3    H123128   5.386   6.144  13.410 -0.7755 -0.1922 -1.2566
  571TIP3    H223129   5.402   6.274  13.334  1.4633  1.0426  1.1969
  572TIP3   OH223130   3.298   6.008  14.195 -0.3841 -0.0235 -0.2787
  572TIP3    H123131   3.261   6.096  14.197  0.9437  0.6562 -2.2506
  572TIP3    H223132   3.233   5.956  14.149 -0.6665  0.2061 -0.1435
  573TIP3   OH223133   2.900   6.596  11.839  0.4024 -0.5440 -0.1854
  573TIP3    H123134   2.813   6.560  11.820  0.0863 -0.5113  1.0988
  573TIP3    H223135   2.914   6.575  11.931  2.6328 -2.3822 -0.8546
  574TIP3   OH223136   5.404   0.333  13.253 -0.2337 -0.8286 -0.3274
  574TIP3    H123137   5.464   0.385  13.200  2.3234 -0.4362  2.6449
  574TIP3    H223138   5.372   0.394  13.320 -0.2324 -2.1196  0.9082
  575TIP3   OH223139   4.135   4.756   4.853 -0.3533  0.4801 -0.0009
  575TIP3    H123140   4.118   4.843   4.815 -0.7511  0.9173  1.1208
  575TIP3    H223141   4.130   4.771   4.948 -0.3046 -0.7489  0.2032
  576TIP3   OH223142   1.850   6.647   2.417 -0.0634  0.3595  0.3057
  576TIP3    H123143   1.938   6.614   2.435  0.3828  0.9058 -0.7263
  576TIP3    H223144   1.807   6.576   2.371  0.5024  0.7448 -0.8750
  577TIP3   OH223145   0.457   5.458  15.590 -0.0479  0.7468 -0.1737
  577TIP3    H123146   0.458   5.551  15.614  0.8916  0.2502  1.9627
  577TIP3    H223147   0.418   5.414  15.665  0.6112 -0.6939 -0.6364
  578TIP3   OH223148   2.229   2.066   1.425 -0.0607  0.3485 -0.2779
  578TIP3    H123149   2.280   2.110   1.493 -0.1404 -1.2310  0.8560
  578TIP3    H223150   2.248   1.973   1.438 -2.2632 -0.1870 -0.6278
  579TIP3   OH223151   4.278   3.309   4.902 -0.0225  0.0269  0.6555
  579TIP3    H123152   4.329   3.387   4.881 -2.9105  1.5423 -1.5467
  579TIP3    H223153   4.246   3.324   4.991  1.1824  0.2954  1.0524
  580TIP3   OH223154   1.877   2.266  15.245  0.1688 -0.1779  0.0531
  580TIP3    H123155   1.926   2.200  15.197 -0.3113  0.2555 -1.0731
  580TIP3    H223156   1.895   2.248  15.337 -0.2461 -2.0964 -0.2039
  581TIP3   OH223157   3.326   5.148   0.502  0.7403 -0.6894 -0.6303
  581TIP3    H123158   3.390   5.200   0.551  0.5899 -0.6925 -0.4310
  581TIP3    H223159   3.244   5.158   0.551 -0.1769  1.7599 -2.4480
  582TIP3   OH223160   0.256   0.683   3.820  0.1359  0.1067 -0.0161
  582TIP3    H123161   0.172   0.725   3.838 -0.2127 -0.5167 -0.1644
  582TIP3    H223162   0.318   0.729   3.877 -0.1357  1.1581 -0.5407
  583TIP3   OH223163   1.637   4.115  14.774 -0.4479 -0.3226  0.1871
  583TIP3    H123164   1.725   4.083  14.790 -0.4347 -0.1308  0.5135
  583TIP3    H223165   1.619   4.093  14.683 -0.4591 -1.3067  0.4177
  584TIP3   OH223166   3.917   0.435   0.568  0.2317  0.0871 -0.3093
  584TIP3    H123167   3.827   0.424   0.599  0.2946  0.9077  0.2093
  584TIP3    H223168   3.946   0.517   0.609  0.4751  1.0056 -2.2183
  585TIP3   OH223169   0.554   1.906  14.454 -0.0443 -0.9438 -0.5932
  585TIP3    H123170   0.516   1.851  14.385 -0.1527  1.3518 -2.5152
  585TIP3    H223171   0.603   1.973  14.406 -0.6173  1.1250  1.5282
  586TIP3   OH223172   2.451   4.506   6.353  0.0789  0.2802 -0.1846
  586TIP3    H123173   2.436   4.580   6.294 -0.8907 -0.5417 -1.0069
  586TIP3    H223174   2.498   4.442   6.300 -0.4475 -0.3114  0.0494
  587TIP3   OH223175   5.646   5.578  11.546  0.1489 -0.4500 -0.0605
  587TIP3    H123176   5.699   5.502  11.521  0.0005 -0.6492  0.2349
  587TIP3    H223177   5.561   5.563  11.504  0.2919 -0.1708 -0.4644
  588TIP3   OH223178   6.312   6.040  16.613  0.5445 -0.1941  0.0658
  588TIP3    H123179   6.350   6.064  16.697 -1.1175 -1.2336  1.1654
  588TIP3    H223180   6.239   5.983  16.635 -0.4689  0.1927 -2.0446
  589TIP3   OH223181   3.334   4.880   5.445  0.0393 -0.6196  0.2944
  589TIP3    H123182   3.306   4.792   5.419  0.8685 -0.6508 -0.5619
  589TIP3    H223183   3.429   4.873   5.456  0.2253  0.3280 -0.5401
  590TIP3   OH223184   3.677   4.227  13.393  0.5675  0.2107  0.0490
  590TIP3    H123185   3.639   4.232  13.481 -0.6340  0.8697 -0.4845
  590TIP3    H223186   3.747   4.292  13.393  0.7736 -0.0033  0.6001
  591TIP3   OH223187   3.168   6.423   0.675  0.1736 -0.2305 -0.2746
  591TIP3    H123188   3.154   6.374   0.595 -0.0324  1.6548 -1.4573
  591TIP3    H223189   3.158   6.359   0.745  1.4376 -2.1729 -1.7596
  592TIP3   OH223190   6.348   5.947  11.618 -0.6558  0.6021 -0.0156
  592TIP3    H123191   6.265   5.966  11.575 -0.4832  1.1345 -0.1226
  592TIP3    H223192   6.359   6.017  11.682  0.1713  1.0976 -0.6774
  593TIP3   OH223193   5.758   1.269  16.169  0.9962  0.0266 -0.1913
  593TIP3    H123194   5.740   1.341  16.231  0.8950 -0.4628  0.3609
  593TIP3    H223195   5.849   1.282  16.144  0.6561  1.0188 -0.9995
  594TIP3   OH223196   6.187   5.331   1.813  0.8304 -0.2817 -0.1684
  594TIP3    H123197   6.277   5.354   1.837  0.5349  1.0361 -0.2576
  594TIP3    H223198   6.133   5.400   1.852 -0.4459 -2.3721  2.1098
  595TIP3   OH223199   6.124   6.476   5.626  0.1823 -0.5370 -0.1997
  595TIP3    H123200   6.151   6.557   5.670  1.1417 -0.3267 -1.1371
  595TIP3    H223201   6.176   6.408   5.668 -0.9803 -0.7682  0.9293
  596TIP3   OH223202   4.530   5.752   5.589 -0.5292  0.4662 -0.4701
  596TIP3    H123203   4.585   5.818   5.631 -0.0040  0.6462 -1.4169
  596TIP3    H223204   4.450   5.799   5.565 -0.7789  0.3923  0.1877
  597TIP3   OH223205   0.758   6.624  13.247  0.1095 -0.2076 -0.5533
  597TIP3    H123206   0.717   6.558  13.303 -0.9399  0.5968 -0.3414
  597TIP3    H223207   0.754   6.586  13.159 -0.8167 -0.2884 -0.4914
  598TIP3   OH223208   6.269   0.496  14.473  0.0557 -0.6872  0.4846
  598TIP3    H123209   6.358   0.520  14.501 -0.7444  2.2491  0.9125
  598TIP3    H223210   6.278   0.409  14.434  3.5069  0.2961 -1.3408
  599TIP3   OH223211   5.551   6.070  13.923 -0.1483 -0.5837 -0.2244
  599TIP3    H123212   5.507   6.114  13.850  0.0799 -0.2666 -0.1769
  599TIP3    H223213   5.482   6.054  13.987 -0.1188  0.3504  0.0582
  600TIP3   OH223214   6.579   4.085   1.652 -0.0107  0.3983 -0.6809
  600TIP3    H123215   6.668   4.106   1.621  0.4062  1.9564  1.3861
  600TIP3    H223216   6.551   4.163   1.699 -1.4461 -1.0243  0.9653
  601TIP3   OH223217   6.032   4.985  14.288 -0.5760  0.1180 -0.4271
  601TIP3    H123218   5.965   5.048  14.314 -1.6815 -0.5769 -1.4953
  601TIP3    H223219   6.003   4.951  14.204 -0.0731 -1.8903  0.1540
  602TIP3   OH223220   5.171   2.114  13.153  0.0340  0.1623  0.2125
  602TIP3    H123221   5.151   2.157  13.070  1.0545  1.3284  0.5458
  602TIP3    H223222   5.258   2.146  13.176 -0.8177  1.0375  2.4819
  603TIP3   OH223223   2.283   2.062  11.817  0.1064  0.2472  0.3736
  603TIP3    H123224   2.292   2.120  11.741  1.3605  0.2757  0.5240
  603TIP3    H223225   2.361   2.078  11.869  0.2692 -1.2654  0.6495
  604TIP3   OH223226   6.100   5.235  16.700  0.3818 -0.5501  0.2882
  604TIP3    H123227   6.033   5.243  16.633  0.1786 -0.7050  0.4738
  604TIP3    H223228   6.150   5.317  16.693  0.3891 -0.5816 -0.0756
  605TIP3   OH223229   3.791   6.660  15.222 -0.6639  0.3219  0.4541
  605TIP3    H123230   3.824   6.700  15.303  1.7671  1.5256 -1.0443
  605TIP3    H223231   3.742   6.730  15.179 -1.3278 -0.0970  0.5139
  606TIP3   OH223232   5.585   0.423  13.541  0.3231 -0.4834 -0.3501
  606TIP3    H123233   5.547   0.447  13.626  0.0040 -0.5760 -0.4667
  606TIP3    H223234   5.580   0.327  13.539 -0.8788 -0.4264 -1.0296
  607TIP3   OH223235   4.445   1.541  10.954  0.1202  0.1565 -0.3956
  607TIP3    H123236   4.430   1.605  10.885  0.6232  0.5888 -0.1189
  607TIP3    H223237   4.388   1.468  10.933 -0.0590  0.4727 -1.0185
  608TIP3   OH223238   5.107   5.868   3.592  0.4265  0.2290 -0.8737
  608TIP3    H123239   5.092   5.810   3.667  1.3976  0.0952 -0.7770
  608TIP3    H223240   5.087   5.814   3.516 -0.1405  0.2348 -0.7362
  609TIP3   OH223241   3.846   2.090  13.176  0.4186  0.1254  0.6653
  609TIP3    H123242   3.758   2.110  13.207  0.5040  0.3376  0.7689
  609TIP3    H223243   3.881   2.029  13.242 -0.1318 -1.0291 -0.0645
  610TIP3   OH223244   4.669   4.889   6.064  0.3012  0.4003 -0.0605
  610TIP3    H123245   4.667   4.915   5.972 -2.6884  1.0168  0.0714
  610TIP3    H223246   4.674   4.794   6.062  3.0935  0.4812 -0.7261
  611TIP3   OH223247   1.606   4.269  14.993 -0.1002  0.3249  0.2236
  611TIP3    H123248   1.599   4.233  14.905  0.5307 -0.9670  0.6849
  611TIP3    H223249   1.700   4.281  15.007 -0.1428 -0.1734  0.9886
  612TIP3   OH223250   4.452   1.017  16.288  0.1634 -0.0248 -0.1059
  612TIP3    H123251   4.430   1.095  16.337  0.7962 -1.2693  2.2914
  612TIP3    H223252   4.384   0.953  16.313  0.1620 -0.5319 -1.3271
  613TIP3   OH223253   4.987   3.173  11.632  0.2114  0.3848 -0.0565
  613TIP3    H123254   5.070   3.176  11.586 -0.2264  2.0038 -0.8072
  613TIP3    H223255   4.927   3.225  11.578 -1.3497 -0.8794  0.3636
  614TIP3   OH223256   5.314   0.145   6.972 -0.3814 -0.5901  0.2776
  614TIP3    H123257   5.358   0.230   6.969 -0.5174 -0.4679  1.3811
  614TIP3    H223258   5.385   0.081   6.972 -0.2480 -0.4424  0.5649
  615TIP3   OH223259   2.654   5.312  17.286  0.0968 -0.0798  0.2758
  615TIP3    H123260   2.591   5.385  17.292 -0.7725 -0.5959 -1.5442
  615TIP3    H223261   2.615   5.242  17.338  0.7809  0.6248  1.7766
  616TIP3   OH223262   2.399   0.810   2.821  0.0865  0.2944 -0.2309
  616TIP3    H123263   2.375   0.882   2.763  1.4079  0.0096 -1.1729
  616TIP3    H223264   2.392   0.732   2.767 -1.9950 -0.4089  0.9704
  617TIP3   OH223265   5.298   4.697   5.818  0.1152  0.7916 -0.0434
  617TIP3    H123266   5.389   4.724   5.827  0.4686  0.3624 -1.9475
  617TIP3    H223267   5.283   4.691   5.723 -2.0076  1.2388  0.2005
  618TIP3   OH223268   2.042   3.748   3.319  0.2639  0.2922 -0.5432
  618TIP3    H123269   2.072   3.827   3.275 -1.6725  1.5875  0.2658
  618TIP3    H223270   2.119   3.713   3.363  1.4377  0.9749 -1.9834
  619TIP3   OH223271   0.299   4.199   0.832  0.5863 -0.3213 -0.3661
  619TIP3    H123272   0.385   4.237   0.815  1.2347 -1.5997 -0.1133
  619TIP3    H223273   0.279   4.225   0.922 -0.8415  2.7301 -1.4269
  620TIP3   OH223274   3.677   4.729   3.211 -0.0746 -0.7985 -0.0101
  620TIP3    H123275   3.666   4.636   3.191 -0.8631 -0.8673  0.6600
  620TIP3    H223276   3.589   4.758   3.236 -0.0389  0.3801 -1.1879
  621TIP3   OH223277   2.494   4.421  13.496 -0.4370 -0.2478 -0.0900
  621TIP3    H123278   2.452   4.504  13.516  1.0009  0.2862  0.9172
  621TIP3    H223279   2.522   4.429  13.405 -1.2852 -0.0859 -0.3405
  622TIP3   OH223280   6.662   2.263  12.368  0.5225 -0.3186 -0.1400
  622TIP3    H123281   6.620   2.345  12.342  0.9828  0.2608  0.8649
  622TIP3    H223282   6.702   2.283  12.453  1.1325 -1.4218 -0.1511
  623TIP3   OH223283   2.483   4.740  11.186 -0.0304 -0.5685 -0.7691
  623TIP3    H123284   2.463   4.718  11.095 -1.2421 -2.1489 -0.1593
  623TIP3    H223285   2.439   4.673  11.237  1.7916 -0.5338  0.9543
  624TIP3   OH223286   5.942   4.459  16.070 -0.0789  0.2677  0.1958
  624TIP3    H123287   5.867   4.512  16.098 -0.9592 -0.8618  0.0775
  624TIP3    H223288   5.912   4.418  15.989  0.2796 -1.0161  0.6932
  625TIP3   OH223289   4.086   4.571  11.827  0.4145  0.1595  0.0341
  625TIP3    H123290   4.161   4.558  11.768 -0.3434 -0.3226 -0.8391
  625TIP3    H223291   4.099   4.659  11.862  1.9758 -0.3085  0.7580
  626TIP3   OH223292   3.244   2.785   2.236 -0.0888 -0.2226  0.3397
  626TIP3    H123293   3.153   2.801   2.262  0.1295  0.9470  0.4742
  626TIP3    H223294   3.290   2.769   2.319 -0.2617 -1.3365  0.2247
  627TIP3   OH223295   2.511   4.610   5.189  0.5416  0.2695 -0.1093
  627TIP3    H123296   2.528   4.703   5.174  1.8342  0.2873  1.1990
  627TIP3    H223297   2.418   4.598   5.166  0.9864  1.3020 -2.7067
  628TIP3   OH223298   5.231   5.433  11.676  0.0671  0.0179  0.1396
  628TIP3    H123299   5.214   5.522  11.707 -1.8690 -0.3911  0.4214
  628TIP3    H223300   5.153   5.411  11.625  0.1343 -1.8012  0.7528
  629TIP3   OH223301   4.318   2.954  12.680 -0.2974 -0.3199  0.4016
  629TIP3    H123302   4.385   2.892  12.708 -0.3504  0.8410  3.4740
  629TIP3    H223303   4.263   2.904  12.619  2.1656 -1.8821 -0.6725
  630TIP3   OH223304   3.404   2.601   4.132 -0.3956 -0.2655  0.5999
  630TIP3    H123305   3.416   2.541   4.059 -1.7458  0.9709 -0.7067
  630TIP3    H223306   3.471   2.575   4.196  0.7120 -1.4905 -0.9774
  631TIP3   OH223307   6.467   5.566  16.062  0.3613 -0.1505 -0.7480
  631TIP3    H123308   6.458   5.661  16.076  2.3937 -0.0660  0.3990
  631TIP3    H223309   6.385   5.529  16.096 -0.9510  1.2410 -2.2403
  632TIP3   OH223310   4.092   6.723   0.265 -0.0705  0.2709  0.1082
  632TIP3    H123311   4.022   6.759   0.210 -1.5619 -2.2916  0.1652
  632TIP3    H223312   4.057   6.640   0.297  2.1132  0.0258  2.1315
  633TIP3   OH223313   1.136   1.677   1.623 -0.6490 -0.1874  0.3301
  633TIP3    H123314   1.115   1.698   1.714 -0.9189  0.0856  0.2069
  633TIP3    H223315   1.108   1.755   1.574  0.7645  0.2489  0.1727
  634TIP3   OH223316   5.604   4.878   1.359  0.0042 -0.4202  0.3287
  634TIP3    H123317   5.535   4.849   1.418 -0.3172  0.1061  0.2233
  634TIP3    H223318   5.597   4.974   1.360  0.5556 -0.3743  0.1083
  635TIP3   OH223319   5.118   1.659  12.855  0.2496  0.3149  0.2090
  635TIP3    H123320   5.204   1.628  12.884 -0.6416 -0.5614  2.0814
  635TIP3    H223321   5.131   1.682  12.763  2.4146 -0.0523  0.3659
  636TIP3   OH223322   3.721   6.724   3.615 -0.0518 -0.1371 -0.0306
  636TIP3    H123323   3.679   6.810   3.620 -1.1355 -0.7139  1.8342
  636TIP3    H223324   3.802   6.739   3.567  0.1548  2.0858  0.9097
  637TIP3   OH223325   1.571   3.830  11.313  1.0463 -0.1245 -0.6079
  637TIP3    H123326   1.582   3.750  11.364  0.2567  1.9355  3.2174
  637TIP3    H223327   1.476   3.840  11.305  1.0913  0.8913 -0.0841
  638TIP3   OH223328   3.128   0.871  16.212  0.3453  0.1838  0.0118
  638TIP3    H123329   3.042   0.869  16.170  0.0954  2.2364  0.2871
  638TIP3    H223330   3.172   0.946  16.171  1.4446  0.0584  0.9082
  639TIP3   OH223331   2.834   2.328   6.134  0.0603  0.3311 -0.3025
  639TIP3    H123332   2.814   2.237   6.154  2.8482 -1.0353 -2.8140
  639TIP3    H223333   2.749   2.370   6.126 -1.3261 -1.2342  3.6726
  640TIP3   OH223334   6.249   4.961  17.108 -0.3995 -0.3840  0.4497
  640TIP3    H123335   6.200   4.996  17.033  1.1732 -1.2852 -1.0643
  640TIP3    H223336   6.182   4.922  17.164 -1.5706 -0.2114 -0.7772
  641TIP3   OH223337   5.361   3.343   2.282  0.0980 -0.4250 -0.0462
  641TIP3    H123338   5.366   3.396   2.203 -0.7040 -2.7664 -1.7363
  641TIP3    H223339   5.369   3.407   2.353  1.9290  1.6541 -1.9477
  642TIP3   OH223340   0.518   2.053   6.405  0.5439 -0.4183 -0.3597
  642TIP3    H123341   0.447   2.032   6.466 -1.9219  1.0655 -2.5148
  642TIP3    H223342   0.503   1.995   6.330  1.6598 -0.1258 -0.8211
  643TIP3   OH223343   1.654   1.713  12.409 -0.4266 -0.0202  0.2874
  643TIP3    H123344   1.563   1.738  12.420 -0.3502  0.5929 -0.3971
  643TIP3    H223345   1.704   1.789  12.439 -0.1440 -0.2230  0.3402
  644TIP3   OH223346   1.537   4.934  14.195 -0.0238 -0.1410 -0.4884
  644TIP3    H123347   1.459   4.988  14.178 -0.2127 -0.5645 -1.0018
  644TIP3    H223348   1.523   4.856  14.142 -0.0548 -0.9901  0.7473
  645TIP3   OH223349   3.935   1.824  10.659 -0.3725  0.3990  0.2081
  645TIP3    H123350   3.957   1.900  10.605 -0.2772 -0.0584 -0.4215
  645TIP3    H223351   3.842   1.836  10.681 -0.6916  0.1097 -0.9008
  646TIP3   OH223352   5.055   0.710  14.422  0.1622  0.2091  0.5793
  646TIP3    H123353   5.015   0.740  14.503 -0.4103 -0.8517  0.7152
  646TIP3    H223354   5.011   0.760  14.353 -0.8799 -0.4014  0.7817
  647TIP3   OH223355   4.613   3.922  11.808 -0.0720 -0.0296  0.0524
  647TIP3    H123356   4.544   3.856  11.802  0.1761 -0.2001 -0.9785
  647TIP3    H223357   4.690   3.881  11.769  1.2165 -0.5804  2.9132
  648TIP3   OH223358   1.325   2.964   2.735 -0.3157  0.3959 -0.2656
  648TIP3    H123359   1.340   2.998   2.824 -1.3125  1.0556 -0.3385
  648TIP3    H223360   1.286   2.878   2.749 -0.0570  0.3067 -0.0735
  649TIP3   OH223361   6.392   1.620   4.320 -0.0245  0.1240 -0.0028
  649TIP3    H123362   6.326   1.602   4.386  0.9067 -2.2033  0.4038
  649TIP3    H223363   6.413   1.712   4.330 -3.0788  0.9214 -0.0824
  650TIP3   OH223364   2.173   2.085   1.152 -0.2530  0.8872 -0.1477
  650TIP3    H123365   2.190   2.087   1.246  1.1674  2.9065 -0.4075
  650TIP3    H223366   2.141   2.173   1.132 -3.8510 -0.4493 -1.0572
  651TIP3   OH223367   1.671   0.102   4.072 -0.3774  0.2214 -0.1742
  651TIP3    H123368   1.646   0.190   4.045  0.6416  0.2458 -1.0995
  651TIP3    H223369   1.754   0.113   4.119 -0.3295 -0.2313 -0.1406
  652TIP3   OH223370   5.218   1.451   4.059 -0.5473  0.4883  0.1401
  652TIP3    H123371   5.155   1.421   4.124 -1.1709 -0.5047 -0.8725
  652TIP3    H223372   5.166   1.465   3.980  0.3219  0.7961 -0.3989
  653TIP3   OH223373   5.709   5.524  16.225  0.0741 -0.2592 -0.1596
  653TIP3    H123374   5.667   5.578  16.159  2.0045  0.0167 -1.2419
  653TIP3    H223375   5.799   5.557  16.229  0.3235 -1.0187  1.7996
  654TIP3   OH223376   6.621   0.517   5.469  0.1471 -0.2988  0.0094
  654TIP3    H123377   6.606   0.593   5.413  3.5236 -0.1179 -0.8785
  654TIP3    H223378   6.656   0.450   5.410 -0.5860 -1.7663  1.1736
  655TIP3   OH223379   1.369   0.130  16.987 -0.3476 -0.0398  0.0493
  655TIP3    H123380   1.298   0.068  17.001  0.5996 -1.1954 -0.0501
  655TIP3    H223381   1.368   0.147  16.893 -2.4526  2.4521  0.4166
  656TIP3   OH223382   5.712   6.163  14.632  0.1913 -0.4494 -0.0302
  656TIP3    H123383   5.715   6.258  14.641  0.4518 -0.2905 -1.4532
  656TIP3    H223384   5.747   6.129  14.714 -1.3574  0.6394  1.1205
  657TIP3   OH223385   2.083   6.009  16.829 -0.5612 -0.3472 -0.3652
  657TIP3    H123386   2.074   6.066  16.905 -0.1543  0.4159 -0.8826
  657TIP3    H223387   2.166   6.035  16.789  0.5617 -2.4912  0.3800
  658TIP3   OH223388   0.760   2.043   6.546 -0.3660  0.3620  0.3755
  658TIP3    H123389   0.674   2.018   6.511 -0.2446 -1.6068  1.3432
  658TIP3    H223390   0.745   2.127   6.589 -1.5451  0.5876 -0.4214
  659TIP3   OH223391   0.252   1.403   5.732 -0.0537 -0.3803  0.0951
  659TIP3    H123392   0.174   1.356   5.702 -0.2657  0.7498 -1.2369
  659TIP3    H223393   0.291   1.437   5.652  0.5672  0.9647  0.9401
  660TIP3   OH223394   0.429   0.963   2.628 -0.0556 -0.1555  0.7449
  660TIP3    H123395   0.477   0.900   2.574  0.2720  1.8278 -1.4763
  660TIP3    H223396   0.456   0.944   2.718  2.1465 -1.4018 -0.0987
  661TIP3   OH223397   4.531   4.377  12.419 -0.6229  0.1871  0.0072
  661TIP3    H123398   4.500   4.454  12.467 -1.2584  0.1864 -0.3934
  661TIP3    H223399   4.461   4.312  12.430 -0.6478  0.0917 -0.6813
  662TIP3   OH223400   6.146   0.190   2.998 -0.5171  0.1875  0.0154
  662TIP3    H123401   6.079   0.164   3.062 -0.3068 -3.1507 -0.9184
  662TIP3    H223402   6.220   0.132   3.017  0.7198  1.2510 -1.3419
  663TIP3   OH223403   2.480   2.518   5.915  0.3561  0.6078 -0.1135
  663TIP3    H123404   2.518   2.525   6.002  0.4556 -0.0176 -0.1024
  663TIP3    H223405   2.435   2.433   5.915 -0.0747  0.8273 -0.5006
  664TIP3   OH223406   2.063   1.121  12.849 -0.3566  0.0154  0.1585
  664TIP3    H123407   2.094   1.128  12.939  1.3513 -1.1251 -0.2959
  664TIP3    H223408   2.112   1.188  12.801  1.6267 -1.8356 -0.5736
  665TIP3   OH223409   3.265   0.656  14.233  0.7655 -0.5078 -0.1167
  665TIP3    H123410   3.311   0.609  14.164  1.6379 -0.0727  0.1532
  665TIP3    H223411   3.253   0.744  14.199 -3.8715 -1.5819 -2.0554
  666TIP3   OH223412   5.370   5.929  14.097  0.0307  0.2819  0.2648
  666TIP3    H123413   5.282   5.905  14.067  1.0089 -2.0436 -1.0457
  666TIP3    H223414   5.384   5.875  14.175  0.6712 -0.1703 -0.1552
  667TIP3   OH223415   6.006   6.269  15.092 -0.5645 -0.0182 -0.3092
  667TIP3    H123416   6.099   6.263  15.114 -0.8392 -0.8539  0.6955
  667TIP3    H223417   5.963   6.207  15.151 -1.9792  1.7184  0.5699
  668TIP3   OH223418   6.221   2.003   4.929 -0.9676  0.4241  0.4906
  668TIP3    H123419   6.301   1.956   4.953 -1.1106  0.1340  0.4135
  668TIP3    H223420   6.251   2.084   4.889 -0.6472 -0.5436 -1.3531
  669TIP3   OH223421   1.328   3.241   2.767  0.6858 -0.0302  0.3857
  669TIP3    H123422   1.292   3.154   2.747  1.0436  0.0018 -0.4238
  669TIP3    H223423   1.316   3.291   2.687  2.0622  0.1388  0.2590
  670TIP3   OH223424   5.109   6.306   4.713  0.0585 -0.3300 -0.2530
  670TIP3    H123425   5.086   6.236   4.774  2.0512 -1.5117 -0.7789
  670TIP3    H223426   5.143   6.376   4.768  0.9301 -1.0029  0.0836
  671TIP3   OH223427   5.955   3.297   2.457  0.3786 -0.1245  0.1353
  671TIP3    H123428   6.022   3.251   2.405 -0.3981 -0.7513 -0.3548
  671TIP3    H223429   5.903   3.226   2.495  0.3258  0.3516  0.9535
  672TIP3   OH223430   0.919   1.915   0.883 -0.1967  0.5110 -0.0744
  672TIP3    H123431   0.904   1.882   0.794 -0.5175  2.4223 -0.7892
  672TIP3    H223432   0.841   1.968   0.902  2.1362  4.6300 -0.9151
  673TIP3   OH223433   5.377   2.009   2.282  0.0592 -0.7703  0.1704
  673TIP3    H123434   5.421   2.079   2.330  0.4671  0.0489 -1.3244
  673TIP3    H223435   5.309   1.977   2.342  1.0224 -0.3161  1.5468
  674TIP3   OH223436   4.579   1.818   1.271 -0.1718 -0.0548  0.4330
  674TIP3    H123437   4.494   1.816   1.314 -0.2346  1.3020  0.4228
  674TIP3    H223438   4.561   1.795   1.180 -0.3356 -0.9690  0.6907
  675TIP3   OH223439   0.201   3.294  12.973  0.6973  0.2953  0.1330
  675TIP3    H123440   0.241   3.248  13.046  0.5175 -0.1457 -0.0421
  675TIP3    H223441   0.115   3.252  12.962  1.2044 -0.4622 -1.0973
  676TIP3   OH223442   1.291   0.388  11.198  0.1041  0.2468 -0.6113
  676TIP3    H123443   1.343   0.308  11.205  0.4684  0.4471 -0.9884
  676TIP3    H223444   1.248   0.381  11.113  0.1114  0.4351 -0.6306
  677TIP3   OH223445   5.348   4.992  12.723  0.1632 -0.3323 -0.3176
  677TIP3    H123446   5.349   4.943  12.641 -1.1374 -0.7248 -0.1231
  677TIP3    H223447   5.440   5.014  12.739  0.3770  0.3849 -2.2445
  678TIP3   OH223448   6.545   3.499   4.929  0.3330 -0.4789 -0.0148
  678TIP3    H123449   6.500   3.550   4.996  0.2627 -2.0214  1.1715
  678TIP3    H223450   6.491   3.509   4.851 -0.4870  0.0251  0.5934
  679TIP3   OH223451   2.137   4.307   0.392 -0.3482  0.0690 -0.1241
  679TIP3    H123452   2.201   4.346   0.332 -0.3579  1.5107  0.7581
  679TIP3    H223453   2.059   4.294   0.338  0.1774 -0.2602 -0.8307
  680TIP3   OH223454   1.833   3.529   2.757 -0.4837 -0.4897 -0.3010
  680TIP3    H123455   1.910   3.473   2.763 -0.2410 -0.1314 -0.0280
  680TIP3    H223456   1.767   3.475   2.713 -0.0036 -0.7172 -0.7502
  681TIP3   OH223457   1.297   5.506  12.813 -0.4810  0.6236 -0.1124
  681TIP3    H123458   1.382   5.479  12.778 -0.4519  0.5241  0.0376
  681TIP3    H223459   1.233   5.451  12.767 -0.5878  1.7112 -1.3180
  682TIP3   OH223460   4.675   4.641   4.383  0.1146 -0.1316 -0.6522
  682TIP3    H123461   4.666   4.676   4.471 -2.1444  0.9732 -1.2220
  682TIP3    H223462   4.647   4.550   4.390  0.5561 -0.2251 -0.1175
  683TIP3   OH223463   0.155   5.218   0.076  0.2573 -0.1741  0.3506
  683TIP3    H123464   0.159   5.180   0.163  1.2907  0.9995  0.8351
  683TIP3    H223465   0.089   5.287   0.083  1.6086  1.1277  0.7262
  684TIP3   OH223466   0.974   2.677  16.734 -0.4664 -0.0964 -0.4858
  684TIP3    H123467   0.955   2.765  16.702 -1.8967 -0.1392  0.1257
  684TIP3    H223468   0.891   2.648  16.774 -0.1732 -1.8965 -1.0785
  685TIP3   OH223469   0.791   5.361   3.441 -0.2054 -0.1272 -0.4246
  685TIP3    H123470   0.823   5.284   3.487 -1.1571  0.2585  0.9533
  685TIP3    H223471   0.773   5.424   3.511 -0.6644  0.8817 -1.4296
  686TIP3   OH223472   0.603   3.214  12.887  0.1198  0.5754  0.0647
  686TIP3    H123473   0.560   3.171  12.961  1.0446  1.0012  0.8897
  686TIP3    H223474   0.532   3.246  12.832 -0.5853 -0.0935  0.5722
  687TIP3   OH223475   3.489   5.880   3.106 -0.0437 -0.5682  0.4616
  687TIP3    H123476   3.526   5.796   3.081 -1.6335 -1.4992  1.1352
  687TIP3    H223477   3.522   5.895   3.195 -0.9665 -1.2251  0.9251
  688TIP3   OH223478   4.918   0.013   5.187  0.0954 -0.0681 -0.1831
  688TIP3    H123479   4.835  -0.030   5.166 -0.8260  1.5866 -0.1347
  688TIP3    H223480   4.929   0.079   5.118 -0.8615  2.6201  2.0241
  689TIP3   OH223481   0.990   3.905   3.714 -0.3128 -0.0742  0.1422
  689TIP3    H123482   1.037   3.942   3.789  0.9174 -0.5853 -0.3496
  689TIP3    H223483   1.022   3.815   3.708 -3.2300 -1.3459  1.3278
  690TIP3   OH223484   1.338   4.669   1.082  0.1722 -0.7515 -0.1762
  690TIP3    H123485   1.253   4.629   1.062  0.1612 -0.9261  0.2091
  690TIP3    H223486   1.360   4.719   1.003 -0.4487 -0.4258 -0.1464
  691TIP3   OH223487   4.782   5.805   0.100  0.3489  0.1228  0.3803
  691TIP3    H123488   4.869   5.811   0.061  0.3318  2.2641  0.5349
  691TIP3    H223489   4.722   5.829   0.029 -0.1559 -1.2611  0.2981
  692TIP3   OH223490   3.906   2.063  16.206 -0.1708 -0.2091 -0.4715
  692TIP3    H123491   3.909   2.131  16.138  2.8166 -0.6446 -0.9320
  692TIP3    H223492   3.897   1.981  16.158 -2.0286 -0.3089 -0.0227
  693TIP3   OH223493   5.576   5.458  16.451  0.0954  0.0311  0.0926
  693TIP3    H123494   5.608   5.465  16.361 -1.0662 -3.5199 -0.7666
  693TIP3    H223495   5.483   5.435  16.442 -0.1680  0.0896  2.1966
  694TIP3   OH223496   4.695   0.417  11.355  0.1041  0.4128 -0.2914
  694TIP3    H123497   4.762   0.359  11.319 -0.6775 -0.1886 -0.8277
  694TIP3    H223498   4.658   0.462  11.279 -0.5350  0.2597 -0.0787
  695TIP3   OH223499   0.783   1.262   1.899  0.8061 -0.1822 -0.0323
  695TIP3    H123500   0.837   1.278   1.820  0.4952 -1.5436 -0.5387
  695TIP3    H223501   0.824   1.186   1.940  2.0442  1.5493  2.1411
  696TIP3   OH223502   6.766   1.113  11.288  0.2897  0.2012  0.0689
  696TIP3    H123503   6.729   1.198  11.266 -0.4324  0.3115  1.5672
  696TIP3    H223504   6.699   1.071  11.343  1.0837 -0.8928  0.2448
  697TIP3   OH223505   1.027   5.158  12.484  0.3605  0.3847  0.2457
  697TIP3    H123506   1.024   5.211  12.404  0.4685  1.5034  0.9588
  697TIP3    H223507   1.059   5.219  12.551  1.3736 -0.8328  0.9051
  698TIP3   OH223508   2.364   0.498   3.074 -0.2026  0.8278  0.3415
  698TIP3    H123509   2.379   0.440   3.000 -0.1396  1.0269  0.1981
  698TIP3    H223510   2.417   0.576   3.055 -0.7038  1.1585  0.2710
  699TIP3   OH223511   6.584   3.640  12.748 -0.0116  0.7669 -0.1815
  699TIP3    H123512   6.493   3.623  12.774  0.9264 -0.7965  2.4948
  699TIP3    H223513   6.610   3.560  12.702  0.0172  1.2583 -1.0402
  700TIP3   OH223514   6.458   3.162   5.193 -0.3688  0.5239  0.1623
  700TIP3    H123515   6.532   3.222   5.204 -0.4504  1.0270 -1.7190
  700TIP3    H223516   6.451   3.150   5.098 -1.6846 -0.8059  0.3963
  701TIP3   OH223517   3.014   0.516   0.107  0.6266 -0.1226  0.1943
  701TIP3    H123518   2.944   0.565   0.150  0.8218  0.0043  0.3715
  701TIP3    H223519   3.019   0.434   0.157  1.3524  0.3300  0.8997
  702TIP3   OH223520   4.000   4.334  17.237  0.3806 -0.0560 -0.5880
  702TIP3    H123521   4.071   4.284  17.277  0.4652 -0.0024 -0.6712
  702TIP3    H223522   4.033   4.424  17.235  0.1579  0.0376 -0.2708
  703TIP3   OH223523   5.232   2.433   1.904  0.4011  0.4352  0.1410
  703TIP3    H123524   5.239   2.433   1.809  0.7673 -2.1872  0.0800
  703TIP3    H223525   5.270   2.349   1.931 -2.3451 -0.2959  2.3427
  704TIP3   OH223526   4.332   3.952  16.767 -0.2690  0.0257 -0.4306
  704TIP3    H123527   4.397   3.903  16.815  0.5094  1.0757 -0.3679
  704TIP3    H223528   4.370   3.964  16.680 -0.4405  0.4921 -0.4480
  705TIP3   OH223529   2.400   6.016  13.983  0.7979 -0.2771  0.1432
  705TIP3    H123530   2.460   5.964  13.929  2.4597  0.7422  0.9510
  705TIP3    H223531   2.313   5.979  13.964  1.1187  0.5424 -3.8400
  706TIP3   OH223532   2.137   2.367  13.200 -0.4145  0.0793 -0.5638
  706TIP3    H123533   2.048   2.396  13.179 -0.1336  2.4641  1.2338
  706TIP3    H223534   2.125   2.280  13.238 -1.8709  0.0498 -1.0217
  707TIP3   OH223535   5.641   5.688   0.428  0.0433 -0.1795 -0.4699
  707TIP3    H123536   5.717   5.630   0.422 -0.0796 -0.5839  1.4127
  707TIP3    H223537   5.653   5.736   0.510 -1.5020  0.0846 -0.3605
  708TIP3   OH223538   6.223   0.805   5.889  0.5878 -0.1433 -0.1832
  708TIP3    H123539   6.238   0.763   5.975 -1.2918  1.7847  1.1689
  708TIP3    H223540   6.139   0.770   5.860  0.7717 -0.0705 -0.8083
  709TIP3   OH223541   3.959   0.415   3.650 -0.3485 -0.6667  0.0303
  709TIP3    H123542   3.917   0.374   3.726 -0.4070 -0.5264  0.0733
  709TIP3    H223543   3.934   0.359   3.576  0.5360 -1.3904  0.2521
  710TIP3   OH223544   3.309   0.079  13.413  0.1020 -0.6732  0.2392
  710TIP3    H123545   3.215   0.090  13.422 -0.3194 -2.5601 -1.2196
  710TIP3    H223546   3.324  -0.015  13.422  1.7819 -0.4708 -0.0529
  711TIP3   OH223547   5.199   3.616  12.556  0.0314  0.2804  0.1108
  711TIP3    H123548   5.182   3.604  12.463  0.4542 -0.3304  0.1054
  711TIP3    H223549   5.282   3.572  12.571  0.6129  1.4746  0.5313
  712TIP3   OH223550   1.303   1.364   3.454 -0.1096  0.3989 -0.4763
  712TIP3    H123551   1.291   1.457   3.472 -0.8312  0.7371 -2.4334
  712TIP3    H223552   1.246   1.347   3.379 -0.7709 -1.8710  0.4741
  713TIP3   OH223553   1.070   0.975  15.493  0.0181 -0.1503  0.2893
  713TIP3    H123554   0.987   0.927  15.497 -1.7929  2.6685  0.0267
  713TIP3    H223555   1.089   0.998  15.585  0.3149 -0.4929  0.3133
  714TIP3   OH223556   4.355   4.431   4.843 -0.5733 -0.6252 -0.2686
  714TIP3    H123557   4.438   4.409   4.801  1.0928  0.0621  2.4493
  714TIP3    H223558   4.342   4.363   4.908 -1.0533  0.4032  0.7449
  715TIP3   OH223559   5.620   5.926   1.943 -1.1654 -0.2631 -0.3376
  715TIP3    H123560   5.638   5.835   1.965 -1.0774 -0.1900 -0.0964
  715TIP3    H223561   5.620   5.971   2.027  0.2955  0.2229 -0.5591
  716TIP3   OH223562   3.544   1.468  15.197 -0.2202 -0.6633 -0.2424
  716TIP3    H123563   3.586   1.489  15.280  0.5830  1.9525 -1.1990
  716TIP3    H223564   3.450   1.482  15.214 -0.3461 -2.3779  0.7575
  717TIP3   OH223565   5.825   4.259   3.657 -0.7226 -0.7841  0.5490
  717TIP3    H123566   5.767   4.221   3.722 -0.4789 -0.8063  0.7564
  717TIP3    H223567   5.822   4.353   3.673 -0.1101 -0.8451  1.0637
  718TIP3   OH223568   4.961   3.565   2.038  0.3655 -0.6762  0.2979
  718TIP3    H123569   5.029   3.610   2.088 -0.5671  0.3770  0.6875
  718TIP3    H223570   4.881   3.582   2.087  0.0399 -3.4591  0.8706
  719TIP3   OH223571   0.989   3.266  14.072  0.7533 -0.0912 -0.1312
  719TIP3    H123572   0.945   3.345  14.102  0.9633 -0.1113  0.2339
  719TIP3    H223573   1.057   3.297  14.014  0.5198 -0.0347 -0.3770
  720TIP3   OH223574   2.245   5.359  13.620  0.2410  0.2544 -0.5088
  720TIP3    H123575   2.234   5.387  13.529  1.6040 -1.8136 -1.3939
  720TIP3    H223576   2.188   5.283  13.629  0.2228  0.3562  0.3379
  721TIP3   OH223577   0.326   0.819   0.136  0.2093  0.2920 -0.2348
  721TIP3    H123578   0.302   0.873   0.061  0.2762  0.9194  0.1911
  721TIP3    H223579   0.268   0.743   0.130  0.9806 -0.2199 -1.5493
  722TIP3   OH223580   4.369   6.436   0.158 -0.4067 -0.1837 -0.1668
  722TIP3    H123581   4.382   6.343   0.139 -0.2217 -0.6021  1.8572
  722TIP3    H223582   4.435   6.457   0.224 -0.7691  1.2750 -0.2260
  723TIP3   OH223583   2.564   0.688   0.664 -0.4213 -0.0214  0.4461
  723TIP3    H123584   2.588   0.612   0.611 -0.9953 -0.1026  0.2889
  723TIP3    H223585   2.473   0.706   0.639 -0.3533  0.5935  0.6293
  724TIP3   OH223586   1.916   3.669  16.144 -0.5795 -0.4647 -0.2504
  724TIP3    H123587   1.823   3.646  16.142 -1.3716  2.2914 -2.5233
  724TIP3    H223588   1.944   3.651  16.234 -3.5261 -0.6107  0.7425
  725TIP3   OH223589   3.686   3.715  12.446  0.9040  0.0648  0.3144
  725TIP3    H123590   3.632   3.643  12.414  1.6318 -0.1515 -0.4305
  725TIP3    H223591   3.687   3.702  12.541 -0.4481  0.1447  0.3606
  726TIP3   OH223592   6.214   1.772  12.350  0.5632 -0.3079 -0.0276
  726TIP3    H123593   6.156   1.826  12.403 -2.7529 -1.4231 -2.2087
  726TIP3    H223594   6.204   1.684  12.385 -0.1524 -0.7233 -1.2124
  727TIP3   OH223595   2.904   3.239  11.253 -0.4014  0.1821  1.1575
  727TIP3    H123596   2.821   3.285  11.244 -0.5501 -0.2193  0.3716
  727TIP3    H223597   2.919   3.233  11.347 -0.8796  0.9333  1.2833
  728TIP3   OH223598   2.471   5.388   3.938  0.0366  0.2791 -0.3255
  728TIP3    H123599   2.416   5.457   3.902  0.0725  0.3194 -0.3032
  728TIP3    H223600   2.545   5.381   3.877 -0.5704 -0.5685 -0.9934
  729TIP3   OH223601   1.757   5.482   4.555 -0.6947 -0.3857 -0.3273
  729TIP3    H123602   1.765   5.558   4.612 -1.2410 -0.9654  0.5410
  729TIP3    H223603   1.789   5.513   4.470  0.5377  0.3825  0.3736
  730TIP3   OH223604   0.088   3.399  14.793 -0.2991 -0.0611  0.2136
  730TIP3    H123605   0.150   3.365  14.857 -0.5007 -1.8686 -0.4801
  730TIP3    H223606   0.022   3.444  14.846  0.0895 -0.6001  1.1890
  731TIP3   OH223607   3.957   2.451  15.647  0.0811  0.1594 -0.1074
  731TIP3    H123608   3.933   2.442  15.555 -0.4536 -0.9777  0.1258
  731TIP3    H223609   3.877   2.479  15.691 -0.3796 -1.7418  0.3677
  732TIP3   OH223610   6.294   2.242  13.052 -0.5872  0.2286 -0.4423
  732TIP3    H123611   6.262   2.253  13.142 -2.2430 -1.3201 -0.8014
  732TIP3    H223612   6.338   2.325  13.033 -1.5417  1.1915  1.2593
  733TIP3   OH223613   2.904   0.424   1.526  0.3523 -0.2034 -0.1049
  733TIP3    H123614   2.964   0.498   1.519 -1.0600  0.7971 -2.7663
  733TIP3    H223615   2.932   0.364   1.457 -0.9401 -0.2634 -0.5937
  734TIP3   OH223616   1.591   5.260  11.458 -0.4165 -0.4903 -0.1445
  734TIP3    H123617   1.509   5.269  11.508  0.5925  0.3197  1.4323
  734TIP3    H223618   1.566   5.284  11.369 -1.8540  0.0019  0.3491
  735TIP3   OH223619   0.650   0.957  10.397  0.1735  0.5644 -0.1519
  735TIP3    H123620   0.582   0.983  10.336  0.9142  0.7152 -0.9252
  735TIP3    H223621   0.628   0.867  10.421 -1.1563  1.1066  0.8180
  736TIP3   OH223622   5.296   3.831  16.399  0.0984 -0.2686  0.1308
  736TIP3    H123623   5.359   3.765  16.371  2.8636  2.1256  0.2231
  736TIP3    H223624   5.278   3.809  16.491  0.6420 -1.1430  0.0422
  737TIP3   OH223625   4.831   0.505   5.886 -0.0600  0.6434  0.3896
  737TIP3    H123626   4.853   0.548   5.969 -2.8349  1.7534  0.6484
  737TIP3    H223627   4.764   0.440   5.910 -0.3902  0.4897 -0.8907
  738TIP3   OH223628   1.458   1.353   0.101  0.1044 -0.0648 -0.5059
  738TIP3    H123629   1.404   1.277   0.125  1.1261 -0.2531  1.3648
  738TIP3    H223630   1.529   1.353   0.165  1.0668  1.5152 -1.5083
  739TIP3   OH223631   2.819   0.479  13.292  0.2741 -0.4346 -0.2799
  739TIP3    H123632   2.810   0.386  13.269  2.1051 -0.4325 -1.1163
  739TIP3    H223633   2.776   0.486  13.378 -0.8678 -1.8061 -0.6866
  740TIP3   OH223634   4.700   4.682  13.607  0.0272  0.0932 -0.3036
  740TIP3    H123635   4.606   4.664  13.599  0.4523 -2.0733 -0.9872
  740TIP3    H223636   4.707   4.736  13.686 -1.7025 -0.4401  0.2614
  741TIP3   OH223637   2.284   3.816  14.170  0.5018 -0.0486 -0.5897
  741TIP3    H123638   2.226   3.785  14.100  0.1820  0.5311 -0.5858
  741TIP3    H223639   2.371   3.814  14.131  0.4950 -0.9225 -0.5983
  742TIP3   OH223640   2.479   0.277   3.412 -0.1868  0.4488 -0.0501
  742TIP3    H123641   2.549   0.294   3.474 -0.7788 -0.5414  0.9146
  742TIP3    H223642   2.501   0.193   3.373  0.1626  1.0441 -1.1925
  743TIP3   OH223643   4.757   6.327  12.056 -0.7049 -0.1262 -0.3011
  743TIP3    H123644   4.810   6.407  12.060 -1.8980  0.7546 -1.2205
  743TIP3    H223645   4.803   6.265  12.113  0.8585  0.8446 -0.4288
  744TIP3   OH223646   4.411   1.507   5.276  0.3531  0.1872 -0.8296
  744TIP3    H123647   4.346   1.565   5.236  0.1755 -0.0963 -0.9601
  744TIP3    H223648   4.394   1.512   5.370  0.1655  0.1453 -0.8609
  745TIP3   OH223649   3.686   3.158  16.202 -0.0208 -0.3943  0.4919
  745TIP3    H123650   3.602   3.202  16.192 -0.3147 -1.1495 -0.6220
  745TIP3    H223651   3.664   3.065  16.200  0.3732 -0.7294  4.4938
  746TIP3   OH223652   2.281   6.048  11.334 -0.8879 -0.2262  1.3794
  746TIP3    H123653   2.276   6.066  11.240  0.1022  2.4561  1.7584
  746TIP3    H223654   2.365   6.085  11.361 -0.8824 -1.4701  3.2460
  747TIP3   OH223655   3.867   3.610  13.041 -0.4381 -0.4221 -0.2027
  747TIP3    H123656   3.819   3.624  13.123 -1.1080  0.1269 -0.6824
  747TIP3    H223657   3.800   3.585  12.977  0.0555 -0.6724 -0.6309
  748TIP3   OH223658   0.051   2.085   5.293 -0.1004  0.5094 -1.1578
  748TIP3    H123659  -0.034   2.129   5.300 -0.7458 -0.2674 -3.3534
  748TIP3    H223660   0.039   2.020   5.224  1.7212 -1.0227 -0.1254
  749TIP3   OH223661   0.846   0.282   1.935 -0.3264 -0.2895 -0.0136
  749TIP3    H123662   0.873   0.268   1.844  0.9447 -0.0870  0.3014
  749TIP3    H223663   0.929   0.292   1.983 -0.9873  1.2693  0.8893
  750TIP3   OH223664   1.848   3.031  11.483 -0.5081  0.4472  0.6525
  750TIP3    H123665   1.850   3.033  11.579 -0.8368  1.6109  0.6533
  750TIP3    H223666   1.935   3.063  11.457  0.3721 -1.8753  0.5299
  751TIP3   OH223667   3.463   2.849  12.943  0.3695  0.2554 -0.1321
  751TIP3    H123668   3.495   2.817  12.858  0.0174  1.3271 -0.6796
  751TIP3    H223669   3.475   2.944  12.940 -0.3841  0.3973  0.7067
  752TIP3   OH223670   2.275   4.331  13.360  0.0775 -0.4848 -0.4640
  752TIP3    H123671   2.329   4.361  13.434 -0.2387 -1.4589  0.1884
  752TIP3    H223672   2.210   4.400  13.348  0.5817  0.0234 -0.3092
  753TIP3   OH223673   1.452   0.151   4.872 -0.5132  0.0776 -0.3808
  753TIP3    H123674   1.409   0.086   4.927 -0.1900 -0.7784 -1.1067
  753TIP3    H223675   1.527   0.104   4.835 -0.8849  0.5330 -1.7691
  754TIP3   OH223676   0.186   0.070  12.877 -0.0221 -0.3760 -0.4353
  754TIP3    H123677   0.127   0.145  12.876 -0.0294 -0.3840 -0.6525
  754TIP3    H223678   0.149   0.012  12.944  0.0003 -0.1742 -0.2453
  755TIP3   OH223679   0.781   5.421  15.369 -0.2052  0.5966  0.1052
  755TIP3    H123680   0.856   5.378  15.328 -0.9387  0.0665 -0.7359
  755TIP3    H223681   0.768   5.373  15.451 -1.0052 -0.8257 -0.8126
  756TIP3   OH223682   6.064   6.400  13.271  0.3872  0.0660  0.3517
  756TIP3    H123683   6.081   6.324  13.327 -0.6555  1.6465  3.0006
  756TIP3    H223684   6.150   6.426  13.239  0.5799 -4.1775 -3.7072
  757TIP3   OH223685   0.688   3.198   4.128  0.9755 -1.3070  0.1071
  757TIP3    H123686   0.696   3.293   4.125 -3.0450 -0.6786  2.5448
  757TIP3    H223687   0.777   3.167   4.146  2.0408  2.1325  1.5956
  758TIP3   OH223688   1.374   2.734   3.071 -0.5970  0.1768 -0.1471
  758TIP3    H123689   1.343   2.653   3.113  0.6439 -0.1709  0.1707
  758TIP3    H223690   1.335   2.732   2.984 -2.7680  0.6222  0.7612
  759TIP3   OH223691   2.084   3.187  11.893  0.4653  0.1608 -0.2702
  759TIP3    H123692   2.017   3.214  11.831  1.7268  0.0569 -1.7643
  759TIP3    H223693   2.097   3.263  11.949 -1.2218  0.0018  0.3810
  760TIP3   OH223694   4.487   5.717   4.616 -0.4890  0.0215  0.6442
  760TIP3    H123695   4.461   5.746   4.704  0.6542  0.1413  0.9656
  760TIP3    H223696   4.572   5.757   4.602 -0.0798 -1.0178 -0.0037
  761TIP3   OH223697   5.865   0.160   0.919 -0.1410 -0.2798  0.1656
  761TIP3    H123698   5.818   0.122   0.844 -0.6484  0.1781  0.2425
  761TIP3    H223699   5.807   0.143   0.994  0.8087 -1.6027  0.6335
  762TIP3   OH223700   3.320   1.824  13.017  0.2726  0.4065 -0.3877
  762TIP3    H123701   3.408   1.851  13.045  0.2582  0.0174  0.0624
  762TIP3    H223702   3.334   1.741  12.972  0.0317 -0.1918  0.6047
  763TIP3   OH223703   5.639   2.184  17.014 -0.2073  0.3928  0.0644
  763TIP3    H123704   5.591   2.261  16.985  1.1230 -0.0210 -3.7864
  763TIP3    H223705   5.578   2.112  17.004 -0.2780  0.4681 -0.0494
  764TIP3   OH223706   1.203   3.560   5.015 -0.6582 -0.7389  0.1781
  764TIP3    H123707   1.126   3.613   4.998  0.3113  0.1582 -1.7260
  764TIP3    H223708   1.170   3.470   5.013 -1.6731 -0.3728 -0.4902
  765TIP3   OH223709   4.343   5.413   5.467  0.1117  0.2663  0.1588
  765TIP3    H123710   4.406   5.351   5.431  0.8770  2.0155 -1.6959
  765TIP3    H223711   4.377   5.435   5.554  0.1709 -1.3649  0.5777
  766TIP3   OH223712   2.298   1.371  11.969 -0.0737  0.5790 -0.0395
  766TIP3    H123713   2.215   1.383  11.921 -0.1850  0.0022  0.0104
  766TIP3    H223714   2.348   1.450  11.948 -0.3425  0.5924 -0.6627
  767TIP3   OH223715   4.937   2.164   4.931 -0.1849 -0.0137 -0.0917
  767TIP3    H123716   4.976   2.188   4.847  0.1897  2.0181  0.5856
  767TIP3    H223717   4.953   2.241   4.987  0.7814 -1.8103  2.2546
  768TIP3   OH223718   0.958   5.462   3.080  1.0264  0.3639 -0.1759
  768TIP3    H123719   0.903   5.384   3.085  0.7208  0.2976 -2.8529
  768TIP3    H223720   1.017   5.446   3.006  0.0763  3.1266 -1.7119
  769TIP3   OH223721   4.677   3.661   2.482  0.5066  0.0136  0.5665
  769TIP3    H123722   4.726   3.581   2.502  2.0309  0.7590 -0.0348
  769TIP3    H223723   4.734   3.732   2.512 -0.0004  0.9340 -0.5550
  770TIP3   OH223724   0.133   5.632  16.780  0.3917  0.0520  0.6765
  770TIP3    H123725   0.116   5.558  16.722  2.8376 -2.2152  2.5941
  770TIP3    H223726   0.228   5.634  16.789  0.2562  2.1129  2.3806
  771TIP3   OH223727   1.406   0.451   2.507 -0.0480  0.3498 -0.1663
  771TIP3    H123728   1.385   0.503   2.585  2.4236  1.5302 -0.2113
  771TIP3    H223729   1.375   0.504   2.434 -0.3849  0.2719 -0.0811
  772TIP3   OH223730   4.065   5.497   5.220 -0.0420  0.0399  0.1231
  772TIP3    H123731   3.983   5.448   5.217 -0.2759  0.0782  3.0491
  772TIP3    H223732   4.052   5.563   5.288  2.8585 -0.9933  1.9118
  773TIP3   OH223733   4.824   3.327  12.058 -0.2787 -0.2880 -0.1860
  773TIP3    H123734   4.750   3.365  12.104 -0.4978 -1.8647  0.8227
  773TIP3    H223735   4.873   3.403  12.025 -0.5247  0.8856  1.9937
  774TIP3   OH223736   2.523   6.626   2.559  0.2551  0.6300 -0.1104
  774TIP3    H123737   2.599   6.578   2.527 -0.5510  0.9142 -2.6621
  774TIP3    H223738   2.458   6.619   2.489 -2.6877 -0.7730  2.4978
  775TIP3   OH223739   0.590   3.642  12.687 -0.1733  0.3046 -0.0164
  775TIP3    H123740   0.625   3.649  12.598  1.1529  0.4447  0.5032
  775TIP3    H223741   0.656   3.684  12.742 -1.2174  0.6720  0.9887
  776TIP3   OH223742   1.392   5.718   3.986 -0.6500 -0.2455 -0.5899
  776TIP3    H123743   1.315   5.729   4.042 -0.2128  1.5632 -0.2887
  776TIP3    H223744   1.405   5.803   3.945  1.4362 -0.3617 -0.3043
  777TIP3   OH223745   1.885   1.527  16.841  0.0361 -0.5053 -0.3914
  777TIP3    H123746   1.793   1.554  16.845 -0.4093 -2.0600  0.7657
  777TIP3    H223747   1.934   1.607  16.855 -1.1946 -0.0608  1.7587
  778TIP3   OH223748   1.628   6.327  14.549 -0.0618  0.3023 -0.0132
  778TIP3    H123749   1.549   6.363  14.509  1.0003  1.1564 -1.3963
  778TIP3    H223750   1.599   6.297  14.635 -2.1314 -0.3881 -0.8780
  779TIP3   OH223751   2.700   3.329   5.334  0.5834  0.3234 -0.6785
  779TIP3    H123752   2.635   3.313   5.267  0.3831 -0.1225 -0.3770
  779TIP3    H223753   2.776   3.277   5.307  0.3287 -0.2568 -0.3018
  780TIP3   OH223754   3.030   3.054  13.507 -0.3946  0.2562 -0.1017
  780TIP3    H123755   3.019   2.962  13.532 -1.1007  0.5591  0.8010
  780TIP3    H223756   3.072   3.051  13.421  1.0291 -0.8802  0.5834
  781TIP3   OH223757   0.476   2.149   2.878 -0.0114  0.2167  0.1488
  781TIP3    H123758   0.463   2.237   2.915  0.2954  0.3135  0.0326
  781TIP3    H223759   0.459   2.090   2.952 -2.7170  0.2228 -0.3729
  782TIP3   OH223760   5.049   3.310  15.855 -0.4658  0.9806  0.0213
  782TIP3    H123761   4.961   3.326  15.889 -0.8272 -0.4342 -0.1671
  782TIP3    H223762   5.101   3.288  15.933  0.0820  3.0954  0.3077
  783TIP3   OH223763   5.305   6.583   2.233 -0.0997 -0.2882  0.1057
  783TIP3    H123764   5.286   6.674   2.210 -0.6553 -0.0111  1.5612
  783TIP3    H223765   5.226   6.552   2.276 -0.3924 -1.8828 -1.4790
  784TIP3   OH223766   0.134   1.678  13.903  0.3916 -0.2386  0.5960
  784TIP3    H123767   0.147   1.761  13.950  1.2467  1.8995 -3.0284
  784TIP3    H223768   0.075   1.700  13.832 -0.8574 -3.2963  0.5694
  785TIP3   OH223769   3.195   6.139   3.124  0.6865 -0.3178  0.1868
  785TIP3    H123770   3.249   6.179   3.192  0.4085 -1.1131  0.9000
  785TIP3    H223771   3.125   6.202   3.109  0.7511 -0.1275  0.6507
  786TIP3   OH223772   2.605   0.198   0.298 -0.9520 -0.1191 -0.2209
  786TIP3    H123773   2.680   0.140   0.288 -0.3283  0.7315 -0.5177
  786TIP3    H223774   2.601   0.216   0.392 -0.6586 -0.0017 -0.2300
  787TIP3   OH223775   1.892   1.614   2.408 -0.4158 -0.3109 -0.7545
  787TIP3    H123776   1.825   1.564   2.364 -0.1686 -0.7306 -0.6572
  787TIP3    H223777   1.880   1.704   2.376 -2.2670  0.0256  0.7204
  788TIP3   OH223778   5.151   5.139   2.211  0.6027  0.1801 -0.1650
  788TIP3    H123779   5.076   5.124   2.268  0.5637  1.3086  0.0898
  788TIP3    H223780   5.174   5.231   2.224  2.5363 -0.3370  0.3612
  789TIP3   OH223781   5.374   1.003  11.473  0.0545  0.2593  0.3470
  789TIP3    H123782   5.291   1.008  11.426 -0.0236 -1.0147  0.3325
  789TIP3    H223783   5.440   0.995  11.403  0.1770  0.9483  0.3709
  790TIP3   OH223784   0.300   0.677   6.401 -0.1229  0.1425 -0.3530
  790TIP3    H123785   0.367   0.689   6.333 -0.1901  1.4005 -0.2183
  790TIP3    H223786   0.315   0.748   6.462 -0.4765 -0.6007  0.6302
  791TIP3   OH223787   1.334   4.111  11.357 -0.0647 -0.0373  0.2916
  791TIP3    H123788   1.385   4.109  11.276 -0.2455 -1.7067  0.1860
  791TIP3    H223789   1.243   4.113  11.328 -0.1565 -1.5604  0.4185
  792TIP3   OH223790   5.285   4.024  13.291  0.1948 -0.4232  0.4168
  792TIP3    H123791   5.377   3.999  13.281  0.0337 -1.2848  1.0278
  792TIP3    H223792   5.237   3.965  13.233 -0.0670 -0.7238  0.9266
  793TIP3   OH223793   5.457   0.416   3.028  0.7294 -0.5935  0.4439
  793TIP3    H123794   5.431   0.388   2.941  0.1774 -0.1199  0.4539
  793TIP3    H223795   5.398   0.369   3.087  0.3192 -0.0278  0.4976
  794TIP3   OH223796   2.772   2.457   3.893 -0.7375 -0.2094 -0.0936
  794TIP3    H123797   2.827   2.503   3.830  0.2821 -1.0899  0.1152
  794TIP3    H223798   2.682   2.478   3.867 -0.3221  0.9767 -0.6589
  795TIP3   OH223799   0.675   2.629   2.029 -0.0947 -0.5156 -0.0003
  795TIP3    H123800   0.590   2.593   2.006 -2.0584  2.6962  1.6165
  795TIP3    H223801   0.710   2.568   2.094 -2.0797 -0.9072  0.7542
  796TIP3   OH223802   0.707   3.005   3.262 -0.6600  0.0322  0.4578
  796TIP3    H123803   0.648   3.040   3.195  1.0988  1.5217 -0.3859
  796TIP3    H223804   0.682   3.052   3.342 -2.3388 -1.2910  0.7727
  797TIP3   OH223805   0.648   6.380   4.325  0.6650  0.1459 -0.3342
  797TIP3    H123806   0.728   6.430   4.308 -0.1742  0.5754 -3.7844
  797TIP3    H223807   0.586   6.445   4.356  1.0725  0.1758  0.4471
  798TIP3   OH223808   5.840   0.849  11.531 -0.1119  0.3414  0.3572
  798TIP3    H123809   5.900   0.923  11.529 -1.4239  1.4822  1.1796
  798TIP3    H223810   5.840   0.816  11.442  1.5342  0.4566  0.2903
  799TIP3   OH223811   4.081   2.678   4.604  0.1270 -1.1422 -0.9241
  799TIP3    H123812   4.004   2.650   4.654  1.3055  0.2823  1.9300
  799TIP3    H223813   4.047   2.741   4.540 -1.0861 -0.1526  0.6101
  800TIP3   OH223814   3.198   1.818  15.674  0.2229 -0.2015 -0.4852
  800TIP3    H123815   3.209   1.727  15.701 -1.5838 -0.4555 -0.4576
  800TIP3    H223816   3.248   1.869  15.738 -0.6157 -1.0428  0.8919
  801TIP3   OH223817   0.147   1.475  11.699 -0.7290 -0.0982  0.0838
  801TIP3    H123818   0.162   1.403  11.761  0.2753  0.1552  0.1520
  801TIP3    H223819   0.179   1.441  11.615  0.2789  0.4583  0.2299
  802TIP3   OH223820   1.564   2.656  12.690  0.5237  0.2501 -0.0013
  802TIP3    H123821   1.477   2.689  12.715  0.5414  0.5559 -0.3415
  802TIP3    H223822   1.552   2.561  12.684 -0.5082  0.4740 -2.7490
  803TIP3   OH223823   1.297   2.568  12.479 -0.3838 -0.6810  0.1630
  803TIP3    H123824   1.249   2.485  12.489 -1.1101 -0.7063 -2.6069
  803TIP3    H223825   1.383   2.542  12.447 -0.4885 -0.4095 -0.3549
  804TIP3   OH223826   2.542   6.068  11.068 -0.6595  0.0408  0.3028
  804TIP3    H123827   2.501   6.148  11.035 -0.3869  0.0549 -0.0108
  804TIP3    H223828   2.499   5.997  11.020 -0.5566  0.0347  0.2169
  805TIP3   OH223829   6.299   5.232  13.823 -0.2721 -0.7182 -0.2598
  805TIP3    H123830   6.231   5.286  13.783 -0.0870  0.2631  0.6917
  805TIP3    H223831   6.251   5.171  13.879 -0.5507 -2.2819 -2.0826
  806TIP3   OH223832   6.740   2.793   3.943  0.9675  0.1736 -0.1856
  806TIP3    H123833   6.709   2.879   3.972  1.6059  0.0031  1.0492
  806TIP3    H223834   6.831   2.809   3.916  1.0951 -0.1224  0.0751
  807TIP3   OH223835   2.957   6.342   4.185 -0.3494 -0.3799  0.1574
  807TIP3    H123836   2.907   6.381   4.113 -0.3886 -3.4136 -1.6282
  807TIP3    H223837   2.891   6.317   4.250 -0.3634  1.9053  1.0977
  808TIP3   OH223838   2.914   1.846   4.043  0.4399  0.2693 -0.1466
  808TIP3    H123839   2.856   1.769   4.039  0.7762  0.0770 -2.2946
  808TIP3    H223840   2.854   1.921   4.040  0.2373  0.0688 -1.9227
  809TIP3   OH223841   2.919   2.307  12.410  0.0784 -0.4397 -0.0071
  809TIP3    H123842   2.877   2.290  12.495  0.6630 -0.0958  0.3549
  809TIP3    H223843   2.997   2.252  12.410  1.1636  1.0416  0.5347
  810TIP3   OH223844   6.177   6.304   3.476  0.3103 -0.2802  0.0670
  810TIP3    H123845   6.146   6.323   3.564  1.4793  1.8155  0.0856
  810TIP3    H223846   6.271   6.318   3.480  0.3426  0.1601 -1.5845
  811TIP3   OH223847   5.251   5.430  16.139  0.1187 -0.9381 -0.6108
  811TIP3    H123848   5.339   5.392  16.147  0.4036 -0.0642  0.9132
  811TIP3    H223849   5.226   5.415  16.048  2.1260 -0.6233 -1.2650
  812TIP3   OH223850   0.964   1.686   3.768 -0.4840 -0.1530 -0.3269
  812TIP3    H123851   0.980   1.604   3.816 -2.0685  0.1989  0.8914
  812TIP3    H223852   0.977   1.662   3.676  1.8128 -1.0580  0.1488
  813TIP3   OH223853   3.355   2.461   0.106 -0.2555  0.4091 -0.0199
  813TIP3    H123854   3.344   2.554   0.085 -0.8899  0.1464 -0.9443
  813TIP3    H223855   3.338   2.416   0.023  1.3693 -0.4624  0.0962
  814TIP3   OH223856   4.011   6.386  16.793  0.1712 -0.4742 -0.1473
  814TIP3    H123857   4.015   6.476  16.760 -0.9118  0.1803  1.3301
  814TIP3    H223858   3.959   6.339  16.729 -2.4771  0.9196  0.8033
  815TIP3   OH223859   3.336   0.903   6.351 -0.3357  0.3205  0.0712
  815TIP3    H123860   3.297   0.845   6.417 -0.4851 -1.2317 -1.3217
  815TIP3    H223861   3.301   0.990   6.372 -1.1068 -0.2995  1.4641
  816TIP3   OH223862   1.277   0.477   1.792 -0.1360 -0.1557 -0.2711
  816TIP3    H123863   1.188   0.478   1.758 -0.2619  1.0477  0.0450
  816TIP3    H223864   1.282   0.397   1.845 -0.2257 -1.5585 -2.2646
  817TIP3   OH223865   6.129   1.443   6.426 -0.4069 -0.3967  0.2291
  817TIP3    H123866   6.199   1.464   6.365 -0.8468  0.0959 -0.1219
  817TIP3    H223867   6.172   1.399   6.499  0.2595 -0.1155  0.0101
  818TIP3   OH223868   1.866   3.939  17.236  0.4191  0.1369 -0.1076
  818TIP3    H123869   1.787   3.989  17.253  0.4307 -0.0666  0.5872
  818TIP3    H223870   1.855   3.907  17.146 -0.8975 -0.9595  0.4007
  819TIP3   OH223871   1.340   2.417   0.083  0.3203 -0.1158 -0.3047
  819TIP3    H123872   1.300   2.501   0.059  0.6246 -0.4703 -2.1643
  819TIP3    H223873   1.432   2.438   0.100  0.6669 -0.2320 -1.9301
  820TIP3   OH223874   5.277   4.905  14.112 -0.2345 -0.1677 -0.0529
  820TIP3    H123875   5.331   4.882  14.187 -1.6961  0.1683  1.1615
  820TIP3    H223876   5.254   4.821  14.072 -3.1376 -0.8223  2.6110
  821TIP3   OH223877   2.088   1.847   5.893 -0.5354 -0.0136  0.1694
  821TIP3    H123878   2.123   1.920   5.944 -0.8846  0.5616 -0.3960
  821TIP3    H223879   2.041   1.793   5.956 -2.0898  1.3848  0.2593
  822TIP3   OH223880   2.110   5.269   2.399  0.1598 -0.3177  0.0168
  822TIP3    H123881   2.201   5.261   2.425  0.2398  1.2541  0.3386
  822TIP3    H223882   2.092   5.363   2.403 -1.0515 -0.4413 -1.4583
  823TIP3   OH223883   5.591   6.257  15.759 -0.1493 -0.2223 -0.4963
  823TIP3    H123884   5.670   6.246  15.705 -1.1291 -0.8385 -1.8708
  823TIP3    H223885   5.544   6.175  15.749 -0.3076 -0.4240  1.4935
  824TIP3   OH223886   0.357   1.322  13.943 -0.3850  0.4456  0.1985
  824TIP3    H123887   0.369   1.282  14.029 -1.1963 -0.9065 -0.2825
  824TIP3    H223888   0.445   1.324  13.905 -0.0486  0.8859  0.9717
  825TIP3   OH223889   5.667   3.177   4.270 -0.2466  0.5786 -0.0812
  825TIP3    H123890   5.739   3.118   4.247 -1.8688 -0.9331 -1.5510
  825TIP3    H223891   5.700   3.226   4.346  1.9039 -0.8058 -0.0325
  826TIP3   OH223892   6.758   4.651  16.051 -0.1792 -0.2849  0.2190
  826TIP3    H123893   6.781   4.732  16.096  0.5422  0.7792 -1.9317
  826TIP3    H223894   6.666   4.663  16.024 -0.3890 -0.6214  0.7725
  827TIP3   OH223895   1.975   3.566  13.472 -0.0778 -0.0710 -0.2805
  827TIP3    H123896   1.939   3.478  13.460 -0.6579  0.1097  0.1299
  827TIP3    H223897   1.959   3.586  13.564 -0.3236  0.6402 -0.4754
  828TIP3   OH223898   6.525   4.193  11.740  0.3820 -0.1028 -0.2299
  828TIP3    H123899   6.440   4.220  11.704  1.2937  2.0067 -0.9614
  828TIP3    H223900   6.585   4.264  11.716  1.4223  0.8083  4.2457
  829TIP3   OH223901   6.561   2.266  13.646  0.0043  0.0647 -0.1145
  829TIP3    H123902   6.513   2.266  13.729  1.9899 -1.8950  1.1515
  829TIP3    H223903   6.520   2.195  13.595 -0.6961  0.7502 -0.5415
  830TIP3   OH223904   2.271   0.542   0.847  0.1032  0.3864 -0.3250
  830TIP3    H123905   2.224   0.496   0.778  0.9550  0.9905 -1.3332
  830TIP3    H223906   2.323   0.474   0.889  0.2048  0.1592 -0.8078
  831TIP3   OH223907   0.510   3.429   5.562  0.1888 -0.5912 -0.0562
  831TIP3    H123908   0.488   3.522   5.556 -0.4341 -0.7454 -0.1477
  831TIP3    H223909   0.575   3.415   5.492  0.7237 -0.1043  0.3290
  832TIP3   OH223910   3.278   2.085  13.685  0.0814 -0.2177  0.4541
  832TIP3    H123911   3.229   2.012  13.721  1.6113 -0.2481  2.6859
  832TIP3    H223912   3.225   2.162  13.705 -1.1395 -0.5853 -1.1783
  833TIP3   OH223913   3.512   0.508   0.875 -0.3890  0.3979 -0.5657
  833TIP3    H123914   3.437   0.450   0.860 -1.1356  1.0907  0.3343
  833TIP3    H223915   3.512   0.568   0.801 -0.5807  0.2396 -0.6924
  834TIP3   OH223916   5.004   4.879  16.004  0.3674  0.2356  0.4150
  834TIP3    H123917   4.926   4.842  16.045  0.1465 -1.1837 -1.1665
  834TIP3    H223918   5.076   4.856  16.064 -0.3283  1.1475  1.6434
  835TIP3   OH223919   5.006   1.827   2.927  0.4199  0.0396  0.8294
  835TIP3    H123920   5.079   1.805   2.985  1.0915  0.5260  0.1932
  835TIP3    H223921   4.928   1.814   2.981  1.0409  0.9240  1.9919
  836TIP3   OH223922   2.640   1.844   0.232  0.1601  0.0086 -0.1860
  836TIP3    H123923   2.561   1.799   0.201 -0.3460  1.5733 -1.2847
  836TIP3    H223924   2.609   1.897   0.306  0.0024  1.1957 -1.0872
  837TIP3   OH223925   0.224   5.496  13.070  0.7865 -0.5956 -0.6429
  837TIP3    H123926   0.128   5.498  13.070  0.7116  1.6578  2.1408
  837TIP3    H223927   0.248   5.543  12.989 -0.4953  0.1436 -0.6232
  838TIP3   OH223928   1.882   5.881  11.769 -0.4987 -0.1273 -0.1304
  838TIP3    H123929   1.940   5.901  11.695  0.4281  0.6494  0.7678
  838TIP3    H223930   1.881   5.785  11.773 -0.0014 -0.1664 -0.7181
  839TIP3   OH223931   2.418   2.753  14.090 -0.4823  0.2210  0.8505
  839TIP3    H123932   2.371   2.830  14.122  1.6102  2.2551 -0.6585
  839TIP3    H223933   2.367   2.723  14.015 -0.7878  0.7830  0.8271
  840TIP3   OH223934   6.208   0.691   3.218  0.2352  0.2807  0.0671
  840TIP3    H123935   6.302   0.709   3.215  0.4938 -1.0902 -1.3828
  840TIP3    H223936   6.195   0.619   3.156 -1.6316 -0.2296  0.9720
  841TIP3   OH223937   0.172   0.921   5.541 -0.2905 -0.1548  0.5857
  841TIP3    H123938   0.142   0.954   5.456  0.0103 -0.7551  0.2425
  841TIP3    H223939   0.113   0.849   5.561  1.5425 -2.1165 -0.6419
  842TIP3   OH223940   0.572   1.263   4.283  0.4745  0.1717  0.0250
  842TIP3    H123941   0.603   1.354   4.284  0.9019  0.0293 -0.2863
  842TIP3    H223942   0.538   1.249   4.371  0.0735  0.7476 -0.0326
  843TIP3   OH223943   6.024   0.382  16.765  0.2129  0.1610  0.2140
  843TIP3    H123944   6.011   0.386  16.670 -0.9145  1.5822  0.3868
  843TIP3    H223945   5.939   0.353  16.799  0.7443 -0.7786  0.7769
  844TIP3   OH223946   4.070   4.952   1.828  0.7275 -0.1861  0.2633
  844TIP3    H123947   4.094   5.021   1.766  1.8026 -1.6744 -1.0633
  844TIP3    H223948   4.124   4.969   1.905  0.8252  0.5679  0.0333
  845TIP3   OH223949   6.722   6.040  13.620 -0.6135  0.3713 -0.4193
  845TIP3    H123950   6.660   5.982  13.576  1.6624 -1.4247 -1.4862
  845TIP3    H223951   6.722   6.012  13.711 -0.6774 -0.2484 -0.6082
  846TIP3   OH223952   3.552   4.712  15.655 -0.0468  0.7790  0.2792
  846TIP3    H123953   3.583   4.630  15.617 -1.4480  0.2410  0.2501
  846TIP3    H223954   3.457   4.708  15.648 -0.3456  1.0178  3.0925
  847TIP3   OH223955   2.604   4.091  14.101 -0.3916 -0.2689  0.6268
  847TIP3    H123956   2.581   4.029  14.032 -0.1287  0.2671  0.0548
  847TIP3    H223957   2.689   4.061  14.133 -0.6157 -0.6480  0.8839
  848TIP3   OH223958   1.672   0.019   0.186  0.5398 -0.0818  0.3076
  848TIP3    H123959   1.614  -0.041   0.233 -0.1743  0.2904 -0.0935
  848TIP3    H223960   1.622   0.047   0.110  1.6907 -0.6854 -0.7058
  849TIP3   OH223961   5.747   2.082   0.115  0.2307  0.1927 -0.0924
  849TIP3    H123962   5.778   2.005   0.162 -0.2392  0.7068  1.1051
  849TIP3    H223963   5.825   2.119   0.074  0.7575  0.0270  0.7372
  850TIP3   OH223964   5.610   6.563   1.026 -0.5599 -0.3009 -0.5956
  850TIP3    H123965   5.520   6.537   1.041 -0.3323 -0.4227  0.6484
  850TIP3    H223966   5.663   6.492   1.063  0.0617  1.4290  2.1386
  851TIP3   OH223967   3.154   1.584  12.110 -0.6338 -0.1936  0.2693
  851TIP3    H123968   3.097   1.660  12.118  0.2181  0.5611 -0.6232
  851TIP3    H223969   3.103   1.521  12.060 -0.2146  1.0157 -1.8066
  852TIP3   OH223970   6.707   3.513   1.726 -0.4557  0.1742 -0.0658
  852TIP3    H123971   6.640   3.565   1.770  1.2169  4.0394 -1.6480
  852TIP3    H223972   6.784   3.518   1.784 -0.2458 -0.5401 -0.2687
  853TIP3   OH223973   5.460   3.695   5.102  0.1782 -0.4509 -0.4010
  853TIP3    H123974   5.448   3.600   5.103 -0.7779 -0.3642 -1.5003
  853TIP3    H223975   5.394   3.727   5.041  1.3262  0.7958 -1.0591
  854TIP3   OH223976   2.129   4.410   4.705  0.6357 -0.0367 -0.1947
  854TIP3    H123977   2.145   4.325   4.746  0.0507  0.2227  0.5927
  854TIP3    H223978   2.154   4.474   4.772 -1.8498  0.3867  0.4335
  855TIP3   OH223979   2.704   5.195   2.490 -0.0274  0.3660  0.0424
  855TIP3    H123980   2.654   5.253   2.432 -1.6131 -1.1114 -0.1625
  855TIP3    H223981   2.637   5.145   2.537  1.2511 -1.1842  0.3116
  856TIP3   OH223982   5.697   4.852  15.920 -0.0061  0.1797  0.0100
  856TIP3    H123983   5.642   4.911  15.869 -0.0222  2.7884  2.7410
  856TIP3    H223984   5.639   4.820  15.990  0.3546 -2.1995 -0.6920
  857TIP3   OH223985   5.445   6.678   0.289 -0.5245  0.2797 -0.0302
  857TIP3    H123986   5.501   6.601   0.296 -1.1920 -0.1814  0.3277
  857TIP3    H223987   5.368   6.647   0.242 -1.9917  0.0176  2.3851
  858TIP3   OH223988   0.612   4.672  12.278 -1.2287  0.2035 -0.2124
  858TIP3    H123989   0.654   4.605  12.332 -2.1912  0.3002  0.6721
  858TIP3    H223990   0.519   4.663  12.296 -1.5879  0.2462 -1.8624
  859TIP3   OH223991   2.499   6.575   2.838 -0.2701  0.1068 -0.0405
  859TIP3    H123992   2.593   6.584   2.848 -0.2522  0.0392 -0.1498
  859TIP3    H223993   2.486   6.551   2.746 -0.2346 -2.3656  0.5445
  860TIP3   OH223994   6.163   3.742   2.738  0.4398  0.1109 -0.0537
  860TIP3    H123995   6.199   3.829   2.757  0.8986 -0.0969  0.0292
  860TIP3    H223996   6.197   3.720   2.651  0.5770 -0.1202  0.0590
  861TIP3   OH223997   1.466   0.939   2.734 -0.1253  0.1815  0.0756
  861TIP3    H123998   1.377   0.904   2.735  0.7449 -2.1946 -0.5013
  861TIP3    H223999   1.503   0.909   2.651  2.0929 -1.3500  1.5205
  862TIP3   OH224000   1.487   3.341   5.455  0.1229  0.2599 -0.0979
  862TIP3    H124001   1.540   3.262   5.442 -1.1678 -0.5502 -0.5530
  862TIP3    H224002   1.501   3.392   5.375  0.9029  0.4814  0.1661
  863TIP3   OH224003   3.666   3.020  17.304 -0.2276  0.5442  0.1667
  863TIP3    H124004   3.589   3.071  17.328 -0.5232  0.8854 -1.4107
  863TIP3    H224005   3.740   3.075  17.329 -0.4871  0.5859  0.8810
  864TIP3   OH224006   1.792   2.120  17.096 -0.0035  0.1349 -0.3234
  864TIP3    H124007   1.760   2.057  17.032 -0.8853 -0.8092  0.9943
  864TIP3    H224008   1.842   2.068  17.158  0.0964  0.8900  0.2436
  865TIP3   OH224009   2.906   2.998   2.494 -0.4257  0.6634  0.2692
  865TIP3    H124010   2.926   3.070   2.555 -0.4747 -0.4944  1.7266
  865TIP3    H224011   2.839   2.947   2.539  0.1482 -0.7092 -0.3630
  866TIP3   OH224012   5.161   2.360  15.658  0.4507  0.3699 -0.3332
  866TIP3    H124013   5.244   2.313  15.645  0.7458  1.3627 -2.4353
  866TIP3    H224014   5.162   2.385  15.750  1.9752 -0.5808 -0.0516
  867TIP3   OH224015   1.078   6.341   5.441  0.4231 -0.2525  0.2983
  867TIP3    H124016   1.084   6.288   5.361 -1.3567 -0.2527  0.1340
  867TIP3    H224017   1.116   6.425   5.417  2.3856 -1.0785  0.2731
  868TIP3   OH224018   3.535   2.067  13.851  0.6154  0.3273  0.3892
  868TIP3    H124019   3.603   2.055  13.784  0.8175  1.9868  0.2517
  868TIP3    H224020   3.453   2.063  13.802  0.5671 -1.7477  0.5648
  869TIP3   OH224021   6.331   4.037  16.198  0.5138 -0.8460 -0.4487
  869TIP3    H124022   6.412   4.088  16.205 -0.2602  0.6244 -1.6185
  869TIP3    H224023   6.299   4.031  16.288  0.4165  1.1999 -0.2825
  870TIP3   OH224024   6.374   6.340   3.188  0.1012 -0.4438  0.9127
  870TIP3    H124025   6.351   6.420   3.141 -2.1216 -1.6507 -0.1961
  870TIP3    H224026   6.377   6.272   3.121 -0.0886 -1.6796  2.0972
  871TIP3   OH224027   3.685   3.736   7.128  0.1257  0.6209 -0.1093
  871TIP3    H124028   3.621   3.680   7.084 -0.5610 -0.0014  1.5924
  871TIP3    H224029   3.690   3.814   7.073  0.0658 -0.5169 -1.8022
  872TIP3   OH224030   1.014   1.238   6.182 -0.3496  0.1373  0.1108
  872TIP3    H124031   0.945   1.258   6.245 -1.1484  0.1392 -0.7430
  872TIP3    H224032   1.037   1.147   6.199 -0.9746 -0.0407  0.0280
  873TIP3   OH224033   2.534   4.583   6.605  0.4223 -0.4572 -0.4581
  873TIP3    H124034   2.528   4.570   6.510  0.7031 -0.4053 -0.4818
  873TIP3    H224035   2.528   4.677   6.617  1.8769 -0.3398 -0.5315
  874TIP3   OH224036   4.157   0.613   3.320  0.2053  0.2869 -0.3273
  874TIP3    H124037   4.128   0.556   3.249  0.6545  0.0556 -0.3219
  874TIP3    H224038   4.121   0.699   3.298  0.3503  0.2168 -0.8355
  875TIP3   OH224039   4.884   1.353   5.646  0.0115  0.2784 -0.2877
  875TIP3    H124040   4.853   1.423   5.703  0.4994  0.9238 -0.8040
  875TIP3    H224041   4.811   1.292   5.641  0.4914 -0.6450  2.3295
  876TIP3   OH224042   5.499   5.155  16.609  0.0996  0.3007 -0.1666
  876TIP3    H124043   5.591   5.144  16.587  0.3601 -0.2068  1.0502
  876TIP3    H224044   5.497   5.231  16.667 -0.6686  2.1023 -2.4025
  877TIP3   OH224045   5.788   4.164   4.832  0.0524  0.3803 -0.2755
  877TIP3    H124046   5.712   4.111   4.808  1.0629 -0.5039 -1.6512
  877TIP3    H224047   5.813   4.132   4.919 -0.3460 -0.2540 -0.3904
  878TIP3   OH224048   4.684   5.159   6.197  0.0749  0.2361  0.2356
  878TIP3    H124049   4.748   5.172   6.127  3.6822  1.4314  3.4019
  878TIP3    H224050   4.656   5.068   6.187  3.6298 -0.9428 -0.4421
  879TIP3   OH224051   5.683   4.605  13.330  0.1300  0.0119 -0.1524
  879TIP3    H124052   5.706   4.665  13.402 -0.7569  0.4370 -0.2090
  879TIP3    H224053   5.610   4.648  13.286 -1.2879 -1.6340  0.4794
  880TIP3   OH224054   6.265   0.698  11.466  0.1747 -0.3346  0.3342
  880TIP3    H124055   6.314   0.691  11.384  0.0632 -0.3959  0.2726
  880TIP3    H224056   6.190   0.640  11.454  0.7412 -1.2008  0.8960
  881TIP3   OH224057   5.954   5.287   1.086  0.2278 -0.1273  0.1790
  881TIP3    H124058   5.908   5.353   1.138 -0.7505 -1.7949  1.5809
  881TIP3    H224059   5.891   5.215   1.079  1.4306 -1.1255 -0.8211
  882TIP3   OH224060   3.948   5.488   5.580  0.1738  0.3707  0.2820
  882TIP3    H124061   4.019   5.424   5.578 -0.9575 -0.9028 -0.5285
  882TIP3    H224062   3.868   5.436   5.586 -0.8427  1.6193 -1.3703
  883TIP3   OH224063   2.249   2.365  12.259 -0.0869  0.2174  0.0109
  883TIP3    H124064   2.322   2.369  12.197 -0.8294 -0.7550 -0.9746
  883TIP3    H224065   2.288   2.331  12.339  0.9340  1.6857  0.1737
  884TIP3   OH224066   5.359   0.092   4.809  0.2188 -0.1674  0.1850
  884TIP3    H124067   5.448   0.064   4.787 -0.3801 -1.7127 -0.3985
  884TIP3    H224068   5.359   0.187   4.792  1.5616 -0.2545 -0.4461
  885TIP3   OH224069   0.533   4.850   0.468 -0.1821  0.1914 -0.4648
  885TIP3    H124070   0.627   4.851   0.450  0.1728 -1.7797  0.9635
  885TIP3    H224071   0.513   4.939   0.498  1.3290  0.4938 -0.3075
  886TIP3   OH224072   1.533   2.511  13.182 -0.5153  0.7051  0.9448
  886TIP3    H124073   1.460   2.527  13.123  1.4187  1.8419 -1.3020
  886TIP3    H224074   1.552   2.596  13.222  0.2072  0.6585  0.7181
  887TIP3   OH224075   0.620   1.778   3.272 -0.3253  0.5192 -0.2477
  887TIP3    H124076   0.702   1.822   3.295  0.8591 -1.8008  0.2484
  887TIP3    H224077   0.597   1.815   3.187  0.4212  2.2447  0.2344
  888TIP3   OH224078   1.194   4.413  12.746 -0.9585  0.4902  0.3852
  888TIP3    H124079   1.257   4.398  12.675 -1.3198 -0.7572  0.2919
  888TIP3    H224080   1.129   4.473  12.708  0.2353  1.9271  0.5392
  889TIP3   OH224081   4.233   6.497  11.535 -0.2189 -0.1134  0.7901
  889TIP3    H124082   4.219   6.565  11.469  1.0247  0.5824  1.2128
  889TIP3    H224083   4.227   6.415  11.486 -1.1827  0.3118  0.1635
  890TIP3   OH224084   6.245   0.515  13.966  0.1685 -0.1562  0.0406
  890TIP3    H124085   6.211   0.588  13.915  0.6754  0.7664  1.0118
  890TIP3    H224086   6.305   0.554  14.029  1.8687 -1.5862 -0.6078
  891TIP3   OH224087   5.349   0.824  13.890 -0.4055  0.8628 -0.3202
  891TIP3    H124088   5.313   0.800  13.804 -1.2988  0.9983  0.0139
  891TIP3    H224089   5.295   0.778  13.953  0.7691  0.0911  0.1608
  892TIP3   OH224090   6.339   0.021   4.511 -0.6400 -0.2388 -0.2083
  892TIP3    H124091   6.342   0.052   4.421  1.6537  0.4050  0.0208
  892TIP3    H224092   6.313   0.098   4.562  1.2143  0.3220 -0.0398
  893TIP3   OH224093   2.390   2.063   6.228  0.0931 -0.5035 -0.2978
  893TIP3    H124094   2.306   2.019   6.239  0.3349 -0.8834  0.0888
  893TIP3    H224095   2.455   1.992   6.234  0.5282 -0.0253  0.9415
  894TIP3   OH224096   0.905   2.263  10.418 -0.2369  0.0444 -0.3204
  894TIP3    H124097   0.900   2.229  10.329  0.4096  0.5158 -0.5476
  894TIP3    H224098   0.872   2.192  10.473  1.3911 -1.1149 -0.7484
  895TIP3   OH224099   4.416   6.172   6.073  0.1450 -0.9369  0.3474
  895TIP3    H124100   4.418   6.077   6.080 -1.2607 -1.0162 -0.1629
  895TIP3    H224101   4.341   6.199   6.125  0.0057 -0.1867 -0.2210
  896TIP3   OH224102   3.079   6.236  14.201  0.8354 -0.3557  0.1217
  896TIP3    H124103   3.067   6.190  14.284  0.4317 -0.1197  0.1996
  896TIP3    H224104   2.998   6.287  14.190  1.1717  0.1491 -0.0736
  897TIP3   OH224105   4.631   3.317   2.725 -0.6806  0.2152 -0.4441
  897TIP3    H124106   4.726   3.323   2.735 -0.7433  1.9476 -0.5945
  897TIP3    H224107   4.598   3.402   2.756 -2.1203 -0.0719 -1.1045
  898TIP3   OH224108   0.203   0.368  15.624  0.1871  0.2814 -0.0219
  898TIP3    H124109   0.149   0.290  15.610 -1.2060  0.8680  1.7970
  898TIP3    H224110   0.173   0.430  15.557  0.7932 -0.4406 -0.9980
  899TIP3   OH224111   1.860   4.169   5.059  0.4689 -0.3220 -0.4447
  899TIP3    H124112   1.795   4.232   5.028 -0.2642 -0.4887  0.6984
  899TIP3    H224113   1.875   4.111   4.984  0.2261  0.4520 -1.1100
  900TIP3   OH224114   2.179   5.588  16.164  0.4316  0.0076 -0.0095
  900TIP3    H124115   2.107   5.552  16.216  0.6651 -1.0658 -0.4130
  900TIP3    H224116   2.165   5.683  16.166 -1.2200 -0.2100 -0.4181
  901TIP3   OH224117   4.371   5.024  15.687  0.8230  0.3457 -0.0597
  901TIP3    H124118   4.360   5.047  15.595  1.2413 -0.8285 -0.4141
  901TIP3    H224119   4.292   4.975  15.710  0.8859  0.3228  0.1117
  902TIP3   OH224120   2.042   5.141  11.753  0.1604  0.4510 -0.2047
  902TIP3    H124121   1.992   5.223  11.759  0.9001  0.8571  0.8795
  902TIP3    H224122   2.128   5.168  11.724  0.4610  0.0917  0.3270
  903TIP3   OH224123   5.030   1.486   3.754  0.1415 -0.6308 -0.1766
  903TIP3    H124124   4.940   1.455   3.744  0.0810 -1.4865  2.4105
  903TIP3    H224125   5.084   1.412   3.726  0.1077 -0.0445 -1.9327
  904TIP3   OH224126   5.373   3.252  15.963  0.1553  1.0568 -0.4540
  904TIP3    H124127   5.429   3.237  16.039  0.6349  0.1573 -0.9659
  904TIP3    H224128   5.353   3.164  15.930 -1.3776  1.3643 -0.4202
  905TIP3   OH224129   2.086   2.340   1.090  0.0415  0.0116 -0.6831
  905TIP3    H124130   1.994   2.360   1.108 -0.2802 -0.4418 -1.7372
  905TIP3    H224131   2.125   2.424   1.066  0.2461  0.4482  1.0818
  906TIP3   OH224132   5.346   0.511  14.060  0.0407  0.5783  0.1094
  906TIP3    H124133   5.293   0.438  14.028  1.1804 -0.9046  1.4086
  906TIP3    H224134   5.283   0.573  14.096 -0.9451  0.1502 -0.8161
  907TIP3   OH224135   1.013   2.059   3.976 -0.3525 -0.0517  0.0206
  907TIP3    H124136   1.032   2.152   3.980  1.6480 -0.4676  1.3446
  907TIP3    H224137   1.038   2.033   3.888  0.8535  0.3193  0.2435
  908TIP3   OH224138   4.335   5.079  11.513  0.3950 -0.6070 -0.2838
  908TIP3    H124139   4.328   5.022  11.589 -0.4359 -0.1554 -0.0093
  908TIP3    H224140   4.383   5.156  11.544 -2.8288  1.1708  0.8118
  909TIP3   OH224141   0.296   0.420   0.257  0.4199 -0.6058  0.9211
  909TIP3    H124142   0.237   0.449   0.188  2.2003  3.5577  0.8505
  909TIP3    H224143   0.383   0.424   0.217  1.1051 -3.8804  1.8114
  910TIP3   OH224144   6.084   6.423  16.538  0.5987 -0.3069 -0.3767
  910TIP3    H124145   6.138   6.497  16.509 -0.5782  1.5153  1.7065
  910TIP3    H224146   6.002   6.434  16.490  1.3735 -2.0323 -2.2144
  911TIP3   OH224147   2.389   1.744  15.725  0.0145 -0.4083 -0.4378
  911TIP3    H124148   2.478   1.760  15.756 -0.6483 -1.1282  2.1463
  911TIP3    H224149   2.399   1.688  15.649  1.7759  0.2182 -0.7088
  912TIP3   OH224150   0.901   0.732  15.687  0.1308 -0.1235 -0.4751
  912TIP3    H124151   0.896   0.697  15.776  0.5002  0.4687 -0.2115
  912TIP3    H224152   0.820   0.780  15.675 -0.3598 -1.0051 -0.8233
  913TIP3   OH224153   5.234   6.121  14.308  0.2670  0.2265 -0.2054
  913TIP3    H124154   5.260   6.190  14.247  0.2051 -0.3062 -0.8564
  913TIP3    H224155   5.240   6.041  14.256 -0.7889 -0.1261  0.1946
  914TIP3   OH224156   6.341   3.607  14.108 -0.3893 -0.4134 -0.5900
  914TIP3    H124157   6.301   3.588  14.023 -2.6785  2.0660 -0.2126
  914TIP3    H224158   6.271   3.591  14.171  0.6210 -0.1758  0.6152
  915TIP3   OH224159   1.969   3.744   2.643  0.0903  0.4021  0.1092
  915TIP3    H124160   1.933   3.714   2.559  1.1684 -1.5829  0.2902
  915TIP3    H224161   1.944   3.676   2.705  1.8082  0.3387  0.7804
  916TIP3   OH224162   1.507   5.819  11.822 -0.3267  1.0465  0.1898
  916TIP3    H124163   1.502   5.780  11.910 -0.0755 -1.8295 -0.9606
  916TIP3    H224164   1.417   5.819  11.791 -0.1474 -0.1181 -0.3783
  917TIP3   OH224165   2.185   1.393   1.387  0.3028  0.3055  0.1757
  917TIP3    H124166   2.110   1.403   1.328 -2.6826  0.6524  3.6891
  917TIP3    H224167   2.171   1.309   1.430  1.1204  1.0427  1.9654
  918TIP3   OH224168   6.397   3.472   5.779 -0.1217  0.1547 -0.1751
  918TIP3    H124169   6.305   3.455   5.757 -0.0404  0.0180 -0.4229
  918TIP3    H224170   6.395   3.501   5.870 -0.3226 -0.7260  0.1128
  919TIP3   OH224171   5.918   0.351   3.557  0.1792  0.1619  0.1316
  919TIP3    H124172   5.953   0.377   3.642 -0.3399  0.1135  0.3636
  919TIP3    H224173   5.988   0.370   3.495  1.7645 -2.5421  0.9010
  920TIP3   OH224174   4.709   6.074   5.377 -0.0949  0.1013 -0.0044
  920TIP3    H124175   4.631   6.128   5.390 -0.8131 -0.9190  0.0682
  920TIP3    H224176   4.699   6.002   5.439  0.0932 -0.9126 -1.1158
  921TIP3   OH224177   2.882   1.198  15.034  0.6949 -0.0529 -0.5501
  921TIP3    H124178   2.949   1.132  15.055 -0.9696 -2.3324 -1.9158
  921TIP3    H224179   2.801   1.162  15.071 -0.3321  1.1179 -1.5711
  922TIP3   OH224180   0.489   5.304   4.725  0.3282 -0.0757 -0.2700
  922TIP3    H124181   0.574   5.335   4.754  0.3183 -0.9137  0.7397
  922TIP3    H224182   0.492   5.308   4.630  1.3494  0.2622 -0.2302
  923TIP3   OH224183   1.801   2.489  17.301  0.1291  0.4042 -0.3645
  923TIP3    H124184   1.876   2.431  17.282 -0.3620  0.0700 -1.4082
  923TIP3    H224185   1.806   2.556  17.233 -0.3254  0.5615 -0.2437
  924TIP3   OH224186   4.980   2.487  14.069 -0.2533 -0.3360  0.0176
  924TIP3    H124187   5.007   2.410  14.020 -0.6396 -0.1028 -0.5843
  924TIP3    H224188   4.912   2.527  14.014 -0.7297 -0.0951  0.7736
  925TIP3   OH224189   3.498   6.698   1.658  0.4543 -0.3327  0.5675
  925TIP3    H124190   3.426   6.760   1.673  1.0439  0.0803  1.8553
  925TIP3    H224191   3.459   6.612   1.675  0.1410 -0.1495  0.7992
  926TIP3   OH224192   5.738   4.913   0.779 -0.1032  0.1175  0.3617
  926TIP3    H124193   5.668   4.946   0.721  2.5685  1.4216 -2.4586
  926TIP3    H224194   5.721   4.819   0.786 -0.4220 -0.2181 -3.0060
  927TIP3   OH224195   6.512   6.728   6.084  0.0119  0.2459  0.3809
  927TIP3    H124196   6.460   6.658   6.046 -1.9063  2.5055 -1.4695
  927TIP3    H224197   6.517   6.707   6.177 -0.7784 -2.1094 -0.0525
  928TIP3   OH224198   3.936   3.230   5.154 -0.4354  0.0606  0.6925
  928TIP3    H124199   3.894   3.146   5.173 -0.6636 -0.3618 -1.4580
  928TIP3    H224200   4.028   3.208   5.139 -0.8010 -0.1722 -1.6568
  929TIP3   OH224201   3.605   2.818   5.881 -0.1152  0.1311 -0.0673
  929TIP3    H124202   3.632   2.743   5.826 -0.9695 -0.9497  0.9304
  929TIP3    H224203   3.680   2.834   5.938 -0.2124 -0.4832  0.2398
  930TIP3   OH224204   5.338   0.817   2.414  0.3468 -0.1803  0.6374
  930TIP3    H124205   5.294   0.875   2.476 -0.6764 -1.1874  0.8780
  930TIP3    H224206   5.349   0.870   2.335 -1.7256 -0.0226  0.4070
  931TIP3   OH224207   2.035   1.580   4.889 -0.0011  0.0502 -0.1220
  931TIP3    H124208   2.076   1.666   4.882 -0.9085  0.5755  0.7307
  931TIP3    H224209   1.966   1.580   4.823 -0.7167  0.4084  0.6136
  932TIP3   OH224210   4.015   0.652   0.745 -0.2147  0.3109 -0.0986
  932TIP3    H124211   3.943   0.690   0.796  0.4419  1.5465 -0.0543
  932TIP3    H224212   4.090   0.709   0.763  0.9873 -1.3901  0.4379
  933TIP3   OH224213   0.370   1.101   1.889 -0.1637  0.1602  0.5459
  933TIP3    H124214   0.411   1.038   1.948 -2.1059 -2.6167 -0.8389
  933TIP3    H224215   0.314   1.155   1.945 -1.2824 -1.8258  1.4473
  934TIP3   OH224216   3.020   5.454   2.131  0.6720  0.1103  0.0133
  934TIP3    H124217   3.019   5.358   2.139 -3.4966  0.0068  0.6701
  934TIP3    H224218   3.067   5.471   2.049 -0.8161 -2.7625 -1.6088
  935TIP3   OH224219   4.158   5.870   2.233 -0.4087  0.5766 -0.5044
  935TIP3    H124220   4.095   5.937   2.261 -1.6808 -0.2227 -1.3455
  935TIP3    H224221   4.156   5.874   2.138 -0.0034 -0.2252 -0.5544
  936TIP3   OH224222   2.768   0.345   5.474 -0.3710 -0.4746  0.3586
  936TIP3    H124223   2.798   0.404   5.543 -0.2422 -1.3485  1.0719
  936TIP3    H224224   2.839   0.280   5.466 -0.6794 -0.7578 -0.1390
  937TIP3   OH224225   3.662   0.021   3.037  0.0540  0.9885 -0.7529
  937TIP3    H124226   3.756   0.019   3.017  0.0711 -0.3377 -0.6030
  937TIP3    H224227   3.658   0.018   3.133 -0.1357 -1.5564 -0.7708
  938TIP3   OH224228   2.460   6.262  10.896 -0.3145 -0.1268  0.1674
  938TIP3    H124229   2.530   6.327  10.902  0.2562 -0.7381  0.1340
  938TIP3    H224230   2.492   6.197  10.834 -0.8959 -0.4318  0.1795
  939TIP3   OH224231   4.680   2.992  13.670 -0.0337  0.4011  0.2028
  939TIP3    H124232   4.731   3.012  13.748 -0.1248 -1.2120  0.7147
  939TIP3    H224233   4.590   3.014  13.693  0.3202  2.8755 -0.5638
  940TIP3   OH224234   6.429   1.190  13.884  0.1469 -0.0553 -0.1770
  940TIP3    H124235   6.523   1.197  13.898  0.1919 -1.4209  0.3516
  940TIP3    H224236   6.394   1.167  13.970 -0.5910 -0.2034 -0.5105
  941TIP3   OH224237   2.190   1.484   4.038  0.0939  0.1714 -0.2820
  941TIP3    H124238   2.117   1.466   3.979 -0.0583  1.3607 -0.4739
  941TIP3    H224239   2.150   1.486   4.125 -0.1621  1.1063 -0.4153
  942TIP3   OH224240   0.115   6.536  15.088 -0.4512  0.4853 -0.7592
  942TIP3    H124241   0.147   6.626  15.088 -0.3024  0.4365 -1.3467
  942TIP3    H224242   0.130   6.505  15.178 -1.7224  1.4702 -0.1844
  943TIP3   OH224243   6.604   1.696  12.695 -0.3011 -0.0335 -0.4144
  943TIP3    H124244   6.683   1.650  12.720  0.5777  1.7548  0.2120
  943TIP3    H224245   6.534   1.654  12.746  0.7518  0.5045  1.5729
  944TIP3   OH224246   5.996   2.146  15.177 -0.3076  0.2817 -0.0736
  944TIP3    H124247   6.020   2.055  15.156  0.3626  0.0194  1.6256
  944TIP3    H224248   5.900   2.146  15.176 -0.3380 -0.7284  0.9048
  945TIP3   OH224249   5.068   0.540  16.096  0.8158  0.1361 -0.0974
  945TIP3    H124250   5.107   0.627  16.093  0.7134  0.2270  0.8194
  945TIP3    H224251   5.108   0.498  16.173 -0.2332 -0.0820  0.3480
  946TIP3   OH224252   1.929   1.617  13.525 -0.1811 -0.6397  0.1552
  946TIP3    H124253   1.974   1.540  13.489 -0.8482 -1.4734  1.0365
  946TIP3    H224254   1.844   1.583  13.555 -1.0962  0.7355 -0.7608
  947TIP3   OH224255   1.106   4.123  13.237  0.1004 -0.5441  0.5435
  947TIP3    H124256   1.155   4.053  13.279 -1.1564 -0.2988  2.5600
  947TIP3    H224257   1.017   4.088  13.228  0.2667 -0.4990 -1.8092
  948TIP3   OH224258   3.062   1.334  13.845  0.3151  0.0365 -0.2032
  948TIP3    H124259   3.011   1.289  13.778  0.8329  0.2722 -0.7617
  948TIP3    H224260   3.045   1.427  13.831  0.5809  0.0964 -0.1279
  949TIP3   OH224261   4.012   5.988  14.407 -0.5091  0.0312  0.0212
  949TIP3    H124262   4.065   5.923  14.361 -1.8708 -1.6897  0.7725
  949TIP3    H224263   3.922   5.958  14.397 -1.1932  1.8137  0.4299
  950TIP3   OH224264   0.949   6.560  12.421  0.2149 -0.2582  0.4029
  950TIP3    H124265   1.011   6.626  12.452 -0.4952  0.9323 -0.6280
  950TIP3    H224266   0.863   6.600  12.437 -0.2338 -1.1271  0.1789
  951TIP3   OH224267   4.164   3.260  14.307 -0.4915 -0.0328 -0.2592
  951TIP3    H124268   4.164   3.281  14.401 -3.3214  0.2044 -0.2410
  951TIP3    H224269   4.147   3.166  14.304 -3.9576  0.4796 -0.4628
  952TIP3   OH224270   4.515   4.164  16.027 -0.4281 -0.0070 -0.2710
  952TIP3    H124271   4.526   4.237  16.088 -0.5777  0.4200 -0.7478
  952TIP3    H224272   4.432   4.183  15.982 -1.4769 -1.4479  0.9356
  953TIP3   OH224273   3.780   2.586  16.699  0.2359  0.0944  0.5224
  953TIP3    H124274   3.719   2.628  16.759 -1.7208 -0.4404 -0.9962
  953TIP3    H224275   3.782   2.495  16.726 -2.6322 -0.7318 -1.5975
  954TIP3   OH224276   0.599   4.690   0.093  0.1645  0.0505 -0.5662
  954TIP3    H124277   0.570   4.654   0.177  0.8468  0.7647 -0.0064
  954TIP3    H224278   0.544   4.767   0.080  1.9570  1.6557  0.7056
  955TIP3   OH224279   5.584   5.888   1.285  0.0795 -0.0980  0.5792
  955TIP3    H124280   5.533   5.810   1.264  1.1932 -1.0049  1.1437
  955TIP3    H224281   5.663   5.880   1.231 -0.5776  1.5708 -0.7112
  956TIP3   OH224282   3.796   5.735   0.712 -0.4855  0.3029  0.3102
  956TIP3    H124283   3.800   5.795   0.637  0.6163 -1.4175 -1.0812
  956TIP3    H224284   3.725   5.675   0.691  0.7375 -1.0634 -0.1059
  957TIP3   OH224285   5.924   6.377   1.374  0.1903 -0.4225  0.3297
  957TIP3    H124286   5.889   6.322   1.444  0.5383 -1.1075 -0.0202
  957TIP3    H224287   5.995   6.426   1.415  1.2763 -1.7881  0.1844
  958TIP3   OH224288   0.886   3.862   6.745  0.3179  0.0115  0.5665
  958TIP3    H124289   0.885   3.780   6.696  0.0767  0.8157 -0.8354
  958TIP3    H224290   0.847   3.926   6.686  0.0901  1.0535  1.7963
  959TIP3   OH224291   4.666   2.044  13.549  0.8253  0.2855 -0.0430
  959TIP3    H124292   4.706   2.050  13.462 -0.2808  1.7369 -0.4857
  959TIP3    H224293   4.665   2.134  13.581 -2.0911  0.3596 -0.1008
  960TIP3   OH224294   1.416   6.095   1.567 -0.7422  0.1486  0.2199
  960TIP3    H124295   1.379   6.183   1.578 -1.1872 -0.0031 -0.0617
  960TIP3    H224296   1.418   6.058   1.655  0.7164  0.9405  0.5631
  961TIP3   OH224297   5.274   4.277  16.354 -0.3086 -0.3224 -0.4200
  961TIP3    H124298   5.274   4.272  16.450 -0.6810 -0.0321 -0.4063
  961TIP3    H224299   5.323   4.199  16.327  1.2669  0.4640  0.0468
  962TIP3   OH224300   6.581   1.514   3.148  0.4272  0.0805  0.2458
  962TIP3    H124301   6.584   1.422   3.174 -1.0975  0.5814  2.4365
  962TIP3    H224302   6.672   1.544   3.158  0.5532 -0.6697  1.6489
  963TIP3   OH224303   1.859   0.055  14.633 -0.2444  0.6192  0.1746
  963TIP3    H124304   1.843  -0.015  14.571  0.9978 -0.2370  0.7610
  963TIP3    H224305   1.949   0.040  14.663  0.1106  2.5515  0.2116
  964TIP3   OH224306   3.366   0.889  14.051 -0.7319 -0.2730 -0.7844
  964TIP3    H124307   3.422   0.856  13.980  0.9404  0.6010  0.0689
  964TIP3    H224308   3.396   0.979  14.064 -0.1860 -0.7580  1.7936
  965TIP3   OH224309   5.497   2.055   0.380 -0.1944  0.5395 -0.1812
  965TIP3    H124310   5.443   2.106   0.440  0.3358  2.4679 -1.2496
  965TIP3    H224311   5.481   2.093   0.294 -0.9420 -2.1550 -1.3410
  966TIP3   OH224312   6.051   2.031   5.387  0.5957 -0.8350 -0.0781
  966TIP3    H124313   6.003   1.955   5.353  1.0068 -1.7421  1.2974
  966TIP3    H224314   6.016   2.043   5.475  2.1754 -0.9022  0.5881
  967TIP3   OH224315   1.761   2.082  14.454 -0.3370 -0.0165  0.1182
  967TIP3    H124316   1.762   2.178  14.454 -1.3541  0.0050  0.2211
  967TIP3    H224317   1.790   2.058  14.366  0.4697  0.3696  0.2734
  968TIP3   OH224318   2.211   2.074  14.329 -0.1296 -0.2203 -0.2510
  968TIP3    H124319   2.138   2.059  14.269 -0.2910 -1.8466  0.2750
  968TIP3    H224320   2.186   2.152  14.379 -0.5768  0.3992 -1.4093
  969TIP3   OH224321   5.431   4.058  16.341 -0.0343  0.0559 -0.3034
  969TIP3    H124322   5.506   4.010  16.306  0.2556 -0.9697  1.5855
  969TIP3    H224323   5.383   3.994  16.393 -1.2563  1.1312 -0.0438
  970TIP3   OH224324   2.279   1.364   0.157 -0.1375 -0.2430 -0.4363
  970TIP3    H124325   2.216   1.384   0.088  0.0433 -0.2478 -0.6045
  970TIP3    H224326   2.312   1.450   0.184  1.4759 -0.3283 -1.9418
  971TIP3   OH224327   6.011   4.285   1.084  0.3881 -0.2084 -0.0387
  971TIP3    H124328   6.052   4.311   1.167  0.6266 -0.8604  0.0478
  971TIP3    H224329   6.033   4.356   1.023  0.3688  0.1826  0.4008
  972TIP3   OH224330   4.977   5.948   6.322  0.3163 -0.2767  0.0720
  972TIP3    H124331   5.046   5.920   6.382 -0.1770  0.1502  0.8566
  972TIP3    H224332   4.989   6.043   6.314 -0.0383 -0.2348  0.0353
  973TIP3   OH224333   6.118   0.783   0.127  0.6800  0.2367  0.1763
  973TIP3    H124334   6.200   0.734   0.119  1.5861  1.8582 -1.3490
  973TIP3    H224335   6.080   0.753   0.209  3.7727  0.7495  1.9563
  974TIP3   OH224336   4.143   6.079   2.628 -0.0431  0.1084 -0.6951
  974TIP3    H124337   4.178   5.991   2.614 -1.2982 -0.3653 -1.0211
  974TIP3    H224338   4.089   6.095   2.550 -0.3503  0.8945 -0.3245
  975TIP3   OH224339   2.487   3.019  16.671  0.3412  0.0391 -0.1437
  975TIP3    H124340   2.480   3.102  16.623  1.5799 -0.8668 -2.0539
  975TIP3    H224341   2.573   2.984  16.645 -1.2584 -3.1488 -1.7346
  976TIP3   OH224342   6.485   5.963   1.698 -0.1644 -0.4594  0.7410
  976TIP3    H124343   6.535   5.893   1.656 -1.1607 -0.1902 -0.9879
  976TIP3    H224344   6.544   6.038   1.702  0.3515 -0.8759  1.0358
  977TIP3   OH224345   4.910   1.162   0.941 -0.0250  0.3924  0.0715
  977TIP3    H124346   4.875   1.234   0.994  0.4847  0.1063  0.8162
  977TIP3    H224347   4.979   1.124   0.995  1.5754  1.0482 -1.4016
  978TIP3   OH224348   3.143   0.919   5.128  0.2067  0.3411 -0.7979
  978TIP3    H124349   3.053   0.944   5.105  0.2756  1.1779 -0.1861
  978TIP3    H224350   3.153   0.830   5.093 -0.5957  0.5428 -1.5616
  979TIP3   OH224351   6.038   0.796   1.653  0.3100 -0.2782  0.5964
  979TIP3    H124352   6.023   0.764   1.742  0.7894 -0.3381  0.6596
  979TIP3    H224353   6.015   0.889   1.657 -0.5724 -0.4869  0.5444
  980TIP3   OH224354   1.457   1.444  15.205  0.3622  0.1771 -0.3419
  980TIP3    H124355   1.377   1.451  15.153  0.4116 -1.7301 -0.7284
  980TIP3    H224356   1.476   1.534  15.231 -0.2177  1.1066 -2.8082
  981TIP3   OH224357   6.739   6.691   0.402 -0.3527  0.4819 -0.0595
  981TIP3    H124358   6.786   6.770   0.430  1.0085 -0.3396  0.0775
  981TIP3    H224359   6.693   6.661   0.480  0.4661  0.2337  0.3326
  982TIP3   OH224360   3.403   1.146   5.583  0.1759  0.6116  0.3704
  982TIP3    H124361   3.354   1.086   5.526 -0.8569 -0.8409  2.6261
  982TIP3    H224362   3.350   1.226   5.585 -1.7503 -0.6094  2.0307
  983TIP3   OH224363   6.315   0.087  15.651  0.6879  0.8830 -0.0423
  983TIP3    H124364   6.367   0.085  15.571 -1.8556  2.0907 -1.9012
  983TIP3    H224365   6.256   0.162  15.639 -2.0091 -0.8153  1.4681
  984TIP3   OH224366   5.866   1.344  15.564 -0.0438  0.3590 -0.5187
  984TIP3    H124367   5.906   1.344  15.651  0.0597 -0.4766 -0.5644
  984TIP3    H224368   5.909   1.417  15.518 -3.0628  3.7466  1.4621
  985TIP3   OH224369   4.605   2.654   3.299 -0.1173 -0.3305 -0.2230
  985TIP3    H124370   4.539   2.635   3.233 -1.9375 -1.0674  1.6906
  985TIP3    H224371   4.588   2.744   3.325 -0.2795 -0.4676  0.1586
  986TIP3   OH224372   3.241   2.921  12.092  0.0575  0.0789 -0.0625
  986TIP3    H124373   3.149   2.906  12.110  0.9791 -3.3740  2.9674
  986TIP3    H224374   3.267   2.848  12.036  1.3133 -0.1725  0.7959
  987TIP3   OH224375   4.408   1.805   3.235  0.1036 -0.1915  0.5807
  987TIP3    H124376   4.464   1.781   3.308  0.2308  1.1259  0.9266
  987TIP3    H224377   4.414   1.900   3.229  0.0484 -0.2610 -1.1065
  988TIP3   OH224378   6.574   5.792   3.588  0.3836  0.4887  0.3252
  988TIP3    H124379   6.602   5.881   3.610 -1.3849  0.8154  1.5192
  988TIP3    H224380   6.546   5.797   3.497  0.7669  1.0311  0.2361
  989TIP3   OH224381   5.467   3.796   1.988 -0.3645  0.2394  0.2146
  989TIP3    H124382   5.384   3.843   1.981 -0.3050  0.3300  0.1107
  989TIP3    H224383   5.507   3.804   1.901 -0.9174 -1.0616 -0.1774
  990TIP3   OH224384   2.988   4.880  16.848  0.0654 -0.2465 -0.2119
  990TIP3    H124385   3.083   4.878  16.861 -0.0034 -0.3020  0.2740
  990TIP3    H224386   2.952   4.827  16.918 -0.3875  0.5212  0.1545
  991TIP3   OH224387   5.189   2.675  17.300  0.3682 -0.3819 -0.0151
  991TIP3    H124388   5.157   2.762  17.278 -1.4210 -0.9347  0.2234
  991TIP3    H224389   5.253   2.654  17.231 -0.3230  0.4980 -0.9438
  992TIP3   OH224390   5.174   4.832  15.767 -0.1099 -0.4991  0.0477
  992TIP3    H124391   5.101   4.845  15.828 -1.0041  0.7852 -1.2116
  992TIP3    H224392   5.187   4.737  15.764  0.7833 -0.5516  3.0886
  993TIP3   OH224393   1.372   0.238  15.675  0.0991 -0.0943  0.1949
  993TIP3    H124394   1.315   0.238  15.598 -0.2177 -0.6539  0.4242
  993TIP3    H224395   1.337   0.169  15.731 -1.0053  1.7000  1.8351
  994TIP3   OH224396   1.632   3.563  15.697 -0.4699 -0.1147 -0.0725
  994TIP3    H124397   1.674   3.645  15.672 -0.8437 -0.0299 -0.4483
  994TIP3    H224398   1.704   3.501  15.709 -0.2648 -0.2171 -1.5967
  995TIP3   OH224399   6.007   6.345   3.001 -0.0813  0.4031  0.5838
  995TIP3    H124400   6.001   6.440   3.010 -1.2038  0.3076  0.9226
  995TIP3    H224401   6.090   6.331   2.954  1.8186  1.3487  3.4139
  996TIP3   OH224402   2.754   2.953   1.436  0.1746 -0.4336 -0.1844
  996TIP3    H124403   2.804   2.926   1.514 -0.7995 -2.8477 -0.3205
  996TIP3    H224404   2.800   2.912   1.363 -0.9390 -1.1728 -0.4922
  997TIP3   OH224405   0.157   0.569  12.733 -0.4792  0.3546  0.3011
  997TIP3    H124406   0.066   0.554  12.759 -0.8975  2.2118  0.0062
  997TIP3    H224407   0.194   0.622  12.804  0.9757 -1.9176  1.3599
  998TIP3   OH224408   6.319   5.175   5.520 -0.2088  0.0503 -0.1672
  998TIP3    H124409   6.269   5.100   5.552  0.8169 -0.2952  0.6730
  998TIP3    H224410   6.300   5.179   5.427 -0.1898 -1.3377 -0.2446
  999TIP3   OH224411   5.604   3.567  14.875 -0.7231 -0.0603  0.2740
  999TIP3    H124412   5.638   3.650  14.841  0.0151 -0.3783  0.2173
  999TIP3    H224413   5.528   3.548  14.821 -0.2732  0.0581 -0.4131
 1000TIP3   OH224414   0.937   3.372   2.096  0.5855 -0.4944 -0.5257
 1000TIP3    H124415   0.846   3.399   2.108  1.0812  0.6127  1.1526
 1000TIP3    H224416   0.948   3.367   2.001 -1.3144 -1.0920 -0.7775
 1001TIP3   OH224417   1.930   3.868   0.690 -0.0200 -0.1280 -0.1999
 1001TIP3    H124418   1.927   3.849   0.783  2.2469  0.0051 -0.0507
 1001TIP3    H224419   1.927   3.783   0.647 -2.7266 -0.1413 -0.1465
 1002TIP3   OH224420   2.041   4.052  12.042 -0.4802  0.1301 -0.0963
 1002TIP3    H124421   2.025   3.993  11.968 -1.6347  0.9943 -0.5786
 1002TIP3    H224422   1.967   4.037  12.101 -0.4966  0.6829  0.0327
 1003TIP3   OH224423   4.215   2.311   3.760 -0.1533 -0.5869  0.6383
 1003TIP3    H124424   4.245   2.399   3.737 -0.7374 -1.0861 -2.4113
 1003TIP3    H224425   4.248   2.297   3.849  5.2571  0.3747 -0.8646
 1004TIP3   OH224426   0.351   3.807   1.312  0.1543 -1.0614  0.0573
 1004TIP3    H124427   0.297   3.881   1.340 -2.6872 -2.0152 -2.3500
 1004TIP3    H224428   0.351   3.747   1.386 -1.1565 -0.5106  0.5272
 1005TIP3   OH224429   3.816   1.854  14.999  0.1785 -0.0798 -0.2183
 1005TIP3    H124430   3.894   1.806  15.028  0.2638 -0.0458 -0.3878
 1005TIP3    H224431   3.753   1.785  14.978  0.4010 -0.1305 -0.7387
 1006TIP3   OH224432   5.287   1.300  16.610  0.6356  0.3376  0.1993
 1006TIP3    H124433   5.214   1.255  16.567  0.6257  2.6009 -2.4104
 1006TIP3    H224434   5.335   1.230  16.654 -2.0016 -1.4831  0.3946
 1007TIP3   OH224435   6.167   4.839   3.678 -0.2877 -0.2080 -0.1317
 1007TIP3    H124436   6.130   4.750   3.683 -2.2623  0.3884 -2.3719
 1007TIP3    H224437   6.223   4.838   3.600 -1.1805  0.7444 -0.8193
 1008TIP3   OH224438   0.272   1.623  15.204  0.0624  0.2996  0.5211
 1008TIP3    H124439   0.331   1.691  15.170  1.0649 -1.2636 -1.0760
 1008TIP3    H224440   0.215   1.602  15.130  1.7897 -2.6748 -0.1375
 1009TIP3   OH224441   1.426   0.609  15.532  0.1385 -0.3149 -0.2834
 1009TIP3    H124442   1.396   0.666  15.603 -0.1514 -0.2326 -0.4721
 1009TIP3    H224443   1.364   0.536  15.532  1.0506 -1.1282  0.5744
 1010TIP3   OH224444   0.600   4.087   2.201  0.3022 -0.0658 -0.1885
 1010TIP3    H124445   0.603   4.094   2.106  1.3109 -1.3758 -0.2812
 1010TIP3    H224446   0.576   3.996   2.218  1.8369 -0.3316  0.7805
 1011TIP3   OH224447   0.760   1.641  14.435  0.3466  0.1662 -0.1027
 1011TIP3    H124448   0.803   1.560  14.465 -0.4137  0.1183  0.9345
 1011TIP3    H224449   0.689   1.611  14.378 -1.0192 -0.0530  1.6215
 1012TIP3   OH224450   4.897   4.511  13.524  0.4156 -0.1949 -0.0560
 1012TIP3    H124451   4.949   4.544  13.451  0.9193 -0.4490  0.1819
 1012TIP3    H224452   4.829   4.577  13.538  1.3974  0.7582  0.4138
 1013TIP3   OH224453   3.280   3.294  11.370  0.0825  0.6153  0.0246
 1013TIP3    H124454   3.308   3.359  11.306 -0.1059  0.5423 -0.1336
 1013TIP3    H224455   3.280   3.340  11.454  0.3269  0.7117 -0.0275
 1014TIP3   OH224456   3.086   1.818  16.558  0.0809 -0.1137 -0.4681
 1014TIP3    H124457   2.995   1.813  16.527  0.5294 -0.2432 -1.8350
 1014TIP3    H224458   3.092   1.902  16.603 -0.3105  0.6516 -1.7959
 1015TIP3   OH224459   0.955   5.072   5.257  0.4903 -0.0388  0.5060
 1015TIP3    H124460   0.995   5.157   5.276  0.9645  0.1215 -1.0548
 1015TIP3    H224461   1.015   5.030   5.196 -0.5848 -0.7777 -0.0888
 1016TIP3   OH224462   1.731   1.567  14.744  0.6769  0.3875 -0.2910
 1016TIP3    H124463   1.692   1.654  14.732  0.3545  0.0927 -1.6359
 1016TIP3    H224464   1.705   1.540  14.832 -2.4289  0.1166 -1.1654
 1017TIP3   OH224465   6.016   1.281  16.099  0.4984  0.7929 -0.2951
 1017TIP3    H124466   6.065   1.199  16.109 -0.5053  0.0754 -1.0157
 1017TIP3    H224467   6.075   1.349  16.132  1.6981 -0.1169 -0.5088
 1018TIP3   OH224468   3.501   1.764  14.969  0.2682  0.7730 -0.1560
 1018TIP3    H124469   3.485   1.834  15.033 -0.2641  0.3853  0.1504
 1018TIP3    H224470   3.415   1.724  14.956  0.5185  0.3471 -0.5256
 1019TIP3   OH224471   3.557   6.359   2.772 -0.2993 -0.6542  0.0380
 1019TIP3    H124472   3.585   6.442   2.735  1.2901 -1.4403 -0.6291
 1019TIP3    H224473   3.586   6.362   2.863 -2.2594  0.3900  0.6847
 1020TIP3   OH224474   2.804   4.083  12.659  0.2219 -0.0732 -0.4829
 1020TIP3    H124475   2.716   4.045  12.654  0.6423 -1.8837  2.8691
 1020TIP3    H224476   2.855   4.032  12.595 -0.6743 -0.5189 -0.8705
 1021TIP3   OH224477   5.282   2.334  14.621 -0.3756  1.1433 -0.2155
 1021TIP3    H124478   5.322   2.355  14.537 -0.5014  2.0743 -0.0547
 1021TIP3    H224479   5.305   2.408  14.678  0.5932  0.0345  0.8783
 1022TIP3   OH224480   2.961   2.854  16.533  0.1784  0.3774  0.9232
 1022TIP3    H124481   3.035   2.889  16.582 -1.0303 -0.7493  3.7656
 1022TIP3    H224482   2.972   2.759  16.538 -0.8763  0.2208  0.4301
 1023TIP3   OH224483   0.770   5.367  16.400 -0.2589 -0.0880 -0.1577
 1023TIP3    H124484   0.678   5.391  16.402 -0.5241 -1.0471 -0.3694
 1023TIP3    H224485   0.817   5.450  16.391 -1.1281  0.3492 -0.7351
 1024TIP3   OH224486   1.112   0.721   5.197  0.2540 -0.3362  0.2397
 1024TIP3    H124487   1.152   0.738   5.282  1.1213 -0.3213 -0.1645
 1024TIP3    H224488   1.174   0.663   5.152 -1.2359 -2.2109  0.4524
 1025TIP3   OH224489   1.286   2.034  14.784 -0.3746  0.0057 -0.0203
 1025TIP3    H124490   1.311   2.085  14.707  1.5591 -1.6640 -0.5835
 1025TIP3    H224491   1.256   2.099  14.847  1.4313  1.7966 -0.9075
 1026TIP3   OH224492   0.740   6.051  11.891 -0.0460  0.4033 -0.0433
 1026TIP3    H124493   0.678   6.108  11.846  0.3944  0.0607 -1.1025
 1026TIP3    H224494   0.793   6.111  11.944  0.6651  1.0468 -1.4416
 1027TIP3   OH224495   3.816   4.903   4.325  0.2841 -0.6224 -0.6825
 1027TIP3    H124496   3.777   4.923   4.240 -0.8976 -0.9766 -0.2493
 1027TIP3    H224497   3.910   4.916   4.312 -0.1082  2.6385 -1.1444
 1028TIP3   OH224498   2.197   4.116  13.557 -0.1384 -0.1721 -0.0440
 1028TIP3    H124499   2.236   4.029  13.564 -0.6649 -0.5225 -1.1802
 1028TIP3    H224500   2.271   4.174  13.537  0.0523 -0.5405 -0.4145
 1029TIP3   OH224501   6.480   3.292  17.184  0.1834  0.0748  0.0531
 1029TIP3    H124502   6.422   3.243  17.241 -0.0532  1.8496  1.4262
 1029TIP3    H224503   6.468   3.253  17.097  0.0893 -2.2860  1.0508
 1030TIP3   OH224504   3.188   6.513   4.959  0.1722  0.5129 -0.3197
 1030TIP3    H124505   3.165   6.605   4.945  1.2913  0.6209 -1.6821
 1030TIP3    H224506   3.105   6.468   4.968 -0.4312  1.5009 -0.8083
 1031TIP3   OH224507   5.871   3.869  11.802  0.0270  0.1495 -0.1511
 1031TIP3    H124508   5.835   3.916  11.727 -0.0339 -0.5610 -0.5827
 1031TIP3    H224509   5.835   3.780  11.794  1.1238 -0.3201 -0.0678
 1032TIP3   OH224510   5.881   2.165   0.482 -0.2635  0.2887  0.4475
 1032TIP3    H124511   5.809   2.197   0.427 -0.9523 -1.5089  0.2490
 1032TIP3    H224512   5.843   2.157   0.569 -0.4838 -1.0910  0.2541
 1033TIP3   OH224513   6.178   6.459   3.719 -0.5697 -0.7618 -0.0663
 1033TIP3    H124514   6.149   6.550   3.725  0.6268 -0.1771 -1.9890
 1033TIP3    H224515   6.270   6.461   3.743  0.2810 -0.8594 -2.9150
 1034TIP3   OH224516   2.532   2.554   0.319  0.2094 -0.6278  0.0458
 1034TIP3    H124517   2.548   2.546   0.413  0.2260 -1.6924 -0.0305
 1034TIP3    H224518   2.442   2.584   0.312  0.4006  0.0548  0.4042
 1035TIP3   OH224519   4.680   0.610   5.251  0.0575 -0.1945  0.4188
 1035TIP3    H124520   4.711   0.683   5.304 -0.4886 -0.4447  1.1027
 1035TIP3    H224521   4.685   0.534   5.310 -2.0467 -0.2103  0.6682
 1036TIP3   OH224522   1.404   6.224  11.425 -0.1283  0.7549 -0.1214
 1036TIP3    H124523   1.482   6.232  11.369 -0.1341  0.5079 -0.1658
 1036TIP3    H224524   1.343   6.170  11.374 -1.1168  2.5749 -0.9275
 1037TIP3   OH224525   6.318   2.897  12.034  0.0820 -0.1238 -0.4158
 1037TIP3    H124526   6.261   2.897  11.958  0.5292 -0.9961 -0.7739
 1037TIP3    H224527   6.301   2.980  12.078 -1.0300 -0.1221 -0.8273
 1038TIP3   OH224528   3.343   2.317  16.054  0.4284 -0.6145  0.7333
 1038TIP3    H124529   3.438   2.332  16.055  0.2272  0.6811  1.2108
 1038TIP3    H224530   3.335   2.221  16.054  1.7301 -0.7475  0.9751
 1039TIP3   OH224531   0.697   2.233   4.763  0.3043 -0.1749 -0.3567
 1039TIP3    H124532   0.621   2.247   4.707  0.9348  1.4713 -0.8647
 1039TIP3    H224533   0.765   2.198   4.705  0.0222 -1.4961  0.0642
 1040TIP3   OH224534   4.223   0.600  17.050 -0.6301  0.7056  0.5298
 1040TIP3    H124535   4.313   0.573  17.032 -0.6348  1.0292 -0.0173
 1040TIP3    H224536   4.176   0.583  16.968 -1.9342 -2.8076  1.8096
 1041TIP3   OH224537   3.779   5.827   0.972 -0.2516 -0.1186  0.1681
 1041TIP3    H124538   3.789   5.780   0.889 -0.3822  0.7168 -0.3321
 1041TIP3    H224539   3.768   5.758   1.038  2.1001 -0.9027 -0.1612
 1042TIP3   OH224540   3.109   6.075   0.304 -0.2547  0.5331  0.2474
 1042TIP3    H124541   3.153   5.992   0.321  0.3676  0.4883 -1.4016
 1042TIP3    H224542   3.157   6.113   0.229  0.1445  2.8653  1.5765
 1043TIP3   OH224543   5.330   5.742   4.316  0.0039 -0.1229 -0.1245
 1043TIP3    H124544   5.235   5.752   4.329  0.1153  2.5672 -0.7040
 1043TIP3    H224545   5.359   5.830   4.290  2.8000 -0.6657  0.8754
 1044TIP3   OH224546   2.942   0.418   1.953 -0.2197 -0.1184 -0.2058
 1044TIP3    H124547   3.036   0.431   1.967 -0.3336  0.2899  0.2391
 1044TIP3    H224548   2.936   0.359   1.878  0.4223 -1.3964  0.7086
 1045TIP3   OH224549   4.884   2.900   5.583 -1.0574  0.2454  0.3526
 1045TIP3    H124550   4.953   2.861   5.637 -1.7608 -0.3895  0.8192
 1045TIP3    H224551   4.832   2.825   5.553 -0.8604  0.6202 -0.9661
 1046TIP3   OH224552   1.201   2.804   2.497 -0.0746  0.0253 -0.1747
 1046TIP3    H124553   1.144   2.752   2.441 -0.1683 -0.8058  0.6713
 1046TIP3    H224554   1.194   2.893   2.463  1.3080 -0.7283 -2.6671
 1047TIP3   OH224555   2.587   3.876  12.649 -0.6850 -0.1817 -0.6975
 1047TIP3    H124556   2.518   3.815  12.676  0.1286 -0.7850  0.0858
 1047TIP3    H224557   2.563   3.902  12.560 -1.4652 -1.0415 -0.7529
 1048TIP3   OH224558   4.639   1.894   5.823 -0.1688 -0.1456 -0.0849
 1048TIP3    H124559   4.671   1.966   5.876  0.4554  0.5690 -1.3723
 1048TIP3    H224560   4.676   1.910   5.736  0.0936 -2.1000 -0.3756
 1049TIP3   OH224561   5.260   6.001   2.884 -0.2581 -0.3048  0.3569
 1049TIP3    H124562   5.287   6.082   2.928 -2.2854 -0.3026  1.7701
 1049TIP3    H224563   5.215   6.030   2.805  1.3683 -0.2095 -0.5749
 1050TIP3   OH224564   4.145   6.382  11.166  0.1581  0.4740 -0.5183
 1050TIP3    H124565   4.164   6.334  11.247 -0.3877 -0.6659 -1.0354
 1050TIP3    H224566   4.184   6.468  11.179  2.6901 -0.6278 -0.1973
 1051TIP3   OH224567   0.967   2.626  17.258 -0.2927 -0.0101  0.1724
 1051TIP3    H124568   1.037   2.572  17.222  0.4085  0.9205  0.1013
 1051TIP3    H224569   1.012   2.704  17.291 -1.2932  0.5816  0.1629
 1052TIP3   OH224570   4.598   5.648  14.667  0.5630  0.1140  0.4240
 1052TIP3    H124571   4.514   5.692  14.683  0.8396  0.9488 -0.3812
 1052TIP3    H224572   4.577   5.581  14.602  0.9765  2.0007 -1.7449
 1053TIP3   OH224573   4.434   2.051   1.150 -0.3268 -0.0903  0.2678
 1053TIP3    H124574   4.498   1.993   1.108  0.4652  1.5559 -0.9375
 1053TIP3    H224575   4.413   2.009   1.233 -1.4967 -3.2093 -1.4469
 1054TIP3   OH224576   4.795   5.674   2.829 -0.2177 -0.0868 -0.9044
 1054TIP3    H124577   4.704   5.662   2.858  0.0142  0.8854  0.2950
 1054TIP3    H224578   4.834   5.587   2.837 -0.7267 -0.2668 -0.2752
 1055TIP3   OH224579   1.689   5.700  15.985  0.3156 -0.1590 -0.4700
 1055TIP3    H124580   1.697   5.657  16.069 -1.4346  1.4199  0.5862
 1055TIP3    H224581   1.666   5.630  15.923  1.3757 -1.2919  0.3878
 1056TIP3   OH224582   2.724   3.850  13.121 -0.7984 -0.2666  0.6573
 1056TIP3    H124583   2.788   3.921  13.109  0.8761 -1.4516  2.0936
 1056TIP3    H224584   2.641   3.888  13.092  0.5678  1.2203 -1.6680
 1057TIP3   OH224585   1.699   4.699   3.167  0.2355 -0.8973  0.5903
 1057TIP3    H124586   1.615   4.671   3.129  0.3112 -0.4884  0.1056
 1057TIP3    H224587   1.742   4.746   3.096  0.6916 -0.7334  0.9751
 1058TIP3   OH224588   5.474   5.451   6.389  0.5026 -0.2646 -0.1495
 1058TIP3    H124589   5.452   5.536   6.352 -0.7730  0.4147  1.9897
 1058TIP3    H224590   5.466   5.390   6.315  1.5307  1.4155 -1.7515
 1059TIP3   OH224591   5.908   4.268   3.044 -0.3202  0.2121  0.0458
 1059TIP3    H124592   5.957   4.338   3.003  0.6464 -0.0707  0.6634
 1059TIP3    H224593   5.838   4.312   3.093  0.5039  0.7938  0.7417
 1060TIP3   OH224594   2.568   4.112   1.500 -0.2930 -0.7211 -0.2015
 1060TIP3    H124595   2.648   4.068   1.472 -0.4996 -0.2402 -1.5929
 1060TIP3    H224596   2.498   4.061   1.459 -0.7536 -1.3145  1.2366
 1061TIP3   OH224597   2.013   2.408   5.704  0.1334  0.0979 -0.0981
 1061TIP3    H124598   1.949   2.469   5.667  1.6704  1.1177 -1.2117
 1061TIP3    H224599   2.086   2.410   5.642  2.5608  1.2974  2.5554
 1062TIP3   OH224600   0.930   2.474  13.874  0.0337 -0.6830  0.2410
 1062TIP3    H124601   0.843   2.512  13.864  0.3853  0.1668  0.3615
 1062TIP3    H224602   0.918   2.381  13.852 -0.9265 -0.6105  0.4192
 1063TIP3   OH224603   5.815   5.248  12.414 -0.3496 -0.2895  0.0928
 1063TIP3    H124604   5.864   5.189  12.472 -0.2920 -0.2880  0.0446
 1063TIP3    H224605   5.777   5.190  12.348  0.8214 -0.1103 -0.7514
 1064TIP3   OH224606   3.332   1.975   1.210  0.2621  0.3194 -0.0445
 1064TIP3    H124607   3.268   2.011   1.149 -0.1480  1.0950  0.8185
 1064TIP3    H224608   3.324   1.880   1.201  1.1846  0.3972 -2.1875
 1065TIP3   OH224609   1.891   1.537   1.524 -0.4481  0.6810  0.3060
 1065TIP3    H124610   1.853   1.623   1.508 -1.7527  0.3194  1.2261
 1065TIP3    H224611   1.943   1.548   1.603  2.8497  1.5569 -1.7911
 1066TIP3   OH224612   0.859   2.928  11.525 -0.1874 -0.3254  1.0051
 1066TIP3    H124613   0.916   2.961  11.594 -0.8553  0.9712  0.9591
 1066TIP3    H224614   0.879   2.834  11.521  1.0896 -0.1169  1.7776
 1067TIP3   OH224615   5.103   0.344   4.761 -0.4723  0.0409  0.1353
 1067TIP3    H124616   5.061   0.415   4.809 -0.8881 -0.3550  0.3594
 1067TIP3    H224617   5.033   0.303   4.711 -0.0962  0.2576 -0.5856
 1068TIP3   OH224618   4.297   3.052   3.257  0.1792 -0.6333 -0.3598
 1068TIP3    H124619   4.219   2.998   3.261 -1.3323  1.4974  1.3374
 1068TIP3    H224620   4.334   3.036   3.170 -2.7778 -0.8696 -1.6806
 1069TIP3   OH224621   6.764   2.992  11.138  0.0069  0.5338  0.0059
 1069TIP3    H124622   6.716   3.075  11.136 -0.9857 -0.0199 -0.1071
 1069TIP3    H224623   6.745   2.951  11.053 -0.6104 -0.3791  0.5578
 1070TIP3   OH224624   2.691   5.908   5.537 -0.3005  0.5178 -0.0102
 1070TIP3    H124625   2.722   5.848   5.604 -0.3473 -0.7126 -1.0553
 1070TIP3    H224626   2.716   5.995   5.569  1.1543 -0.1642  0.7878
 1071TIP3   OH224627   1.319   6.591   2.363 -0.1651 -0.4399 -0.1292
 1071TIP3    H124628   1.254   6.559   2.301  1.0668 -2.2068 -0.5803
 1071TIP3    H224629   1.281   6.573   2.449 -0.6676 -0.6227 -0.3875
 1072TIP3   OH224630   5.766   0.616   3.167  0.6477  0.0656  0.4258
 1072TIP3    H124631   5.833   0.638   3.231  0.2085  0.7790  0.6492
 1072TIP3    H224632   5.731   0.532   3.198  1.4078 -0.3018  0.3186
 1073TIP3   OH224633   5.463   2.562   0.196  0.5337 -0.2206 -0.3639
 1073TIP3    H124634   5.409   2.483   0.198 -0.9517  0.7294 -1.1697
 1073TIP3    H224635   5.541   2.537   0.146  0.4187 -1.3538 -0.0024
 1074TIP3   OH224636   5.666   2.986  11.792  0.4177 -0.4013  0.5683
 1074TIP3    H124637   5.724   2.915  11.820  0.2051 -1.3809 -1.2621
 1074TIP3    H224638   5.579   2.945  11.787  0.0252  0.3816  0.8714
 1075TIP3   OH224639   4.210   6.250  14.545 -0.3201 -0.1216  0.5101
 1075TIP3    H124640   4.163   6.314  14.599  0.4769  0.0782  0.9917
 1075TIP3    H224641   4.301   6.279  14.547 -0.2194 -0.2938 -0.7028
 1076TIP3   OH224642   6.612   3.666   0.624  0.0763 -0.0174  0.4029
 1076TIP3    H124643   6.554   3.736   0.655  0.8270  0.9561 -0.3318
 1076TIP3    H224644   6.660   3.638   0.701  0.0243  0.5300  0.6394
 1077TIP3   OH224645   4.465   6.189   5.465 -0.6328 -0.2804 -0.3783
 1077TIP3    H124646   4.396   6.249   5.435  0.1245  1.3406  0.9200
 1077TIP3    H224647   4.440   6.168   5.555 -0.3770 -1.1900 -0.5099
 1078TIP3   OH224648   2.628   0.333  16.408  0.1199 -0.2088 -0.2847
 1078TIP3    H124649   2.698   0.361  16.349  1.7544 -1.1666  1.0913
 1078TIP3    H224650   2.606   0.411  16.458 -0.1180  0.2079 -1.0274
 1079TIP3   OH224651   2.207   2.017  15.199  0.5731  0.3869  0.0749
 1079TIP3    H124652   2.151   2.050  15.129 -0.4293 -1.7333 -0.2018
 1079TIP3    H224653   2.275   1.967  15.153  1.2343  0.8386  0.5419
 1080TIP3   OH224654   5.349   0.532  11.662 -0.8847 -0.0457 -0.6231
 1080TIP3    H124655   5.385   0.459  11.711  0.7780  1.2224  0.1344
 1080TIP3    H224656   5.256   0.533  11.684 -0.5423 -0.7369  0.9017
 1081TIP3   OH224657   1.030   3.987  12.898  0.1680 -0.4368  0.3546
 1081TIP3    H124658   1.095   3.924  12.929 -0.9540 -2.4427 -1.1765
 1081TIP3    H224659   0.958   3.979  12.961  0.1562 -0.4478  0.3395
 1082TIP3   OH224660   1.963   2.797   0.576  0.2017 -0.0321 -0.3597
 1082TIP3    H124661   2.005   2.863   0.630  0.8048 -2.5271  2.4626
 1082TIP3    H224662   1.872   2.796   0.605  0.2798 -0.6565 -0.1175
 1083TIP3   OH224663   2.195   4.401   5.836  0.3467 -0.4344  0.6483
 1083TIP3    H124664   2.128   4.443   5.782  1.7344  1.2761  0.1734
 1083TIP3    H224665   2.236   4.337   5.779  0.6606  0.1631  0.1899
 1084TIP3   OH224666   3.519   1.329  13.369 -0.4608  0.9049  0.0606
 1084TIP3    H124667   3.548   1.254  13.421  2.9401  0.4400 -2.1336
 1084TIP3    H224668   3.546   1.405  13.420  0.8382  0.4855  0.0513
 1085TIP3   OH224669   0.431   2.469  16.033 -0.0033 -0.0326 -0.3589
 1085TIP3    H124670   0.519   2.498  16.009 -0.1886  0.2511 -0.7079
 1085TIP3    H224671   0.414   2.395  15.974  1.2008 -2.1373  1.7617
 1086TIP3   OH224672   5.847   3.007   5.850  0.5484  0.1621 -0.4322
 1086TIP3    H124673   5.901   3.021   5.772  1.2687 -0.8043 -0.1284
 1086TIP3    H224674   5.909   2.982   5.918 -0.2713 -0.8917 -0.0475
 1087TIP3   OH224675   0.955   3.476   1.422 -0.2470 -0.7100  0.1350
 1087TIP3    H124676   0.935   3.510   1.334  0.7534 -0.5610 -0.0439
 1087TIP3    H224677   0.870   3.451   1.457 -0.8677  0.7136 -0.2553
 1088TIP3   OH224678   4.253   0.124  15.836  0.7945  0.1573 -0.3381
 1088TIP3    H124679   4.238   0.123  15.930 -0.2115  0.1417 -0.4859
 1088TIP3    H224680   4.333   0.073  15.823  0.4538 -0.5820  0.4210
 1089TIP3   OH224681   0.904   5.131  13.297  0.0443 -0.3911 -0.5600
 1089TIP3    H124682   0.815   5.163  13.309 -0.2440 -0.3869 -2.4729
 1089TIP3    H224683   0.940   5.184  13.225  1.1352 -1.2705 -0.6925
 1090TIP3   OH224684   2.964   2.205   4.511 -0.0669 -0.2996  0.0243
 1090TIP3    H124685   3.023   2.262   4.561 -1.2204 -0.1112  1.2322
 1090TIP3    H224686   3.019   2.131   4.485  1.2115  0.8497 -0.7108
 1091TIP3   OH224687   2.464   2.282  15.105 -0.7416 -0.2643 -0.2838
 1091TIP3    H124688   2.556   2.267  15.128 -1.0438 -1.2927  0.3134
 1091TIP3    H224689   2.445   2.369  15.138  0.1138  0.1172 -0.7398
 1092TIP3   OH224690   3.221   2.693  11.572  0.3400  0.2935  0.0271
 1092TIP3    H124691   3.311   2.671  11.547  0.2948 -1.0299  0.9182
 1092TIP3    H224692   3.186   2.612  11.610 -2.0140  0.0331 -2.3809
 1093TIP3   OH224693   3.018   2.080  11.676 -0.3042  0.0238 -0.0987
 1093TIP3    H124694   3.082   2.151  11.677 -1.1713  0.8187  0.3372
 1093TIP3    H224695   2.951   2.109  11.614  0.1861 -1.2193 -1.2662
 1094TIP3   OH224696   4.160   5.964  13.271 -0.1459 -0.0668 -0.5535
 1094TIP3    H124697   4.071   5.941  13.296 -1.5103  2.0202 -3.0116
 1094TIP3    H224698   4.177   5.913  13.191 -0.3965  1.7426 -1.8333
 1095TIP3   OH224699   5.545   4.280  16.531  0.0925 -0.1384 -0.3207
 1095TIP3    H124700   5.542   4.185  16.518  0.1784 -0.0397 -1.0603
 1095TIP3    H224701   5.527   4.317  16.445  1.0213  0.5125 -0.2478
 1096TIP3   OH224702   3.404   5.070   1.311 -0.0496 -0.7371  0.1552
 1096TIP3    H124703   3.380   5.018   1.234 -1.1759  1.3683 -1.0369
 1096TIP3    H224704   3.350   5.035   1.382 -2.1027 -0.1684 -1.0225
 1097TIP3   OH224705   5.660   1.608  14.085 -0.2399 -0.0548  0.4192
 1097TIP3    H124706   5.653   1.513  14.083  0.5106 -0.1151  0.4502
 1097TIP3    H224707   5.693   1.628  14.173 -2.0756  0.3656  1.0534
 1098TIP3   OH224708   1.113   4.871  15.431 -0.1064 -0.4398  0.0772
 1098TIP3    H124709   1.185   4.914  15.477  1.4208 -1.2224 -1.4408
 1098TIP3    H224710   1.108   4.917  15.347  0.4556 -2.0903 -0.9083
 1099TIP3   OH224711   2.369   4.941   5.666 -0.7126  0.1589 -0.0840
 1099TIP3    H124712   2.377   4.848   5.687 -0.4589  0.2613  0.2774
 1099TIP3    H224713   2.425   4.953   5.589  0.4598  0.3076  0.7609
 1100TIP3   OH224714   1.223   6.393  13.869  0.2869 -0.1685  0.0302
 1100TIP3    H124715   1.264   6.331  13.808  0.7221 -0.4752  0.6288
 1100TIP3    H224716   1.143   6.350  13.898  0.6959 -0.5473  0.6085
 1101TIP3   OH224717   5.673   6.066   5.370 -0.6984  0.1804  0.0664
 1101TIP3    H124718   5.598   6.123   5.388 -1.7587 -1.2121  0.2511
 1101TIP3    H224719   5.698   6.087   5.280 -1.1004  0.9087  0.1210
 1102TIP3   OH224720   1.093   2.088   0.244  0.4443  0.1306  0.1929
 1102TIP3    H124721   1.103   2.156   0.178 -0.2940 -0.3988 -0.4870
 1102TIP3    H224722   1.181   2.077   0.281  0.9749  0.1072 -1.0341
 1103TIP3   OH224723   5.343   4.498   5.057  0.1690  0.3405  0.1235
 1103TIP3    H124724   5.429   4.471   5.023  0.1695 -0.1148  0.4752
 1103TIP3    H224725   5.282   4.476   4.986  0.2557  0.0137  0.1471
 1104TIP3   OH224726   6.599   4.513   5.906 -0.0962 -0.1154  0.3285
 1104TIP3    H124727   6.682   4.485   5.868 -0.0919 -0.4953  0.6219
 1104TIP3    H224728   6.616   4.602   5.937 -0.1944  0.3372 -0.8620
 1105TIP3   OH224729   5.472   0.837   6.741  0.0608  0.2432 -0.0057
 1105TIP3    H124730   5.389   0.792   6.751  0.5468 -0.3552  1.6409
 1105TIP3    H224731   5.471   0.869   6.650 -1.7696 -0.0727 -0.1390
 1106TIP3   OH224732   2.629   0.708   2.361 -0.3628 -0.9154 -0.3640
 1106TIP3    H124733   2.590   0.635   2.314 -0.7942 -0.8060 -0.1877
 1106TIP3    H224734   2.670   0.762   2.293  0.9989 -1.9247 -0.3781
 1107TIP3   OH224735   0.047   3.958  16.841 -0.6207  0.9491 -0.1564
 1107TIP3    H124736  -0.026   3.926  16.787  0.4894 -1.0205 -0.5888
 1107TIP3    H224737   0.042   3.906  16.921  0.5755  0.4082 -0.4057
 1108TIP3   OH224738   3.930   5.737   2.727 -0.2619 -0.5804 -0.5726
 1108TIP3    H124739   3.836   5.755   2.731 -0.6096 -2.2659 -0.3294
 1108TIP3    H224740   3.960   5.781   2.648 -1.0033  0.9269 -0.0684
 1109TIP3   OH224741   4.151   4.912   4.529 -0.3523  0.5309 -0.3250
 1109TIP3    H124742   4.117   4.935   4.615  0.8926 -0.2688  0.4174
 1109TIP3    H224743   4.123   4.822   4.515 -1.5271  1.0245 -1.2911
 1110TIP3   OH224744   0.467   2.289  13.329 -0.2274  0.0507  0.1706
 1110TIP3    H124745   0.559   2.265  13.326  0.5977  2.9566 -0.1412
 1110TIP3    H224746   0.443   2.304  13.237 -0.3491  1.5002  0.4238
 1111TIP3   OH224747   0.131   5.470  14.471 -0.2056 -0.8783  0.0207
 1111TIP3    H124748   0.084   5.388  14.484 -3.0443  0.8189  1.2927
 1111TIP3    H224749   0.194   5.474  14.543 -1.5928 -0.9699  1.2725
 1112TIP3   OH224750   6.279   3.906  12.964  0.5066  0.2973  0.1224
 1112TIP3    H124751   6.303   3.940  12.878 -1.0712  0.9498 -0.0935
 1112TIP3    H224752   6.287   3.811  12.955  0.0118  0.3408 -0.8630
 1113TIP3   OH224753   3.659   4.064  11.484 -0.1896  0.0334 -0.3750
 1113TIP3    H124754   3.676   4.101  11.571 -4.0188 -1.0628  1.0760
 1113TIP3    H224755   3.653   4.140  11.426 -2.5827  1.4050  1.4585
 1114TIP3   OH224756   4.978   3.919  14.234 -0.1024 -0.6772 -0.3749
 1114TIP3    H124757   5.031   3.930  14.155 -0.2148 -1.8340 -0.6321
 1114TIP3    H224758   4.914   3.990  14.230  0.3648 -0.2794 -0.9347
 1115TIP3   OH224759   0.295   2.161  14.626  0.8955  0.3247  0.1317
 1115TIP3    H124760   0.214   2.203  14.597  0.8287  0.6582  0.7741
 1115TIP3    H224761   0.294   2.074  14.585 -0.0072  0.1530  0.5034
 1116TIP3   OH224762   1.494   0.314  12.598 -0.8972 -0.6806 -0.6682
 1116TIP3    H124763   1.589   0.315  12.612 -0.6347 -1.8282 -2.1379
 1116TIP3    H224764   1.483   0.277  12.511 -2.6129  1.7564 -1.5939
 1117TIP3   OH224765   3.337   0.201   0.584 -0.2318 -0.1080  0.0024
 1117TIP3    H124766   3.383   0.120   0.604 -2.0940 -1.0809  0.4906
 1117TIP3    H224767   3.349   0.213   0.490  0.5003 -0.6417  0.0202
 1118TIP3   OH224768   1.376   6.030   5.521 -0.4308  0.5179  0.7852
 1118TIP3    H124769   1.318   5.956   5.539 -0.9530  0.7926  0.2472
 1118TIP3    H224770   1.456   5.990   5.487 -0.9452  0.2265 -0.1073
 1119TIP3   OH224771   6.184   3.794   5.249  0.1012 -0.0365  0.4616
 1119TIP3    H124772   6.196   3.881   5.287 -0.4924 -0.4851  1.7509
 1119TIP3    H224773   6.089   3.787   5.235  0.1961 -0.3024 -0.0675
 1120TIP3   OH224774   2.744   2.223   4.363 -0.1592 -0.1931 -0.1478
 1120TIP3    H124775   2.797   2.209   4.441  0.5685  0.5304 -0.4925
 1120TIP3    H224776   2.659   2.254   4.396 -0.8814 -2.6331  0.4821
 1121TIP3   OH224777   5.754   3.810   3.700 -0.3081 -0.0610  0.1980
 1121TIP3    H124778   5.667   3.776   3.680  0.3407 -1.1026 -0.9423
 1121TIP3    H224779   5.803   3.802   3.618  0.4884  1.7608  0.4392
 1122TIP3   OH224780   4.007   1.763   4.324  0.4366 -0.3099 -0.2213
 1122TIP3    H124781   3.942   1.811   4.274  1.1726  0.4914 -0.4276
 1122TIP3    H224782   3.965   1.747   4.409 -0.3159 -0.5136 -0.6216
 1123TIP3   OH224783   2.259   1.595  11.586 -0.1293 -0.5974  0.5650
 1123TIP3    H124784   2.285   1.650  11.660 -1.2246  0.2958  0.3002
 1123TIP3    H224785   2.220   1.517  11.626 -0.9705  0.0065  0.9427
 1124TIP3   OH224786   2.156   1.165   2.855  0.5174  0.3835 -0.4346
 1124TIP3    H124787   2.180   1.106   2.784  3.2135 -2.2638  2.3637
 1124TIP3    H224788   2.227   1.230   2.858  0.7205  0.1479  0.1221
 1125TIP3   OH224789   2.789   3.320   2.396 -0.5653  0.0288  0.4407
 1125TIP3    H124790   2.733   3.254   2.356  0.2200 -0.1324 -0.4090
 1125TIP3    H224791   2.814   3.282   2.480 -0.3467 -0.6380  0.0832
 1126TIP3   OH224792   1.125   2.830  15.397  0.0951  0.2337 -0.0525
 1126TIP3    H124793   1.123   2.735  15.387 -0.3328  0.3371 -1.0271
 1126TIP3    H224794   1.044   2.852  15.444  0.0405  0.1431 -0.1047
 1127TIP3   OH224795   0.873   5.047   0.057  0.3957 -0.6326  0.1583
 1127TIP3    H124796   0.853   5.105  -0.016 -2.4319  0.7813  1.8961
 1127TIP3    H224797   0.965   5.065   0.078  0.1362  1.8184 -0.5776
 1128TIP3   OH224798   0.983   5.381  15.084  0.4050  0.5535 -0.2529
 1128TIP3    H124799   0.936   5.310  15.128  1.1253  0.7857  0.9317
 1128TIP3    H224800   0.940   5.389  14.999 -0.2979 -0.6672 -0.0359
 1129TIP3   OH224801   6.017   5.179  12.836 -0.1441 -0.1419 -0.2961
 1129TIP3    H124802   5.992   5.090  12.860 -0.2960 -0.2924 -0.9830
 1129TIP3    H224803   6.041   5.221  12.919 -1.9161 -0.2380  0.3027
 1130TIP3   OH224804   0.067   4.190  13.514 -0.6862 -0.0897  0.1370
 1130TIP3    H124805   0.133   4.180  13.445 -0.2293  0.5029  0.4760
 1130TIP3    H224806   0.116   4.223  13.589 -0.9488 -1.9301  1.1661
 1131TIP3   OH224807   0.471   4.409   2.714 -0.0219 -0.6636  0.1163
 1131TIP3    H124808   0.461   4.471   2.787  0.8735 -0.8048  0.3734
 1131TIP3    H224809   0.416   4.335   2.738  0.9705 -1.1084  1.1149
 1132TIP3   OH224810   3.443   6.383   2.357  0.2208  0.5765 -0.0096
 1132TIP3    H124811   3.513   6.351   2.413  0.7269 -0.5319 -1.2223
 1132TIP3    H224812   3.471   6.361   2.268 -1.8149 -0.2006 -0.5193
 1133TIP3   OH224813   0.880   5.266  15.865 -0.0289 -0.3361 -0.3847
 1133TIP3    H124814   0.928   5.316  15.931  1.9028  0.7352 -2.4659
 1133TIP3    H224815   0.919   5.179  15.868  0.3439 -0.1704 -0.3827
 1134TIP3   OH224816   1.208   1.363  12.983 -0.1843 -0.1969  0.2280
 1134TIP3    H124817   1.220   1.413  12.902 -2.0058 -0.3384 -0.1594
 1134TIP3    H224818   1.186   1.429  13.049 -1.1839 -0.3147  0.0298
 1135TIP3   OH224819   1.549   5.463  13.869 -0.0301  0.1564  0.3631
 1135TIP3    H124820   1.593   5.543  13.842 -1.0036  0.2107 -1.1555
 1135TIP3    H224821   1.554   5.464  13.965  1.9801  0.8485  0.2940
 1136TIP3   OH224822   6.083   4.723  11.577 -0.2047 -0.1471 -0.0874
 1136TIP3    H124823   6.112   4.772  11.655  1.2068 -1.4032  0.2168
 1136TIP3    H224824   6.011   4.669  11.609  0.3471 -0.6322  0.3655
 1137TIP3   OH224825   4.696   2.418   3.851 -0.0860 -0.1740  0.1664
 1137TIP3    H124826   4.702   2.440   3.944 -0.6999 -0.0839  0.1883
 1137TIP3    H224827   4.723   2.327   3.845  1.5989  0.2846  0.2037
 1138TIP3   OH224828   5.123   1.393  10.399  0.1332  0.1303 -0.4345
 1138TIP3    H124829   5.198   1.333  10.393 -0.0688 -0.0679 -1.0701
 1138TIP3    H224830   5.144   1.464  10.338 -1.0634 -0.9115 -2.1664
 1139TIP3   OH224831   2.621   1.643  16.134 -0.0667 -0.0102 -0.1687
 1139TIP3    H124832   2.539   1.631  16.183  0.3034 -1.2192  0.1811
 1139TIP3    H224833   2.619   1.574  16.068  0.4928  0.2190 -0.4267
 1140TIP3   OH224834   4.334   0.342   4.215  0.1979  0.0729  0.1333
 1140TIP3    H124835   4.265   0.313   4.156 -0.8041  1.8092  0.4150
 1140TIP3    H224836   4.336   0.274   4.283 -0.1806 -0.7643 -0.6559
 1141TIP3   OH224837   5.753   3.518   3.560  0.2464  0.5739 -0.1066
 1141TIP3    H124838   5.839   3.503   3.597 -0.4105  0.2654  1.3733
 1141TIP3    H224839   5.768   3.578   3.487  1.6498  0.8167  0.3592
 1142TIP3   OH224840   3.796   3.618   5.467  0.3942 -0.4115  0.1552
 1142TIP3    H124841   3.860   3.634   5.397  1.2399 -0.9231  0.7896
 1142TIP3    H224842   3.801   3.524   5.482 -0.2090 -0.3906  0.5136
 1143TIP3   OH224843   5.524   1.635  16.298  0.0607  0.2984 -0.0885
 1143TIP3    H124844   5.460   1.575  16.336 -0.2615  1.0192  0.5322
 1143TIP3    H224845   5.472   1.704  16.257  0.4329  0.7769  0.2271
 1144TIP3   OH224846   6.349   0.746  11.203  0.0476  0.2448 -0.7863
 1144TIP3    H124847   6.436   0.780  11.183  0.6009 -1.5985 -1.6514
 1144TIP3    H224848   6.295   0.774  11.129  0.1301  0.5570 -0.7294
 1145TIP3   OH224849   3.594   4.002   1.778  0.2196 -0.0788  0.2232
 1145TIP3    H124850   3.648   4.032   1.852 -0.9441  0.4261  0.8997
 1145TIP3    H224851   3.558   4.082   1.741  0.8008 -0.3302 -0.9276
 1146TIP3   OH224852   2.457   5.496  17.314 -0.3163  0.3606 -0.2510
 1146TIP3    H124853   2.463   5.568  17.252  0.8914 -0.7347 -1.4788
 1146TIP3    H224854   2.397   5.433  17.273 -0.4405  0.1408  0.2489
 1147TIP3   OH224855   1.066   5.607   4.772 -0.0998 -0.2431 -0.6609
 1147TIP3    H124856   0.996   5.649   4.822  0.1058 -0.3259 -0.3066
 1147TIP3    H224857   1.098   5.676   4.714  0.8806  0.3879  0.5842
 1148TIP3   OH224858   0.992   5.316  11.548  0.7041  0.6761  0.4418
 1148TIP3    H124859   1.043   5.323  11.467  0.7537 -1.4274  0.2499
 1148TIP3    H224860   1.046   5.361  11.613  1.3445  1.1517 -0.3908
 1149TIP3   OH224861   0.445   3.180  12.181  0.2692 -0.4753  0.0548
 1149TIP3    H124862   0.494   3.219  12.109  1.0802  2.0384  1.8437
 1149TIP3    H224863   0.509   3.166  12.250 -1.1959  1.8789  2.0710
 1150TIP3   OH224864   5.372   1.109   0.760  0.3158  0.3358  0.6772
 1150TIP3    H124865   5.370   1.168   0.684 -2.3571  1.1281  1.2453
 1150TIP3    H224866   5.415   1.161   0.829  2.5123 -0.2927 -0.1321
 1151TIP3   OH224867   0.924   3.764  14.736 -0.2173 -0.4323  0.0975
 1151TIP3    H124868   0.918   3.677  14.776 -0.1773 -1.5513 -2.1612
 1151TIP3    H224869   1.007   3.799  14.769  0.1325 -1.5619  0.4848
 1152TIP3   OH224870   1.005   5.001   4.717 -0.2521 -0.1254 -0.2550
 1152TIP3    H124871   0.960   5.018   4.635 -0.9492 -0.4673  0.0524
 1152TIP3    H224872   1.010   4.906   4.723  1.6276 -0.1090 -0.8750
 1153TIP3   OH224873   2.222   0.060   2.602 -0.2267  0.0445  0.2686
 1153TIP3    H124874   2.196  -0.032   2.597 -0.6687  0.1606  0.3564
 1153TIP3    H224875   2.139   0.108   2.599 -0.1200  0.3833  1.9025
 1154TIP3   OH224876   5.249   0.284  12.129 -0.7468  0.6042  0.0449
 1154TIP3    H124877   5.255   0.343  12.053 -2.9360  0.5716 -0.2068
 1154TIP3    H224878   5.172   0.230  12.112 -1.2915  0.5761  2.2779
 1155TIP3   OH224879   4.708   1.168  12.437 -0.6463  0.3748  0.1992
 1155TIP3    H124880   4.726   1.258  12.410 -0.9916 -0.2204 -2.2374
 1155TIP3    H224881   4.616   1.168  12.463 -1.2671  0.3524 -1.8280
 1156TIP3   OH224882   5.879   5.597  12.341 -0.2941  0.0285  0.4354
 1156TIP3    H124883   5.924   5.526  12.295  1.8502  1.7947 -0.3543
 1156TIP3    H224884   5.811   5.627  12.280 -1.2222 -1.2770  0.7794
 1157TIP3   OH224885   3.740   4.046  14.136 -0.0210  0.5144 -0.2152
 1157TIP3    H124886   3.701   4.113  14.191 -0.4339 -0.1942  0.3697
 1157TIP3    H224887   3.667   4.013  14.082 -0.1227 -0.3774  0.4415
 1158TIP3   OH224888   2.519   4.565  14.817 -0.3080 -0.6711  0.2866
 1158TIP3    H124889   2.478   4.636  14.865 -0.7963 -0.7330 -0.0325
 1158TIP3    H224890   2.448   4.527  14.765  0.5243  0.4841 -1.8126
 1159TIP3   OH224891   0.775   4.172  13.911 -0.6917  0.6070 -0.0470
 1159TIP3    H124892   0.829   4.134  13.980 -0.9090  1.2069  0.4669
 1159TIP3    H224893   0.703   4.111  13.899  1.1963 -1.3837 -2.3087
 1160TIP3   OH224894   6.522   2.433  12.741  0.5855 -0.2066 -0.0829
 1160TIP3    H124895   6.566   2.354  12.710 -0.1267 -0.7449  0.2509
 1160TIP3    H224896   6.440   2.401  12.779  0.9242  0.5567  1.3374
 1161TIP3   OH224897   2.681   5.392   1.252  0.2377 -0.4172  0.1462
 1161TIP3    H124898   2.589   5.408   1.230  0.7437  0.4023 -1.5469
 1161TIP3    H224899   2.726   5.393   1.167  1.7165 -1.5220  0.8753
 1162TIP3   OH224900   1.197   5.969   2.492 -0.1536 -0.0975 -0.2403
 1162TIP3    H124901   1.212   5.875   2.481 -1.5112 -0.0437 -4.1064
 1162TIP3    H224902   1.272   6.011   2.449 -1.3517  0.4435 -1.9095
 1163TIP3   OH224903   2.839   3.612  14.835 -0.1072  0.2509 -0.1717
 1163TIP3    H124904   2.830   3.525  14.873 -0.0319  0.0254 -0.6661
 1163TIP3    H224905   2.921   3.609  14.785  0.4658  0.9433  0.6963
 1164TIP3   OH224906   4.777   0.706   1.055 -0.1151  0.2153  0.2724
 1164TIP3    H124907   4.764   0.695   1.149  0.2420 -1.3473  0.1688
 1164TIP3    H224908   4.701   0.757   1.026 -1.5522 -1.4078  1.0213
 1165TIP3   OH224909   2.480   6.388   0.851 -0.3379 -0.3157 -0.2027
 1165TIP3    H124910   2.544   6.323   0.879 -1.0860 -0.3756  1.4992
 1165TIP3    H224911   2.450   6.357   0.765 -0.2477 -1.9071  0.3057
 1166TIP3   OH224912   3.616   1.696   1.348 -0.1996 -0.6722 -0.4140
 1166TIP3    H124913   3.542   1.656   1.394  0.3055  0.7604  1.8171
 1166TIP3    H224914   3.693   1.672   1.400  0.5096  0.3955 -0.9140
 1167TIP3   OH224915   1.003   2.091   2.709 -0.3885  0.3307 -0.3590
 1167TIP3    H124916   0.921   2.112   2.753 -0.3306 -1.5861  0.7597
 1167TIP3    H224917   0.995   2.132   2.623 -2.7546 -0.2386 -0.4825
 1168TIP3   OH224918   0.698   2.672   5.671 -0.1229 -0.1008 -0.1810
 1168TIP3    H124919   0.791   2.684   5.688 -0.1906  0.5146 -0.2025
 1168TIP3    H224920   0.667   2.615   5.741  0.6762 -2.0579 -1.3437
 1169TIP3   OH224921   0.618   6.667  12.402  0.0091 -0.5251 -0.6699
 1169TIP3    H124922   0.613   6.575  12.429  0.9009 -0.0060  1.4448
 1169TIP3    H224923   0.669   6.709  12.470 -0.2797  1.5476 -1.6663
 1170TIP3   OH224924   3.695   4.957  14.458  0.4271  0.5074 -0.4521
 1170TIP3    H124925   3.601   4.941  14.466  0.6535 -0.3352  0.6783
 1170TIP3    H224926   3.700   5.037  14.405 -0.9253  0.6633 -0.3987
 1171TIP3   OH224927   0.708   2.663   6.032  0.7784  0.0411 -0.0121
 1171TIP3    H124928   0.653   2.741   6.024  0.3044 -0.4329 -2.2850
 1171TIP3    H224929   0.796   2.697   6.045  0.2992  0.8853  1.1268
 1172TIP3   OH224930   0.462   5.094   0.584  0.4357  0.1452 -0.2600
 1172TIP3    H124931   0.491   5.171   0.536 -0.6047  0.6684 -0.0589
 1172TIP3    H224932   0.475   5.117   0.676 -1.0802  0.5949 -0.1380
 1173TIP3   OH224933   3.956   2.851   4.418 -0.5703 -1.0914 -0.4941
 1173TIP3    H124934   3.873   2.840   4.370 -1.4403  2.4187 -0.0726
 1173TIP3    H224935   4.023   2.824   4.355 -1.8426  0.1498 -2.5297
 1174TIP3   OH224936   0.821   3.374   0.926  0.2181  0.0947 -0.4180
 1174TIP3    H124937   0.803   3.433   0.853 -1.1968 -0.5232 -0.6106
 1174TIP3    H224938   0.752   3.308   0.920  2.8202 -2.7353 -1.3994
 1175TIP3   OH224939   4.391   0.616   4.461 -0.0626  0.2116 -0.1612
 1175TIP3    H124940   4.343   0.669   4.524  1.2814  0.8774  0.3578
 1175TIP3    H224941   4.401   0.530   4.504 -0.6463  0.1098 -0.2199
 1176TIP3   OH224942   6.582   6.213   5.904 -0.3207  0.4363  0.0061
 1176TIP3    H124943   6.510   6.161   5.941 -1.3311  0.9238 -1.2111
 1176TIP3    H224944   6.655   6.199   5.965 -1.1287 -0.8897  0.7226
 1177TIP3   OH224945   4.781   6.603  16.313  0.1811 -0.5563  0.2634
 1177TIP3    H124946   4.808   6.608  16.222  0.1564 -0.5822  0.2555
 1177TIP3    H224947   4.858   6.630  16.363  0.5599 -1.6080  0.2814
 1178TIP3   OH224948   0.861   0.782  11.856 -0.2920 -0.5157  0.6938
 1178TIP3    H124949   0.929   0.846  11.877  0.8275 -1.5050  0.1810
 1178TIP3    H224950   0.839   0.742  11.941  0.5117 -0.8924  0.7399
 1179TIP3   OH224951   6.740   1.752  15.237 -0.3542 -0.2860 -0.9049
 1179TIP3    H124952   6.803   1.795  15.180 -0.5216  3.2243  1.2519
 1179TIP3    H224953   6.654   1.781  15.205 -0.4370  2.2453  1.2481
 1180TIP3   OH224954   6.772   0.659   0.261  0.1964 -0.1570  0.6770
 1180TIP3    H124955   6.768   0.753   0.281  1.2328 -0.4208  2.3525
 1180TIP3    H224956   6.814   0.655   0.175  1.2028  0.9072  1.0851
 1181TIP3   OH224957   2.358   4.939  12.131 -0.1347  0.3148 -0.0359
 1181TIP3    H124958   2.266   4.940  12.103 -0.2953 -0.4476  0.4319
 1181TIP3    H224959   2.395   4.862  12.089  0.4394  0.9023 -0.6367
 1182TIP3   OH224960   3.807   4.451  14.410  0.3484 -0.0965 -0.1309
 1182TIP3    H124961   3.761   4.521  14.363  0.0878  0.5976  1.1328
 1182TIP3    H224962   3.851   4.402  14.340  1.0974  1.7279 -1.0274
 1183TIP3   OH224963   4.874   1.512   2.373  0.2630  0.0961 -0.7524
 1183TIP3    H124964   4.784   1.546   2.369 -0.1738 -1.1103 -3.1681
 1183TIP3    H224965   4.925   1.575   2.321  0.5622  0.1163 -0.4336
 1184TIP3   OH224966   6.658   3.646   3.721  0.3453  0.3341  0.0632
 1184TIP3    H124967   6.736   3.592   3.711 -0.6480 -1.0779 -0.4713
 1184TIP3    H224968   6.666   3.686   3.807  0.9760 -0.9381  0.6113
 1185TIP3   OH224969   1.603   3.560   6.588  0.4563  0.1996  0.2541
 1185TIP3    H124970   1.683   3.538   6.540  0.1759 -1.5102  0.4923
 1185TIP3    H224971   1.627   3.637   6.640  2.3633 -0.9738  1.2629
 1186TIP3   OH224972   4.614   3.933   0.515 -0.0108 -0.0980 -0.0001
 1186TIP3    H124973   4.567   3.860   0.555  0.2880  1.2284  3.0245
 1186TIP3    H224974   4.650   3.982   0.589 -0.0450  3.0423 -1.8771
 1187TIP3   OH224975   6.477   1.542  12.057 -0.3313  0.1325 -0.0902
 1187TIP3    H124976   6.566   1.527  12.024  0.0250 -0.6027  1.1512
 1187TIP3    H224977   6.481   1.629  12.097 -0.0700 -0.0297  0.2454
 1188TIP3   OH224978   5.217   0.573   5.111 -0.3631  0.2867  0.2674
 1188TIP3    H124979   5.281   0.516   5.067  0.0118  1.7228 -1.1550
 1188TIP3    H224980   5.266   0.652   5.132 -1.1735  0.5819  1.1008
 1189TIP3   OH224981   2.622   2.185   1.803 -0.3061  0.3406 -0.1758
 1189TIP3    H124982   2.531   2.167   1.780 -0.3140 -1.2977  0.9688
 1189TIP3    H224983   2.652   2.105   1.845  0.7567  1.8669  2.2038
 1190TIP3   OH224984   1.300   0.368   0.290 -0.1575  0.0355  0.7113
 1190TIP3    H124985   1.214   0.408   0.272  0.7781  1.6440 -0.5458
 1190TIP3    H224986   1.305   0.365   0.385 -1.0264  1.3162  0.8365
 1191TIP3   OH224987   1.935   1.440   5.634  0.3158 -0.1425  0.0705
 1191TIP3    H124988   1.995   1.514   5.626  2.4641 -1.7784 -0.0178
 1191TIP3    H224989   1.968   1.376   5.571 -1.3705 -1.2530  0.2530
 1192TIP3   OH224990   0.940   1.280   3.543 -0.8009  0.0359  0.1219
 1192TIP3    H124991   0.920   1.373   3.536  2.2704  0.7344 -0.9108
 1192TIP3    H224992   0.987   1.260   3.462  0.5812 -1.8496  1.3162
 1193TIP3   OH224993   2.441   2.416   0.111  0.2626  0.4438  0.5590
 1193TIP3    H124994   2.486   2.442   0.192  1.2568 -0.6178  0.3674
 1193TIP3    H224995   2.494   2.346   0.075 -1.3232 -0.5561  0.0683
 1194TIP3   OH224996   0.358   2.004   2.280 -0.1688 -0.2075 -0.6612
 1194TIP3    H124997   0.275   1.958   2.270 -0.5387 -0.1461  1.4747
 1194TIP3    H224998   0.336   2.080   2.335  1.6165 -1.3998  1.8956
 1195TIP3   OH224999   1.001   2.771  13.680  0.0982 -0.0729  0.3108
 1195TIP3    H125000   0.915   2.778  13.638 -0.3025 -0.8077  0.9967
 1195TIP3    H225001   0.989   2.809  13.767  0.1922 -1.0876  0.7859
 1196TIP3   OH225002   3.482   3.740  17.303 -0.0891  0.0886  0.2891
 1196TIP3    H125003   3.411   3.711  17.361 -0.0446 -1.9804 -0.5728
 1196TIP3    H225004   3.558   3.688  17.331 -0.4008 -2.0508 -2.3737
 1197TIP3   OH225005   0.290   4.728  17.265 -0.2907  0.4630  0.1790
 1197TIP3    H125006   0.363   4.758  17.212  0.8019 -0.6542  1.0206
 1197TIP3    H225007   0.286   4.790  17.338  0.7064 -0.2557  0.8602
 1198TIP3   OH225008   1.505   6.248  11.701 -0.3402  0.3208  0.7014
 1198TIP3    H125009   1.463   6.227  11.617 -0.4099  0.4714  0.6999
 1198TIP3    H225010   1.545   6.165  11.728  1.7395  0.7893 -0.6582
 1199TIP3   OH225011   0.893   3.282   4.836 -0.1968 -0.3419 -0.1682
 1199TIP3    H125012   0.799   3.295   4.843 -0.2543 -1.3737  1.2788
 1199TIP3    H225013   0.904   3.189   4.817  0.5605 -0.5467  1.1366
 1200TIP3   OH225014   2.044   4.658  14.215 -0.2777  0.1224 -0.1665
 1200TIP3    H125015   1.985   4.720  14.259 -0.2791  0.1493 -0.2051
 1200TIP3    H225016   2.121   4.710  14.192  0.0275 -0.0541  0.4362
 1201TIP3   OH225017   1.734   2.771  15.964  0.2655 -0.3631 -0.2810
 1201TIP3    H125018   1.683   2.690  15.957 -2.0855  0.8542  1.4142
 1201TIP3    H225019   1.715   2.818  15.882  0.1067 -0.6959 -0.4380
 1202TIP3   OH225020   0.759   4.962  15.357 -0.1407 -0.1568 -0.3738
 1202TIP3    H125021   0.681   4.907  15.355 -0.3693  0.1585 -0.2306
 1202TIP3    H225022   0.794   4.952  15.445 -0.9576  0.9887  0.1021
 1203TIP3   OH225023   1.061   0.432   1.632 -0.6311 -0.3707 -0.2059
 1203TIP3    H125024   1.065   0.422   1.537 -1.4204  1.3852 -0.4734
 1203TIP3    H225025   0.968   0.433   1.652 -0.4654 -0.9563  0.6290
 1204TIP3   OH225026   4.051   2.878  13.318 -0.7737  0.0402  0.4791
 1204TIP3    H125027   3.992   2.840  13.383 -1.2023  1.7759  1.1582
 1204TIP3    H225028   4.020   2.969  13.308 -0.4306 -0.0329 -1.7939
 1205TIP3   OH225029   2.207   4.403   0.664  0.1255 -0.5089 -0.2221
 1205TIP3    H125030   2.291   4.365   0.689 -0.0088 -1.5614 -1.3093
 1205TIP3    H225031   2.192   4.374   0.574 -0.7930  0.7446 -0.5110
 1206TIP3   OH225032   3.160   6.641  13.560  0.8268  0.0756  0.2316
 1206TIP3    H125033   3.234   6.620  13.617  2.7163  1.3128 -1.6385
 1206TIP3    H225034   3.148   6.562  13.507 -0.8836 -1.0468  2.1789
 1207TIP3   OH225035   1.758   6.441  13.846  0.4540  0.0281  0.1233
 1207TIP3    H125036   1.684   6.446  13.785  0.3200  1.8311  0.3735
 1207TIP3    H225037   1.835   6.461  13.792  0.5987 -0.5461  0.1174
 1208TIP3   OH225038   4.736   4.206  10.506 -0.2935 -0.2906 -0.3338
 1208TIP3    H125039   4.817   4.254  10.489 -0.3531 -0.7645 -2.1113
 1208TIP3    H225040   4.761   4.114  10.505 -0.4886 -0.3975  1.3647
 1209TIP3   OH225041   3.978   1.218   4.749  0.1163  0.3218 -0.2897
 1209TIP3    H125042   3.954   1.133   4.786 -1.0897  1.0846  0.7828
 1209TIP3    H225043   3.902   1.244   4.697  1.6411 -0.5775 -3.2215
 1210TIP3   OH225044   0.556   4.406   3.587  0.0462 -0.5975  0.0803
 1210TIP3    H125045   0.642   4.364   3.589  0.5727  0.3007 -1.6804
 1210TIP3    H225046   0.542   4.437   3.677  2.8443  1.6914 -0.1328
 1211TIP3   OH225047   2.491   4.467  15.127 -0.3986  0.2831 -0.4928
 1211TIP3    H125048   2.562   4.412  15.092  1.6757  2.1546  0.5034
 1211TIP3    H225049   2.478   4.435  15.217 -1.1224 -0.3139 -0.8034
 1212TIP3   OH225050   0.982   6.413   0.978  0.1499  0.0466 -0.0299
 1212TIP3    H125051   1.008   6.484   0.921 -0.2042 -0.2462 -0.5662
 1212TIP3    H225052   0.934   6.455   1.049  0.8462  0.4407  0.2113
 1213TIP3   OH225053   4.347   4.740  14.628 -0.5755 -0.2311  0.6472
 1213TIP3    H125054   4.272   4.681  14.617 -0.9687  0.3740  0.0418
 1213TIP3    H225055   4.418   4.682  14.654 -0.4674 -1.3034 -1.7560
 1214TIP3   OH225056   5.117   1.513   6.245  0.0989  0.0068 -0.2457
 1214TIP3    H125057   5.212   1.510   6.229 -0.1367 -2.7350 -1.7927
 1214TIP3    H225058   5.079   1.515   6.157 -1.4020  4.1177  0.2972
 1215TIP3   OH225059   3.602   4.507   0.443 -0.0601  0.2796 -0.1686
 1215TIP3    H125060   3.672   4.513   0.378 -1.2898 -0.2309 -1.5910
 1215TIP3    H225061   3.648   4.510   0.527  1.6323  0.3658 -1.0426
 1216TIP3   OH225062   1.431   3.783   4.981 -0.2263  0.0214 -0.1485
 1216TIP3    H125063   1.346   3.783   4.938 -0.2757 -1.5163 -0.1084
 1216TIP3    H225064   1.425   3.714   5.047  1.8930 -2.2130 -2.0364
 1217TIP3   OH225065   0.991   6.767  13.652  0.2396 -0.2878 -0.2348
 1217TIP3    H125066   1.025   6.777  13.563 -0.7720 -0.9304 -0.7094
 1217TIP3    H225067   0.922   6.701  13.644  0.0814 -0.2948  1.0142
 1218TIP3   OH225068   3.499   0.828   3.053 -0.1956  0.1982 -0.1317
 1218TIP3    H125069   3.519   0.887   3.125 -0.8250 -1.1610  1.2141
 1218TIP3    H225070   3.578   0.827   2.999  0.2034  1.4096  0.4095
 1219TIP3   OH225071   3.657   2.290   4.493 -0.1701 -0.1168  0.3562
 1219TIP3    H125072   3.725   2.322   4.434  0.8815 -0.1698  1.5014
 1219TIP3    H225073   3.577   2.291   4.440  1.0205 -1.8804 -1.6410
 1220TIP3   OH225074   2.846   3.130  13.714  0.4762  0.0396 -0.0981
 1220TIP3    H125075   2.813   3.213  13.682  2.0836  0.4137 -0.8945
 1220TIP3    H225076   2.907   3.100  13.646  1.0422 -1.0640  0.8465
 1221TIP3   OH225077   0.277   3.853   3.655  0.0434 -0.0663  0.1694
 1221TIP3    H125078   0.233   3.915   3.597  1.2936  1.4817  0.7805
 1221TIP3    H225079   0.331   3.799   3.597  0.9817  1.2049 -0.1978
 1222TIP3   OH225080   5.630   0.206  16.823 -0.2151 -0.0724 -0.1336
 1222TIP3    H125081   5.703   0.243  16.775 -0.0908  0.7349  0.6634
 1222TIP3    H225082   5.670   0.148  16.889 -0.2230  1.0519  0.8920
 1223TIP3   OH225083   4.968   6.387  14.169 -0.6248  0.6125  0.1524
 1223TIP3    H125084   4.899   6.355  14.110 -1.3802  1.4302  0.5661
 1223TIP3    H225085   4.953   6.339  14.251  0.4398 -0.5419 -0.3002
 1224TIP3   OH225086   4.171   3.281   5.429 -0.1927  0.2693 -0.2099
 1224TIP3    H125087   4.170   3.227   5.350 -1.4409 -1.4372  0.8964
 1224TIP3    H225088   4.138   3.366   5.400  0.3459 -0.0083 -1.7119
 1225TIP3   OH225089   4.783   2.267  11.364  0.4948  0.5207 -0.2002
 1225TIP3    H125090   4.719   2.325  11.324  0.3409  1.5626  1.4630
 1225TIP3    H225091   4.868   2.303  11.338  0.4184  0.0868 -1.0839
 1226TIP3   OH225092   6.369   5.166  15.061 -0.4297 -0.5487 -0.2090
 1226TIP3    H125093   6.425   5.153  14.985  1.1107  1.5505  0.4690
 1226TIP3    H225094   6.426   5.145  15.136 -0.7974  0.7443  0.4593
 1227TIP3   OH225095   5.086   2.204  10.643  0.7623 -0.3574 -0.2654
 1227TIP3    H125096   5.090   2.238  10.553  1.5701  2.0759  0.6190
 1227TIP3    H225097   5.105   2.280  10.698 -3.8422 -0.6817  2.2440
 1228TIP3   OH225098   0.438   5.272   3.637 -0.2798  0.1482 -0.0455
 1228TIP3    H125099   0.398   5.296   3.720  0.6275 -0.3106  0.5392
 1228TIP3    H225100   0.365   5.269   3.575 -0.6932  2.6433  0.2157
 1229TIP3   OH225101   2.146   2.900   3.525  0.3119 -0.5950  0.1261
 1229TIP3    H125102   2.076   2.836   3.537 -1.4217  0.7682 -1.9194
 1229TIP3    H225103   2.204   2.861   3.460 -0.9609 -0.0204 -1.4275
 1230TIP3   OH225104   5.381   1.574  11.601  0.6776 -0.2072  0.8368
 1230TIP3    H125105   5.408   1.485  11.577 -0.8597 -0.1099 -1.5984
 1230TIP3    H225106   5.413   1.629  11.530 -0.7695  0.7627  0.9016
 1231TIP3   OH225107   1.714   6.374   0.904  0.2372  0.5676  0.0081
 1231TIP3    H125108   1.634   6.421   0.927 -0.1093 -0.9745  2.1801
 1231TIP3    H225109   1.686   6.284   0.886  1.3332  0.3138 -0.5763
 1232TIP3   OH225110   1.418   1.040  11.988 -0.4686 -0.0111 -0.3853
 1232TIP3    H125111   1.392   0.976  11.921 -1.3089 -0.3059  0.2074
 1232TIP3    H225112   1.356   1.112  11.978  1.6810  1.7119 -2.3958
 1233TIP3   OH225113   5.002   5.761  16.924  0.1924  0.6810  0.4493
 1233TIP3    H125114   5.069   5.810  16.971  0.1381 -0.4566  1.7640
 1233TIP3    H225115   4.957   5.710  16.991  0.0050 -0.8853 -0.7941
 1234TIP3   OH225116   2.069   4.913  16.838  0.1683  0.2134  0.1726
 1234TIP3    H125117   2.121   4.940  16.763 -0.0111  1.1665  0.3728
 1234TIP3    H225118   2.004   4.983  16.848  1.6310  1.3201  2.6378
 1235TIP3   OH225119   6.747   5.699   4.505  0.0977 -0.1670 -0.3086
 1235TIP3    H125120   6.780   5.644   4.576 -1.0874 -0.1418  0.2818
 1235TIP3    H225121   6.742   5.640   4.430  0.4320 -0.4322 -0.1297
 1236TIP3   OH225122   1.660   6.698  14.887 -0.6184 -0.1306 -0.7413
 1236TIP3    H125123   1.609   6.732  14.961 -0.6427  0.5007 -1.0457
 1236TIP3    H225124   1.687   6.610  14.915  0.3112  0.5054  0.4842
 1237TIP3   OH225125   4.552   0.155   1.325 -0.0263  0.1805 -0.4899
 1237TIP3    H125126   4.553   0.169   1.231  1.3502 -2.3168 -0.9262
 1237TIP3    H225127   4.468   0.113   1.343  0.2173 -0.4631 -0.8259
 1238TIP3   OH225128   4.392   2.959  13.028  0.0860  0.2269 -0.4254
 1238TIP3    H125129   4.377   3.027  12.962 -0.1623  0.3368 -0.2584
 1238TIP3    H225130   4.416   3.007  13.107 -0.6167  0.1529 -0.1623
 1239TIP3   OH225131   2.247   6.442   0.409 -0.1316  0.1434  0.1756
 1239TIP3    H125132   2.201   6.418   0.329  0.3149 -0.5383  0.1227
 1239TIP3    H225133   2.293   6.523   0.387  0.0820 -0.1037 -0.2874
 1240TIP3   OH225134   5.958   0.788   1.380 -0.0862 -0.1812  0.2586
 1240TIP3    H125135   6.007   0.868   1.399  0.2878 -0.3158 -0.1225
 1240TIP3    H225136   5.936   0.753   1.466 -0.5220  0.4900  0.4301
 1241TIP3   OH225137   4.923   3.334   0.939  0.2645 -0.4045  0.7729
 1241TIP3    H125138   4.873   3.318   0.859 -0.0389  0.6259  0.7463
 1241TIP3    H225139   4.991   3.267   0.938  0.3146 -0.3588 -0.3854
 1242TIP3   OH225140   4.547   4.921   3.460  0.3678  0.6762 -0.0295
 1242TIP3    H125141   4.616   4.902   3.396 -1.1373 -0.7510 -1.3002
 1242TIP3    H225142   4.467   4.927   3.408 -0.7219  0.7722  1.5902
 1243TIP3   OH225143   4.819   1.447  16.965 -0.3074 -0.1861  0.8359
 1243TIP3    H125144   4.873   1.515  17.007 -0.6419  0.7797 -0.2372
 1243TIP3    H225145   4.882   1.394  16.916 -0.2058  0.2749  0.4623
 1244TIP3   OH225146   1.038   6.686  14.545  0.5189 -0.0082  0.1838
 1244TIP3    H125147   1.030   6.611  14.604  2.5800 -0.8750 -0.5339
 1244TIP3    H225148   0.951   6.725  14.544 -0.2512 -1.5306  1.7079
 1245TIP3   OH225149   3.638   0.581  12.691 -0.3080  0.9036  0.0847
 1245TIP3    H125150   3.636   0.675  12.710  2.7232  0.6931  2.0172
 1245TIP3    H225151   3.635   0.539  12.777  0.1181 -0.6997 -0.6454
 1246TIP3   OH225152   2.602   3.257  10.747  0.7027  0.0397  1.2042
 1246TIP3    H125153   2.613   3.351  10.734  1.5315 -0.0380  1.3043
 1246TIP3    H225154   2.577   3.224  10.660  1.4420  0.2062  0.9244
 1247TIP3   OH225155   3.657   5.522  16.786  0.0814  0.2454 -0.3428
 1247TIP3    H125156   3.733   5.464  16.798 -0.3963 -0.6619 -1.5593
 1247TIP3    H225157   3.589   5.465  16.750 -0.5592  1.4597 -1.0951
 1248TIP3   OH225158   6.716   5.200  11.021  0.2539  0.3445 -0.1908
 1248TIP3    H125159   6.792   5.201  10.963  1.2654 -0.9790  1.0377
 1248TIP3    H225160   6.646   5.163  10.967  0.6258  0.9646 -1.1353
 1249TIP3   OH225161   4.716   4.620  12.737 -0.5293  0.5357  0.2581
 1249TIP3    H125162   4.776   4.694  12.738  0.9250 -0.5880  0.2474
 1249TIP3    H225163   4.717   4.587  12.827  1.6063 -1.5266 -0.4157
 1250TIP3   OH225164   1.565   2.226  16.011 -0.4029 -0.4874 -0.4454
 1250TIP3    H125165   1.480   2.248  15.972 -0.9974  0.2622  1.1965
 1250TIP3    H225166   1.598   2.154  15.957 -1.9866 -0.6552 -1.2443
 1251TIP3   OH225167   5.084   3.746   5.187  0.1004  0.0882 -0.6956
 1251TIP3    H125168   5.123   3.667   5.225 -0.7492  0.5322  1.2313
 1251TIP3    H225169   4.990   3.727   5.185 -0.3483  1.6567  1.5637
 1252TIP3   OH225170   0.194   6.449  14.545  0.5929 -0.2255  0.3628
 1252TIP3    H125171   0.232   6.393  14.478  2.6268  1.3269  0.1411
 1252TIP3    H225172   0.141   6.512  14.497 -0.4495 -0.9477  0.5075
 1253TIP3   OH225173   6.109   2.843   3.978 -0.0882  0.4570 -0.0255
 1253TIP3    H125174   6.072   2.840   3.890  0.0587  1.2035 -0.1189
 1253TIP3    H225175   6.137   2.934   3.990  0.5327  0.2055  0.5294
 1254TIP3   OH225176   1.718   0.886   5.436  0.3013 -0.3052 -0.0459
 1254TIP3    H125177   1.691   0.799   5.408  1.0094 -0.7132  0.5074
 1254TIP3    H225178   1.790   0.909   5.377  1.5135 -0.9889  1.1188
 1255TIP3   OH225179   3.461   3.091  11.299 -0.3990  0.1653 -0.1214
 1255TIP3    H125180   3.392   3.139  11.345 -1.8437 -1.7854 -0.1205
 1255TIP3    H225181   3.472   3.139  11.217 -1.6101  0.6596 -0.0284
 1256TIP3   OH225182   6.092   6.625  15.380  0.5492  0.6305 -0.1266
 1256TIP3    H125183   6.038   6.618  15.301  1.1575  1.0525 -0.5953
 1256TIP3    H225184   6.125   6.536  15.395 -1.2623  0.0988  0.8994
 1257TIP3   OH225185   5.861   4.929  16.471  0.2061 -0.2317 -0.1522
 1257TIP3    H125186   5.946   4.945  16.429  0.4727 -2.3788 -0.5529
 1257TIP3    H225187   5.856   4.834  16.478 -1.6423 -0.0828  1.0115
 1258TIP3   OH225188   6.316   2.987   2.192  0.2025 -0.1364  0.3879
 1258TIP3    H125189   6.301   2.911   2.247 -1.6370 -0.0407  0.0609
 1258TIP3    H225190   6.258   3.055   2.227 -0.1965  0.2579 -0.9685
 1259TIP3   OH225191   0.852   6.358   1.890  0.3648 -0.1404  0.1228
 1259TIP3    H125192   0.942   6.329   1.876  0.4493  0.9795 -1.9414
 1259TIP3    H225193   0.799   6.302   1.833 -0.0238  0.5226 -0.1721
 1260TIP3   OH225194   2.361   5.776  11.528  0.6723 -0.0724 -0.0453
 1260TIP3    H125195   2.371   5.826  11.448 -0.3006 -0.0870 -0.1816
 1260TIP3    H225196   2.450   5.749  11.551  1.0047  0.3195 -0.8629
 1261TIP3   OH225197   2.084   2.309   3.204  0.0363  0.4894  0.3747
 1261TIP3    H125198   2.132   2.226   3.200  0.1942  0.5959  0.0391
 1261TIP3    H225199   1.993   2.286   3.185  0.0414  0.3594  0.5100
 1262TIP3   OH225200   3.791   5.701  11.392 -0.1074  0.3322  0.2863
 1262TIP3    H125201   3.876   5.656  11.390 -0.3652 -0.1681 -1.0664
 1262TIP3    H225202   3.738   5.650  11.453  0.1781 -0.1202  0.1631
 1263TIP3   OH225203   3.788   5.730   4.842  0.4603 -0.1266 -0.1667
 1263TIP3    H125204   3.789   5.676   4.921 -0.9283  0.1396  0.0606
 1263TIP3    H225205   3.700   5.720   4.807 -0.5034  3.3141  0.8672
 1264TIP3   OH225206   5.489   5.213   6.237 -0.3419  0.0470  0.4725
 1264TIP3    H125207   5.581   5.208   6.210 -1.0891  0.8305 -2.5552
 1264TIP3    H225208   5.448   5.137   6.197 -1.3655  0.7282  0.1803
 1265TIP3   OH225209   3.245   5.706  16.172 -0.3015 -0.3535  0.0346
 1265TIP3    H125210   3.171   5.723  16.230 -1.9251 -2.6411 -1.2036
 1265TIP3    H225211   3.250   5.784  16.116 -3.0569 -0.8803 -1.0882
 1266TIP3   OH225212   0.082   0.161   0.485  0.2585  0.8656 -1.1649
 1266TIP3    H125213   0.098   0.242   0.437  0.8887  0.8847 -0.9288
 1266TIP3    H225214   0.097   0.184   0.577  1.7074  0.1776 -1.2072
 1267TIP3   OH225215   3.679   1.293  16.883  0.8902 -0.1870  0.4592
 1267TIP3    H125216   3.595   1.319  16.919  0.7750 -0.6919  0.5633
 1267TIP3    H225217   3.711   1.224  16.942  1.5525  0.2569  0.6359
 1268TIP3   OH225218   1.762   5.856  14.051 -0.3136  0.1199  0.3492
 1268TIP3    H125219   1.758   5.805  13.971  0.5764 -0.9407  0.9476
 1268TIP3    H225220   1.822   5.807  14.108  0.0695  1.4940  1.1928
 1269TIP3   OH225221   4.493   6.323   1.628 -0.2204  0.1429  0.4282
 1269TIP3    H125222   4.538   6.340   1.710 -1.7162  2.1867  0.9201
 1269TIP3    H225223   4.400   6.318   1.652 -0.5417 -0.9296 -0.9222
 1270TIP3   OH225224   0.454   4.109  15.588  0.6248 -0.1213 -0.2309
 1270TIP3    H125225   0.402   4.058  15.527 -0.2819  1.3765 -0.7661
 1270TIP3    H225226   0.487   4.045  15.651 -1.4484 -1.1955 -0.1692
 1271TIP3   OH225227   6.366   5.683   2.313  0.1015  0.0046 -0.3336
 1271TIP3    H125228   6.272   5.701   2.308  0.2920  0.8170 -1.2346
 1271TIP3    H225229   6.384   5.675   2.407 -0.9595 -0.7203 -0.1761
 1272TIP3   OH225230   6.703   5.809   6.224  0.0978  0.3204  0.4730
 1272TIP3    H125231   6.637   5.791   6.291  0.3903 -0.2797  0.6016
 1272TIP3    H225232   6.779   5.838   6.274  0.2001  0.2158  0.3769
 1273TIP3   OH225233   0.745   0.833  13.199  0.4229  0.4362  0.0616
 1273TIP3    H125234   0.750   0.804  13.291  0.7603 -1.1412 -0.4268
 1273TIP3    H225235   0.770   0.925  13.202 -1.3863  0.9321  1.7954
 1274TIP3   OH225236   4.771   2.536  11.540 -0.2804 -0.6706 -0.3115
 1274TIP3    H125237   4.830   2.584  11.482  0.8813 -0.3379  1.0750
 1274TIP3    H225238   4.688   2.531  11.492  0.7874 -0.9598 -2.2309
 1275TIP3   OH225239   4.412   1.673  12.525 -0.6172  0.6807 -0.3175
 1275TIP3    H125240   4.402   1.686  12.430  0.4135  0.4716 -0.4730
 1275TIP3    H225241   4.461   1.591  12.533  1.9798  2.1539  0.2397
 1276TIP3   OH225242   0.474   5.862   1.583  0.1054 -0.2175 -0.1251
 1276TIP3    H125243   0.521   5.870   1.666 -0.4221  0.1462  0.1442
 1276TIP3    H225244   0.541   5.833   1.520  0.7821  0.6723  0.1611
 1277TIP3   OH225245   5.561   4.683   5.330 -0.2186  0.0173 -0.2837
 1277TIP3    H125246   5.533   4.771   5.354 -1.4013 -0.0105 -1.4485
 1277TIP3    H225247   5.649   4.675   5.367 -0.3442  1.4422  0.3912
 1278TIP3   OH225248   2.281   3.111   1.120  0.0520  0.0911  0.5154
 1278TIP3    H125249   2.337   3.080   1.049  0.3156  0.1304  0.7056
 1278TIP3    H225250   2.336   3.108   1.198  0.7720  2.9807  0.2237
 1279TIP3   OH225251   4.306   6.146   1.973  0.4315  0.2225  0.6464
 1279TIP3    H125252   4.249   6.073   1.950  3.3130 -1.4270 -1.9625
 1279TIP3    H225253   4.342   6.123   2.058  0.3225 -0.7629  0.4377
 1280TIP3   OH225254   2.332   3.717  15.215  0.0204 -0.0591  0.6358
 1280TIP3    H125255   2.370   3.805  15.203  1.0021 -0.4872  0.5376
 1280TIP3    H225256   2.349   3.695  15.306  1.5317 -0.9368  0.1733
 1281TIP3   OH225257   2.865   0.502   4.259  1.0167 -0.5681  0.1248
 1281TIP3    H125258   2.843   0.463   4.343  1.4119 -1.4120 -0.1567
 1281TIP3    H225259   2.812   0.455   4.195 -0.5556  1.1877  0.0485
 1282TIP3   OH225260   3.110   4.221   4.881  0.0333  0.4518 -0.0892
 1282TIP3    H125261   3.171   4.293   4.898  2.1574 -1.2258 -0.1453
 1282TIP3    H225262   3.164   4.154   4.839 -1.8919 -1.1181 -0.1879
 1283TIP3   OH225263   6.686   1.752  11.549 -0.0203  0.2265 -0.0449
 1283TIP3    H125264   6.625   1.824  11.532  0.7926  0.9630  0.0684
 1283TIP3    H225265   6.726   1.773  11.633  0.3439 -0.2820 -0.0839
 1284TIP3   OH225266   6.135   0.743   4.388  0.5144  0.0363  0.4694
 1284TIP3    H125267   6.197   0.808   4.358  1.4620 -0.4444  1.3275
 1284TIP3    H225268   6.185   0.661   4.392 -0.1797 -0.3780  1.0930
 1285TIP3   OH225269   3.651   3.425  16.644  0.0713  0.2720 -0.0838
 1285TIP3    H125270   3.602   3.411  16.563  0.1827 -0.9715  0.0533
 1285TIP3    H225271   3.595   3.485  16.695 -0.8649 -0.3755 -0.3266
 1286TIP3   OH225272   1.160   0.095   5.525  0.1555  0.2256 -0.3222
 1286TIP3    H125273   1.239   0.147   5.538  0.4991 -0.3684 -0.0365
 1286TIP3    H225274   1.149   0.092   5.430  2.2353 -2.2814 -0.5896
 1287TIP3   OH225275   1.537   4.656   4.326  0.0477 -0.3184 -0.3707
 1287TIP3    H125276   1.497   4.731   4.368  1.8127  1.3797 -1.5344
 1287TIP3    H225277   1.486   4.643   4.246  0.8150  0.8765 -1.0917
 1288TIP3   OH225278   5.909   4.682   0.108  0.6684 -0.3271  0.3103
 1288TIP3    H125279   5.985   4.720   0.064  1.9951 -0.5330  2.3389
 1288TIP3    H225280   5.874   4.754   0.162 -0.6863 -0.2021 -0.6674
 1289TIP3   OH225281   0.115   0.530   1.208 -0.3488  0.1090 -0.1465
 1289TIP3    H125282   0.153   0.618   1.206  1.6183 -0.6762 -0.5466
 1289TIP3    H225283   0.124   0.502   1.299  0.5738 -0.2548 -0.3308
 1290TIP3   OH225284   4.879   4.201  16.119  0.1836 -0.0912 -0.3215
 1290TIP3    H125285   4.794   4.238  16.142  0.5924  0.7403 -0.0744
 1290TIP3    H225286   4.926   4.197  16.202  0.1448 -1.2033 -0.3486
 1291TIP3   OH225287   4.289   3.967  16.301 -0.1023 -0.0332  0.2821
 1291TIP3    H125288   4.377   3.980  16.265  0.3367  0.0816  1.3633
 1291TIP3    H225289   4.301   3.971  16.396 -1.2796 -0.0144  0.4438
 1292TIP3   OH225290   2.348   2.321   1.626  0.2250 -0.5043 -0.0860
 1292TIP3    H125291   2.356   2.344   1.718  1.2369  0.7923 -0.4627
 1292TIP3    H225292   2.417   2.371   1.583 -0.9664 -0.1655 -1.7071
 1293TIP3   OH225293   4.106   4.738   0.329 -1.0641  0.2212  0.2429
 1293TIP3    H125294   4.096   4.771   0.419  0.2726 -0.3508  0.6199
 1293TIP3    H225295   4.199   4.719   0.321 -1.5785 -2.3494 -0.3502
 1294TIP3   OH225296   2.900   1.112   2.088  0.4036  0.4997 -0.0665
 1294TIP3    H125297   2.907   1.203   2.117  5.1713  0.8315 -1.4695
 1294TIP3    H225298   2.910   1.116   1.993  4.4272 -1.5093  0.0892
 1295TIP3   OH225299   4.004   4.599  15.572 -0.3162  0.1279 -0.0199
 1295TIP3    H125300   3.960   4.627  15.492 -1.9605  2.8588  1.6719
 1295TIP3    H225301   4.051   4.676  15.602  0.8976 -1.0512  1.2622
 1296TIP3   OH225302   3.899   2.416   5.295 -0.1642 -0.6162  0.1599
 1296TIP3    H125303   3.854   2.339   5.330 -1.1907 -0.5731 -0.9925
 1296TIP3    H225304   3.955   2.381   5.225  1.9014 -0.7126  1.7921
 1297TIP3   OH225305   5.379   6.477   0.684  0.0027 -0.4413 -0.1023
 1297TIP3    H125306   5.338   6.394   0.706  0.4901 -0.6630 -0.0316
 1297TIP3    H225307   5.308   6.529   0.645 -0.1349 -1.1559 -0.8356
 1298TIP3   OH225308   2.987   5.779   4.569 -0.5190  0.7372 -0.2606
 1298TIP3    H125309   3.034   5.800   4.650 -0.2632  0.4938 -0.3457
 1298TIP3    H225310   3.019   5.692   4.545 -2.7455 -0.5606  1.0046
 1299TIP3   OH225311   4.608   6.495  13.879 -0.2263 -0.0373  0.1149
 1299TIP3    H125312   4.644   6.527  13.797  0.5118 -0.2037  0.3648
 1299TIP3    H225313   4.585   6.573  13.928 -1.2545  0.0545 -0.5000
 1300TIP3   OH225314   0.468   3.335  16.482  0.0484 -0.4778 -0.0381
 1300TIP3    H125315   0.509   3.391  16.416 -0.6787  1.9936  1.4626
 1300TIP3    H225316   0.542   3.299  16.531  0.5796  1.2809  0.5587
 1301TIP3   OH225317   0.117   1.424   1.826  0.1440 -0.2112 -0.0763
 1301TIP3    H125318   0.074   1.506   1.800 -1.3154 -1.1046 -0.5942
 1301TIP3    H225319   0.148   1.387   1.744  0.2905 -0.4612  0.0919
 1302TIP3   OH225320   0.933   1.409  13.839 -0.0371  0.4109  0.2010
 1302TIP3    H125321   0.980   1.476  13.888 -0.5983  1.1539 -0.2492
 1302TIP3    H225322   0.886   1.359  13.906 -0.5144  1.1875  0.4583
 1303TIP3   OH225323   4.246   3.402   4.145 -0.0945  0.5010 -0.0501
 1303TIP3    H125324   4.319   3.458   4.118 -1.2624  1.6718 -0.9085
 1303TIP3    H225325   4.232   3.425   4.237  1.3709 -0.6274  0.4885
 1304TIP3   OH225326   1.723   4.597  12.150 -0.2704 -0.0165  0.3388
 1304TIP3    H125327   1.700   4.519  12.099 -1.1899  0.7397 -0.4472
 1304TIP3    H225328   1.791   4.567  12.210  3.0358 -0.3577 -3.1876
 1305TIP3   OH225329   4.066   3.608  11.946  0.4009 -0.3825  0.3829
 1305TIP3    H125330   4.064   3.514  11.927 -1.3325 -0.5104  0.9715
 1305TIP3    H225331   3.990   3.622  12.003  1.2523  1.2033  1.1888
 1306TIP3   OH225332   0.951   5.306  16.697  0.4420 -0.2610 -0.0090
 1306TIP3    H125333   0.946   5.239  16.629 -0.0882  1.0672 -1.3461
 1306TIP3    H225334   0.986   5.383  16.652 -0.9007  0.9643  0.9555
 1307TIP3   OH225335   6.207   0.191  13.281 -0.4006 -0.0696  0.4113
 1307TIP3    H125336   6.264   0.138  13.336 -0.9547 -0.7741  0.3257
 1307TIP3    H225337   6.170   0.130  13.218 -0.3856  0.5819 -0.2484
 1308TIP3   OH225338   1.103   3.507  13.312  0.2637 -0.3526  0.2763
 1308TIP3    H125339   1.062   3.566  13.374  1.7412  1.3687 -0.2917
 1308TIP3    H225340   1.038   3.496  13.242 -0.1547  0.3640  0.5472
 1309TIP3   OH225341   1.517   1.632   5.432 -0.6713  0.1671 -0.4682
 1309TIP3    H125342   1.447   1.666   5.376 -0.7884  0.2937 -0.2456
 1309TIP3    H225343   1.473   1.603   5.511 -0.2516  2.3440  0.6551
 1310TIP3   OH225344   0.734   1.770  15.664 -0.6189  0.0469  0.7063
 1310TIP3    H125345   0.740   1.860  15.633  0.3979  0.2392  1.4156
 1310TIP3    H225346   0.654   1.768  15.717 -0.4247  0.6500  1.0308
 1311TIP3   OH225347   1.565   1.082   6.051  0.6790 -0.0524 -0.7218
 1311TIP3    H125348   1.658   1.072   6.074  0.3741 -1.0668  0.1614
 1311TIP3    H225349   1.518   1.058   6.131 -0.3480  0.8036 -1.0449
 1312TIP3   OH225350   1.342   0.258   1.941  0.6570  0.6686 -0.0631
 1312TIP3    H125351   1.350   0.223   2.030  2.2303  1.3645  0.1142
 1312TIP3    H225352   1.317   0.183   1.887  1.3995 -0.1548  0.7055
 1313TIP3   OH225353   2.565   5.228   0.403  0.5204  0.6415  0.3871
 1313TIP3    H125354   2.494   5.173   0.436 -0.0011  1.0382 -0.0506
 1313TIP3    H225355   2.521   5.308   0.373  1.0466  0.5375 -0.6941
 1314TIP3   OH225356   5.972   0.912   4.750  0.1511  0.7660 -0.4767
 1314TIP3    H125357   5.937   0.856   4.681  0.6504  0.0167 -0.1419
 1314TIP3    H225358   5.904   0.976   4.767 -0.3461  0.3887 -1.0276
 1315TIP3   OH225359   2.850   6.415   5.795 -0.3119 -0.3007  0.3967
 1315TIP3    H125360   2.945   6.404   5.784 -0.3145 -2.5807  2.0430
 1315TIP3    H225361   2.839   6.435   5.887 -1.3715  1.7522 -0.1275
 1316TIP3   OH225362   2.985   4.817   4.901 -0.2649  0.2857  0.2234
 1316TIP3    H125363   3.053   4.749   4.905  0.8523  1.3519  0.0871
 1316TIP3    H225364   2.938   4.799   4.820 -0.1815 -0.5037  0.3408
 1317TIP3   OH225365   1.108   5.657  15.019  0.2536  0.1408 -0.3004
 1317TIP3    H125366   1.057   5.585  14.983  0.2174  0.7448 -1.5161
 1317TIP3    H225367   1.199   5.633  15.003  0.5711 -1.7256  3.3511
 1318TIP3   OH225368   4.023   6.506  15.112 -1.0114 -0.4200 -0.8560
 1318TIP3    H125369   4.037   6.412  15.128  1.7608  0.3159  1.8087
 1318TIP3    H225370   3.934   6.522  15.143 -2.4646 -2.4606 -3.4816
 1319TIP3   OH225371   2.922   1.994   5.337 -0.1075  0.3695  0.3194
 1319TIP3    H125372   2.978   1.917   5.327  0.4612  0.8720 -0.4542
 1319TIP3    H225373   2.935   2.021   5.428 -1.2659 -1.1547  0.9845
 1320TIP3   OH225374   2.741   4.466   2.884  0.3916 -0.1275  0.8426
 1320TIP3    H125375   2.784   4.533   2.830  2.8432 -0.4190  2.2622
 1320TIP3    H225376   2.667   4.437   2.831 -0.8729  3.7010  0.1627
 1321TIP3   OH225377   3.352   3.973   1.141  0.0949 -0.6054  0.5174
 1321TIP3    H125378   3.409   4.031   1.091 -0.3055  1.0863  1.9117
 1321TIP3    H225379   3.311   3.917   1.076  1.9587 -0.6427 -0.6923
 1322TIP3   OH225380   0.519   0.528  13.311  0.1080  0.2499  0.7765
 1322TIP3    H125381   0.509   0.515  13.405  1.4727  1.3706  1.1053
 1322TIP3    H225382   0.569   0.452  13.280 -1.0998 -0.5700  0.7712
 1323TIP3   OH225383   4.912   1.549   4.705 -0.0603 -0.0603 -0.2295
 1323TIP3    H125384   4.986   1.517   4.654 -0.9044  0.6694 -2.0362
 1323TIP3    H225385   4.951   1.599   4.777  1.1991 -0.4607 -0.6141
 1324TIP3   OH225386   2.956   4.199  16.376  0.1590 -0.0526 -0.0831
 1324TIP3    H125387   3.000   4.219  16.459 -0.3163 -0.1140  0.1868
 1324TIP3    H225388   2.949   4.283  16.331 -0.8660  0.2388  0.5747
 1325TIP3   OH225389   0.688   1.479   0.049 -0.2658 -0.0657  0.1478
 1325TIP3    H125390   0.613   1.512   0.097 -0.1897  0.3957 -0.0446
 1325TIP3    H225391   0.664   1.389   0.026 -1.8397  0.7951 -2.0474
 1326TIP3   OH225392   1.509   0.255   2.331  0.2762 -0.4893 -0.7431
 1326TIP3    H125393   1.554   0.311   2.268 -0.1688  0.2683 -0.4078
 1326TIP3    H225394   1.485   0.314   2.402  1.1562 -1.4083  0.3603
 1327TIP3   OH225395   1.331   4.736   0.258  0.2497  0.1314 -0.4930
 1327TIP3    H125396   1.402   4.715   0.319  1.5986  0.9838 -1.7180
 1327TIP3    H225397   1.329   4.662   0.198 -1.0427 -0.6816  0.4957
 1328TIP3   OH225398   3.566   3.024  15.226  0.0623 -0.2447 -0.3185
 1328TIP3    H125399   3.585   2.930  15.226  1.0098 -0.0573  0.0511
 1328TIP3    H225400   3.651   3.066  15.222 -0.3287  0.6109  0.1954
 1329TIP3   OH225401   0.701   3.331  11.422 -0.0705  0.0331  0.0477
 1329TIP3    H125402   0.669   3.270  11.356 -1.0561  1.6012 -1.0127
 1329TIP3    H225403   0.626   3.349  11.478  0.0373  0.6593  0.0074
 1330TIP3   OH225404   2.648   1.195   0.643  0.6753 -0.1693 -0.4473
 1330TIP3    H125405   2.724   1.252   0.634  0.6198  0.0801  0.5568
 1330TIP3    H225406   2.681   1.120   0.693  0.0260  0.4523  0.9666
 1331TIP3   OH225407   5.819   1.934   4.385  0.0204 -0.2900 -0.1097
 1331TIP3    H125408   5.825   1.946   4.290  0.8494 -0.3230 -0.0679
 1331TIP3    H225409   5.778   2.014   4.417 -2.3911 -1.1934 -0.7182
 1332TIP3   OH225410   6.283   0.746   1.128 -0.2210 -0.7204 -0.5354
 1332TIP3    H125411   6.332   0.714   1.052 -1.1055  1.0819 -1.9359
 1332TIP3    H225412   6.198   0.702   1.122 -0.6262  0.1372 -1.1444
 1333TIP3   OH225413   5.950   4.952  15.243 -0.2712  0.3092 -0.0515
 1333TIP3    H125414   6.000   5.033  15.236  0.3934 -0.1375 -0.5729
 1333TIP3    H225415   5.859   4.979  15.228  0.0956  0.7802 -1.6837
 1334TIP3   OH225416   2.574   0.227  12.334  0.2902 -0.0891 -0.0429
 1334TIP3    H125417   2.597   0.262  12.248 -1.8443 -1.3800 -1.2279
 1334TIP3    H225418   2.657   0.197  12.371  1.3916  1.4004 -1.2035
 1335TIP3   OH225419   4.592   4.857  11.582  0.2588  0.4556  0.0621
 1335TIP3    H125420   4.502   4.866  11.614  0.2666  1.0758 -0.0889
 1335TIP3    H225421   4.617   4.945  11.554 -0.9108 -0.4329 -4.7670
 1336TIP3   OH225422   0.614   6.129   0.527  1.1865 -0.2547  0.2496
 1336TIP3    H125423   0.622   6.122   0.432 -0.0396 -1.5701  0.2010
 1336TIP3    H225424   0.584   6.219   0.542  0.6703 -0.2607 -0.6804
 1337TIP3   OH225425   1.162   4.161   5.839 -0.1812  0.4848  0.0067
 1337TIP3    H125426   1.097   4.107   5.882  0.6689 -0.2567  0.4042
 1337TIP3    H225427   1.138   4.251   5.862  0.1331  0.1301  1.9052
 1338TIP3   OH225428   0.766   4.063   0.726  0.1167 -0.7844 -0.2911
 1338TIP3    H125429   0.732   4.061   0.816  2.0676 -0.2529  0.5180
 1338TIP3    H225430   0.858   4.087   0.736  0.3608 -0.6183 -2.4638
 1339TIP3   OH225431   1.746   1.443  15.532  0.1981  0.2457 -0.3914
 1339TIP3    H125432   1.808   1.470  15.464  0.7357 -1.2626 -0.5226
 1339TIP3    H225433   1.689   1.379  15.490  0.2369 -0.3520  0.4455
 1340TIP3   OH225434   4.819   1.414  10.960  0.2835 -0.3347  0.2123
 1340TIP3    H125435   4.749   1.387  10.901  0.0188  0.2018  0.2760
 1340TIP3    H225436   4.829   1.508  10.943 -0.5044  0.0505  1.7641
 1341TIP3   OH225437   5.168   1.287  14.455 -0.7541  0.2650 -0.1856
 1341TIP3    H125438   5.122   1.210  14.490 -2.7640  1.5157  0.1126
 1341TIP3    H225439   5.232   1.251  14.394  2.0557 -2.0040  3.6198
 1342TIP3   OH225440   4.218   2.516  14.164  0.2251  0.3117  0.3916
 1342TIP3    H125441   4.229   2.610  14.157 -0.7498  0.4246  0.1807
 1342TIP3    H225442   4.167   2.492  14.086  0.8005 -0.4498  0.2313
 1343TIP3   OH225443   1.005   1.956  14.585 -0.4763 -0.5555 -0.5172
 1343TIP3    H125444   1.084   1.990  14.544  0.4603 -1.6265  0.3626
 1343TIP3    H225445   1.017   1.972  14.679 -0.4626 -2.3387 -0.1787
 1344TIP3   OH225446   1.407   1.606  17.327  0.2069  0.1743  0.0192
 1344TIP3    H125447   1.426   1.514  17.344  0.8259 -0.2311 -2.4082
 1344TIP3    H225448   1.383   1.642  17.412 -1.1594 -2.4780  0.8854
 1345TIP3   OH225449   6.116   5.816   2.197 -0.0053 -0.1190  0.3049
 1345TIP3    H125450   6.042   5.875   2.181  0.3593  0.6629  1.3550
 1345TIP3    H225451   6.112   5.752   2.126 -1.7648 -0.1707  0.4117
 1346TIP3   OH225452   6.383   5.657  14.706 -0.0068 -0.9193  0.3081
 1346TIP3    H125453   6.391   5.715  14.782  2.4775 -1.0947  0.2457
 1346TIP3    H225454   6.362   5.571  14.743 -2.1491 -0.3753  0.5010
 1347TIP3   OH225455   1.800   3.972   0.422  0.2359 -0.0445 -0.0255
 1347TIP3    H125456   1.717   3.942   0.458  0.9159 -1.4091  0.4334
 1347TIP3    H225457   1.835   4.031   0.488  0.1843 -0.3772  0.2974
 1348TIP3   OH225458   0.693   4.309  16.528 -0.1795  0.2402 -0.4440
 1348TIP3    H125459   0.632   4.304  16.601  0.3510  1.9215  0.1655
 1348TIP3    H225460   0.638   4.308  16.450 -0.8098 -0.6480 -0.0001
 1349TIP3   OH225461   5.980   5.879  11.055  0.2115 -0.7980 -0.3707
 1349TIP3    H125462   5.981   5.959  11.003 -1.6689 -1.0514 -0.8616
 1349TIP3    H225463   6.023   5.904  11.137 -0.6464  0.8498 -0.3612
 1350TIP3   OH225464   2.373   3.744   3.610 -0.5421 -0.1854  0.2622
 1350TIP3    H125465   2.366   3.694   3.528 -0.6951 -0.3420  0.3705
 1350TIP3    H225466   2.410   3.828   3.583  0.8538 -0.7702  0.2415
 1351TIP3   OH225467   3.962   0.434  14.403 -0.0884 -0.5676  0.0548
 1351TIP3    H125468   3.998   0.383  14.330  0.1216  1.6528 -1.4804
 1351TIP3    H225469   4.036   0.486  14.435 -0.4226 -0.7788  1.2245
 1352TIP3   OH225470   2.919   2.208   1.106  0.4478  0.1073  0.4283
 1352TIP3    H125471   2.898   2.273   1.174  0.1975  0.1193  0.3417
 1352TIP3    H225472   2.834   2.174   1.080  0.6172 -0.6882  0.8999
 1353TIP3   OH225473   4.582   2.801  12.721 -0.0647 -0.7632 -0.0873
 1353TIP3    H125474   4.585   2.711  12.753 -1.1880 -0.1139  2.0623
 1353TIP3    H225475   4.669   2.836  12.740  0.1421 -1.1677 -0.2615
 1354TIP3   OH225476   6.694   1.461   6.418 -0.0795  0.4883  0.1630
 1354TIP3    H125477   6.747   1.385   6.441  0.3235  0.8567  0.4838
 1354TIP3    H225478   6.676   1.451   6.324  0.1908  0.1340  0.1480
 1355TIP3   OH225479   3.249   3.930   3.286 -0.7173 -0.3328 -0.3617
 1355TIP3    H125480   3.247   4.020   3.253 -1.2593 -0.1176  0.2419
 1355TIP3    H225481   3.207   3.879   3.217  0.2898 -0.2465 -1.0528
 1356TIP3   OH225482   3.845   6.389   2.390  0.5619 -0.0094  0.0952
 1356TIP3    H125483   3.900   6.310   2.392  1.4773  0.5721 -0.8842
 1356TIP3    H225484   3.879   6.444   2.461 -1.0657 -1.0834  1.7919
 1357TIP3   OH225485   1.665   1.349  16.974 -0.0492  0.0448  0.0308
 1357TIP3    H125486   1.599   1.290  17.009 -0.4051 -0.0842 -0.8378
 1357TIP3    H225487   1.667   1.422  17.036  0.4519 -0.8849  1.1561
 1358TIP3   OH225488   6.416   6.124  14.428 -0.0200  0.0296 -0.1059
 1358TIP3    H125489   6.352   6.134  14.358  2.6347  1.7386 -2.5411
 1358TIP3    H225490   6.435   6.213  14.457  0.2649 -0.5257  1.5459
 1359TIP3   OH225491   1.683   5.680   0.887 -0.4637 -0.3767 -0.1761
 1359TIP3    H125492   1.756   5.741   0.900 -1.5900  0.8185  0.6931
 1359TIP3    H225493   1.628   5.722   0.821  0.4845 -2.1093 -2.1817
 1360TIP3   OH225494   5.858   5.152  11.712 -0.5398 -0.7872  0.3526
 1360TIP3    H125495   5.824   5.107  11.790  0.3980 -1.3366  0.4618
 1360TIP3    H225496   5.861   5.245  11.737  0.0609 -0.9974  1.1049
 1361TIP3   OH225497   4.546   3.032   5.587 -0.1962  0.5360  0.0117
 1361TIP3    H125498   4.582   2.949   5.621 -3.1409 -0.9852 -0.2038
 1361TIP3    H225499   4.516   3.078   5.665 -0.6862  0.2878 -0.0283
 1362TIP3   OH225500   5.573   3.781  14.259 -0.2037  0.1756  0.4215
 1362TIP3    H125501   5.507   3.837  14.220  1.2197  1.1270 -0.7368
 1362TIP3    H225502   5.636   3.765  14.189  0.1584 -1.7758  1.1060
 1363TIP3   OH225503   6.317   4.237   0.001  0.0691 -0.0412  0.7836
 1363TIP3    H125504   6.317   4.228  -0.095 -1.3754 -0.8976  0.8316
 1363TIP3    H225505   6.393   4.292   0.020  0.5457 -0.0868 -0.8318
 1364TIP3   OH225506   0.361   1.279   3.882 -0.1319  0.2204 -0.1968
 1364TIP3    H125507   0.317   1.296   3.966  1.0126  1.1888  0.2333
 1364TIP3    H225508   0.325   1.195   3.853  0.6580 -0.9960  2.0810
 1365TIP3   OH225509   6.450   3.402  13.035  0.1265 -0.3651  1.0142
 1365TIP3    H125510   6.460   3.491  13.067 -1.3991  1.0350 -2.0237
 1365TIP3    H225511   6.359   3.379  13.054  0.1608 -0.7907  0.6839
 1366TIP3   OH225512   0.667   3.372   2.891  0.1998  0.1751 -0.2972
 1366TIP3    H125513   0.708   3.416   2.965  0.2107 -2.1798  1.2032
 1366TIP3    H225514   0.706   3.285   2.890 -1.3672 -0.5789 -1.7426
 1367TIP3   OH225515   3.564   4.006  14.688  0.2788 -0.2248  0.0440
 1367TIP3    H125516   3.594   4.089  14.724  1.2008  0.4748 -2.1372
 1367TIP3    H225517   3.644   3.961  14.661 -0.3463  0.0620 -2.5626
 1368TIP3   OH225518   5.464   3.888   5.682  0.7662  0.3211 -0.7645
 1368TIP3    H125519   5.498   3.972   5.714  1.0164  0.0373 -0.2759
 1368TIP3    H225520   5.437   3.841   5.761 -0.9794  0.6163 -1.1492
 1369TIP3   OH225521   1.166   3.248  10.792  0.2793  0.3864 -0.0212
 1369TIP3    H125522   1.085   3.294  10.770 -1.4116 -1.4571  1.8093
 1369TIP3    H225523   1.206   3.302  10.860  0.0855  0.8475 -0.2708
 1370TIP3   OH225524   0.241   0.748   2.465 -0.3865  0.3955  0.0776
 1370TIP3    H125525   0.241   0.837   2.430 -1.0388  1.0580  1.6391
 1370TIP3    H225526   0.198   0.695   2.398 -2.2824  1.7395  0.1485
 1371TIP3   OH225527   4.450   2.904  15.522  0.3467 -0.7994 -0.3313
 1371TIP3    H125528   4.436   2.891  15.428  0.2566 -0.1090 -0.4200
 1371TIP3    H225529   4.543   2.923  15.529  0.1469  0.2424 -0.4164
 1372TIP3   OH225530   5.980   1.490   4.250 -0.4860 -0.1902  0.0213
 1372TIP3    H125531   6.047   1.496   4.319 -1.1497 -0.3337  0.7016
 1372TIP3    H225532   5.906   1.446   4.293 -1.4987  1.0865 -0.3242
 1373TIP3   OH225533   4.741   0.362   5.105  0.1068  0.5598  0.5781
 1373TIP3    H125534   4.705   0.322   5.184  0.0185  0.2274  0.3680
 1373TIP3    H225535   4.818   0.309   5.083  0.6727  1.2032  0.9656
 1374TIP3   OH225536   0.622   4.597   1.058 -0.7512  0.4190 -0.2872
 1374TIP3    H125537   0.532   4.628   1.066 -1.9764 -2.3150 -2.2849
 1374TIP3    H225538   0.656   4.641   0.980 -0.6226  0.7741 -0.0364
 1375TIP3   OH225539   1.495   4.625  12.561  0.6922  0.4073  0.1343
 1375TIP3    H125540   1.431   4.555  12.551  1.2552 -0.2245  0.8195
 1375TIP3    H225541   1.528   4.641  12.472  0.1376  0.2085 -0.1061
 1376TIP3   OH225542   1.309   0.815   0.729  0.4089  0.3897 -0.4499
 1376TIP3    H125543   1.392   0.795   0.773  0.2090  0.5260 -0.0047
 1376TIP3    H225544   1.322   0.903   0.694 -0.2534  1.2770  1.4011
 1377TIP3   OH225545   5.353   3.545  13.449  0.3213 -0.4980 -0.5307
 1377TIP3    H125546   5.313   3.632  13.452  1.2711  0.0800 -2.4884
 1377TIP3    H225547   5.291   3.488  13.494 -0.3534  1.1731  0.7346
 1378TIP3   OH225548   1.525   4.645  17.095  0.5059  0.0470  0.0366
 1378TIP3    H125549   1.569   4.586  17.034 -1.6731 -0.2683 -1.3346
 1378TIP3    H225550   1.566   4.730  17.079  1.1091 -0.3656 -0.6880
 1379TIP3   OH225551   2.333   3.584  13.072 -0.1059  0.3371  0.6385
 1379TIP3    H125552   2.319   3.496  13.108  0.8266 -0.1259 -0.0738
 1379TIP3    H225553   2.405   3.620  13.125 -0.2761  0.5479  0.7261
 1380TIP3   OH225554   2.987   5.604  14.763 -0.6375 -0.0402  0.6425
 1380TIP3    H125555   3.027   5.656  14.833 -0.7059 -0.0396  0.6806
 1380TIP3    H225556   3.057   5.594  14.698 -0.6049  0.0482  0.6627
 1381TIP3   OH225557   6.447   4.636   5.109  0.0733  0.2983  0.0382
 1381TIP3    H125558   6.386   4.597   5.172  2.5996 -3.0795  0.6665
 1381TIP3    H225559   6.430   4.590   5.027 -1.9331  3.4006 -1.5048
 1382TIP3   OH225560   0.623   3.238   1.356  0.3476  0.3203  0.0742
 1382TIP3    H125561   0.719   3.245   1.351  0.4176 -0.5692  0.0001
 1382TIP3    H225562   0.600   3.283   1.438  0.8936  0.0217  0.4003
 1383TIP3   OH225563   0.149   0.128  13.964  0.0286  0.7327  0.6495
 1383TIP3    H125564   0.226   0.071  13.968 -1.7766 -1.9626 -0.0137
 1383TIP3    H225565   0.131   0.137  13.870 -0.7512  0.9112  0.8119
 1384TIP3   OH225566   2.077   6.158  14.811 -0.5195 -0.6443  0.0643
 1384TIP3    H125567   2.061   6.234  14.867 -0.7695 -0.8983  0.3378
 1384TIP3    H225568   2.041   6.183  14.726  0.7511  0.1361 -0.2708
 1385TIP3   OH225569   4.378   2.587   5.623 -0.2560  0.5403 -0.2475
 1385TIP3    H125570   4.336   2.520   5.676  0.5546  0.9821  0.9897
 1385TIP3    H225571   4.329   2.586   5.541 -0.3860 -1.4414 -0.2112
 1386TIP3   OH225572   5.511   1.963  16.721  0.5294 -0.6307 -0.0159
 1386TIP3    H125573   5.435   1.916  16.687 -0.9270 -0.3416  2.5891
 1386TIP3    H225574   5.535   1.916  16.800  1.9791  0.3461  0.1660
 1387TIP3   OH225575   3.845   5.660  10.922  0.5051 -0.1598  0.5228
 1387TIP3    H125576   3.799   5.585  10.961  0.9335 -0.6346  0.1339
 1387TIP3    H225577   3.934   5.653  10.956  0.0886  1.3070  2.0403
 1388TIP3   OH225578   0.520   2.948  16.418  0.1834 -0.2947  0.1095
 1388TIP3    H125579   0.435   2.979  16.386  0.9216  1.0360 -0.6450
 1388TIP3    H225580   0.533   2.994  16.501  0.6935  0.4410 -0.3692
 1389TIP3   OH225581   6.041   2.474  13.386  0.5547  0.0844 -0.2599
 1389TIP3    H125582   6.111   2.429  13.340  0.0490 -2.5170  1.2938
 1389TIP3    H225583   5.961   2.447  13.341  0.0726 -2.3359  1.8061
 1390TIP3   OH225584   4.687   2.730   2.242  0.4608  0.2159  0.5835
 1390TIP3    H125585   4.624   2.691   2.181  1.2824  0.3107 -0.3601
 1390TIP3    H225586   4.636   2.749   2.320 -1.1610  2.0664 -0.8077
 1391TIP3   OH225587   4.504   1.456   2.006 -0.4563  0.0613 -0.3066
 1391TIP3    H125588   4.575   1.420   1.952 -0.0495  0.3033  0.0595
 1391TIP3    H225589   4.546   1.481   2.088 -1.3804 -1.8738  0.8117
 1392TIP3   OH225590   2.679   2.671  14.177  0.5107  0.2855 -0.3596
 1392TIP3    H125591   2.588   2.680  14.148  0.1248 -1.5217  0.1290
 1392TIP3    H225592   2.680   2.708  14.265 -0.1763 -1.1341  0.2760
 1393TIP3   OH225593   0.519   2.063   0.522  0.0317  0.0613 -0.6800
 1393TIP3    H125594   0.507   2.088   0.430 -0.1455  1.6979 -0.2479
 1393TIP3    H225595   0.462   2.123   0.571  1.4393  0.3978  0.6224
 1394TIP3   OH225596   6.439   4.374  15.016  0.1380  0.1297 -0.2527
 1394TIP3    H125597   6.408   4.286  14.998  1.0113  0.0327 -1.4098
 1394TIP3    H225598   6.532   4.363  15.039  0.3620  0.7759 -0.8182
 1395TIP3   OH225599   0.990   3.241   0.442  0.0284 -0.0759  0.3305
 1395TIP3    H125600   1.074   3.248   0.486  0.3460 -1.5680  0.0428
 1395TIP3    H225601   0.966   3.149   0.452 -0.5813 -0.1305 -1.3257
 1396TIP3   OH225602   6.468   3.635  14.778 -0.7122 -0.1417 -0.5631
 1396TIP3    H125603   6.490   3.584  14.856  0.0692 -0.2932 -0.8778
 1396TIP3    H225604   6.384   3.675  14.799 -1.5758 -1.9206 -0.4934
 1397TIP3   OH225605   6.507   2.032  12.265 -0.2703  0.1146  0.0255
 1397TIP3    H125606   6.480   2.077  12.186  0.6389 -1.2827 -1.1220
 1397TIP3    H225607   6.559   2.097  12.313 -0.5433  0.8710 -0.6817
 1398TIP3   OH225608   3.246   1.017   6.017 -0.0833  0.2911 -0.1247
 1398TIP3    H125609   3.263   1.111   6.023  1.5566  0.1222 -1.4473
 1398TIP3    H225610   3.327   0.975   6.046  0.2496 -0.6380 -2.1638
 1399TIP3   OH225611   3.787   4.974  17.282  0.0042  0.5137 -0.0052
 1399TIP3    H125612   3.859   4.942  17.336 -0.1200  1.4800  0.7438
 1399TIP3    H225613   3.710   4.969  17.338  0.1699  3.2281  0.5922
 1400TIP3   OH225614   6.228   5.851  15.647 -0.4965  0.4648  0.4915
 1400TIP3    H125615   6.177   5.771  15.631  0.5750 -0.0770 -0.3810
 1400TIP3    H225616   6.292   5.826  15.714 -0.4922  0.7349  0.5884
 1401TIP3   OH225617   4.351   5.409  17.220  0.3128 -0.3615 -0.4049
 1401TIP3    H125618   4.442   5.414  17.250  0.6908  0.0030 -1.5484
 1401TIP3    H225619   4.313   5.338  17.271  0.8841  0.2910  0.9791
 1402TIP3   OH225620   2.169   4.323  16.561 -0.0510  0.4811 -0.6018
 1402TIP3    H125621   2.175   4.375  16.641  1.7382  0.0187 -0.3937
 1402TIP3    H225622   2.193   4.384  16.491 -0.4689  0.5860 -0.6543
 1403TIP3   OH225623   3.744   2.354   0.450 -0.3336 -0.0684  0.4485
 1403TIP3    H125624   3.716   2.331   0.538  0.4218 -0.0380  0.7008
 1403TIP3    H225625   3.662   2.362   0.400 -0.7796  0.2655  1.2229
 1404TIP3   OH225626   1.957   6.124  12.227 -0.6136  0.0023  0.1314
 1404TIP3    H125627   1.915   6.170  12.300  0.6752 -0.5259  1.2641
 1404TIP3    H225628   1.886   6.075  12.186 -1.5499  1.0863  0.4128
 1405TIP3   OH225629   3.688   3.846   4.829  0.4515  0.1938 -0.2420
 1405TIP3    H125630   3.663   3.936   4.847  1.5436  0.4278  0.2056
 1405TIP3    H225631   3.608   3.804   4.798  0.1883  1.6140 -1.5865
 1406TIP3   OH225632   4.822   5.955  11.881  0.9866 -0.1725  0.0972
 1406TIP3    H125633   4.761   6.027  11.868  0.7930 -0.5348 -1.1950
 1406TIP3    H225634   4.857   5.938  11.793  1.9445 -0.8404  0.5932
 1407TIP3   OH225635   0.342   0.350   5.306 -0.1363 -0.0743 -0.8227
 1407TIP3    H125636   0.370   0.435   5.341 -1.0494  0.5860 -1.6185
 1407TIP3    H225637   0.330   0.366   5.212  1.9008 -1.6902 -1.4292
 1408TIP3   OH225638   3.982   0.950   3.658  0.6633 -0.1161  0.6857
 1408TIP3    H125639   3.917   0.883   3.682  0.7780 -0.2220  0.7024
 1408TIP3    H225640   4.057   0.932   3.716  0.5343  0.2871  0.9807
 1409TIP3   OH225641   0.516   3.816   1.766  0.2239  0.2591 -0.3559
 1409TIP3    H125642   0.556   3.730   1.776  0.3334  0.1573 -1.5013
 1409TIP3    H225643   0.427   3.798   1.737 -0.1753  0.5163  0.6793
 1410TIP3   OH225644   1.832   5.493  16.629  0.2354  0.3197  0.0507
 1410TIP3    H125645   1.797   5.581  16.642 -0.0192  0.0226  1.5504
 1410TIP3    H225646   1.759   5.435  16.651  0.4228 -0.2776 -0.8450
 1411TIP3   OH225647   0.749   4.183  12.425 -0.4916  0.2390 -0.0611
 1411TIP3    H125648   0.783   4.149  12.507 -3.2099  0.3449  1.2165
 1411TIP3    H225649   0.797   4.136  12.357  0.5736 -1.1451  1.5977
 1412TIP3   OH225650   4.960   3.300  16.747  0.2047 -0.4788  1.2087
 1412TIP3    H125651   4.970   3.235  16.817  0.6066  0.3756  1.9609
 1412TIP3    H225652   4.937   3.381  16.792 -1.0732 -0.2545  0.2152
 1413TIP3   OH225653   1.178   3.497   0.595  0.0071  0.0338  0.4628
 1413TIP3    H125654   1.092   3.507   0.636  0.6309 -0.1056  1.8618
 1413TIP3    H225655   1.199   3.404   0.605  0.9285  0.3279  1.4383
 1414TIP3   OH225656   5.716   4.028  11.153 -0.8255 -0.4594  0.0348
 1414TIP3    H125657   5.656   4.015  11.079  0.6340 -0.6155 -1.1872
 1414TIP3    H225658   5.715   4.122  11.169  0.1852 -0.1754 -1.4132
 1415TIP3   OH225659   6.741   3.640  14.976 -0.3589  0.7861 -0.2768
 1415TIP3    H125660   6.695   3.705  14.923  0.2385  0.4596 -1.2294
 1415TIP3    H225661   6.726   3.667  15.067 -1.1415  1.5396 -0.6211
 1416TIP3   OH225662   3.937   1.079   4.024 -0.0989  0.5307  0.0905
 1416TIP3    H125663   3.955   0.987   4.007  0.9561  0.9359 -1.2683
 1416TIP3    H225664   3.842   1.087   4.019 -0.1247 -0.2901 -0.9695
 1417TIP3   OH225665   1.654   2.418  11.167  0.0519 -0.1430  0.1257
 1417TIP3    H125666   1.596   2.354  11.125  1.0188 -0.8008 -0.2387
 1417TIP3    H225667   1.632   2.502  11.126  1.6550 -0.8975 -2.5456
 1418TIP3   OH225668   3.415   1.295   4.222  0.3306 -0.4824  0.3126
 1418TIP3    H125669   3.476   1.240   4.173  1.1581  2.6229 -2.5199
 1418TIP3    H225670   3.351   1.323   4.158 -0.6663  0.9946  1.8621
 1419TIP3   OH225671   0.371   2.514   4.401 -0.0792 -0.0838 -0.4684
 1419TIP3    H125672   0.287   2.470   4.415 -0.6368  0.2828 -2.3321
 1419TIP3    H225673   0.387   2.562   4.482 -2.4042  0.9865 -0.5780
 1420TIP3   OH225674   6.557   0.953   2.276 -0.3422  0.3430  0.1597
 1420TIP3    H125675   6.541   1.043   2.247 -3.5931 -0.2126 -0.2069
 1420TIP3    H225676   6.505   0.945   2.357  1.3135 -0.7388  1.1744
 1421TIP3   OH225677   3.500   3.886  11.597 -0.1274 -0.4182  0.1186
 1421TIP3    H125678   3.543   3.948  11.539 -0.7937 -1.9211 -2.1023
 1421TIP3    H225679   3.566   3.867  11.664  1.0926  0.5405 -0.7601
 1422TIP3   OH225680   2.673   3.604   1.657  0.4379 -0.1295  0.3303
 1422TIP3    H125681   2.735   3.555   1.710  1.3910  1.2921  0.5853
 1422TIP3    H225682   2.589   3.559   1.669  1.1390 -1.2739  1.0644
 1423TIP3   OH225683   1.472   2.913   1.289 -0.1545  0.1390 -0.4526
 1423TIP3    H125684   1.454   2.843   1.226 -0.8846  1.0267 -1.2672
 1423TIP3    H225685   1.498   2.988   1.234  0.5202  0.5318  0.3890
 1424TIP3   OH225686   2.145   4.756  11.831 -0.1354  0.3591 -0.3179
 1424TIP3    H125687   2.153   4.687  11.897 -0.5248  0.8094  0.2102
 1424TIP3    H225688   2.062   4.800  11.852  0.8647  2.0197  0.3739
 1425TIP3   OH225689   0.841   1.851   2.983  0.2395  0.8724 -0.1817
 1425TIP3    H125690   0.793   1.768   2.982 -0.6782  1.3915  0.3252
 1425TIP3    H225691   0.885   1.854   2.898  0.7660 -0.4065  0.0270
 1426TIP3   OH225692   6.444   2.383  16.977 -0.8691 -0.4935 -0.2649
 1426TIP3    H125693   6.478   2.430  16.900 -1.4623 -1.4597 -1.1507
 1426TIP3    H225694   6.369   2.435  17.005 -0.3233  0.1632  0.0146
 1427TIP3   OH225695   4.313   3.584   2.929 -0.3892  0.8650  0.5099
 1427TIP3    H125696   4.249   3.536   2.981 -1.7613  0.3298 -1.5508
 1427TIP3    H225697   4.383   3.521   2.912 -1.8735 -0.3355 -1.6331
 1428TIP3   OH225698   1.363   1.125  15.178 -0.1960 -0.4867  0.2447
 1428TIP3    H125699   1.365   1.156  15.268  0.9608  0.7295 -0.1627
 1428TIP3    H225700   1.274   1.140  15.148 -0.5320 -0.7172  1.1233
 1429TIP3   OH225701   4.418   6.046  15.528  0.4095 -0.2982 -0.1093
 1429TIP3    H125702   4.377   6.000  15.601  0.4042 -2.5152 -1.4045
 1429TIP3    H225703   4.493   5.991  15.504  0.3083  0.2610 -1.8619
 1430TIP3   OH225704   2.593   5.686  12.875  0.0820 -0.2145 -0.4095
 1430TIP3    H125705   2.639   5.603  12.881  0.2444 -0.1516 -0.7755
 1430TIP3    H225706   2.648   5.740  12.818 -1.1108 -0.6000 -1.9838
 1431TIP3   OH225707   6.052   2.725   5.857 -0.0905  0.5046 -0.4394
 1431TIP3    H125708   6.055   2.809   5.904  1.1065  0.4857 -0.4654
 1431TIP3    H225709   6.141   2.711   5.827 -0.4336 -0.4449 -1.0527
 1432TIP3   OH225710   4.438   5.321  11.260  0.0177 -0.5622  0.2131
 1432TIP3    H125711   4.527   5.329  11.294  0.2736  0.6210 -0.6908
 1432TIP3    H225712   4.448   5.281  11.174 -0.4462 -1.4858  0.5654
 1433TIP3   OH225713   0.646   1.006   3.801 -0.6151 -0.0794 -0.8832
 1433TIP3    H125714   0.625   1.025   3.893  0.0553 -2.2578 -0.2104
 1433TIP3    H225715   0.576   0.948   3.772  0.5597 -1.6061 -0.8380
 1434TIP3   OH225716   3.237   2.048  12.604  0.5218 -0.0073 -0.0354
 1434TIP3    H125717   3.277   1.972  12.561 -3.4522 -0.8468 -2.8013
 1434TIP3    H225718   3.208   2.104  12.532  0.0486  2.3520  1.8597
 1435TIP3   OH225719   2.689   3.918   3.937 -0.0683 -0.1043 -0.0686
 1435TIP3    H125720   2.770   3.944   3.982 -0.5415  0.4103  0.5010
 1435TIP3    H225721   2.707   3.829   3.905  0.7101 -0.0082  0.0857
 1436TIP3   OH225722   3.761   5.548  12.573 -0.6668 -0.4803 -0.0010
 1436TIP3    H125723   3.783   5.638  12.595  1.1364 -0.9050  0.1660
 1436TIP3    H225724   3.678   5.532  12.616 -1.0396  1.1074 -0.0729
 1437TIP3   OH225725   3.154   4.767  11.664  0.2575  0.2734  0.4613
 1437TIP3    H125726   3.237   4.734  11.631  1.0098  1.2688  1.3221
 1437TIP3    H225727   3.114   4.692  11.708  1.5866  0.2758  1.7241
 1438TIP3   OH225728   4.116   2.278  12.839  0.2754 -0.5016  0.0742
 1438TIP3    H125729   4.108   2.342  12.910 -1.0446 -0.1415 -0.3760
 1438TIP3    H225730   4.146   2.198  12.882  3.0247  0.6361  0.5108
 1439TIP3   OH225731   0.570   5.023  16.907 -0.4297  0.8120  0.8126
 1439TIP3    H125732   0.592   4.953  16.846 -0.5399 -0.5448  2.2371
 1439TIP3    H225733   0.639   5.088  16.896 -0.7821  0.9160 -1.1432
 1440TIP3   OH225734   3.033   1.065  11.952 -0.2264  0.4388 -0.3277
 1440TIP3    H125735   2.996   1.075  11.864 -2.2521  0.7990  0.5069
 1440TIP3    H225736   3.090   0.988  11.946 -0.9351 -0.0101 -1.7574
 1441TIP3   OH225737   6.503   1.221  10.666 -0.0174 -0.4132  0.0986
 1441TIP3    H125738   6.470   1.281  10.733 -0.3891 -1.6274  1.0400
 1441TIP3    H225739   6.598   1.225  10.676 -0.0655 -0.4753  0.6023
 1442TIP3   OH225740   1.060   1.104   4.276 -0.1182 -0.3451  0.6361
 1442TIP3    H125741   0.971   1.085   4.305  0.4314 -1.0353  1.9473
 1442TIP3    H225742   1.116   1.055   4.336  1.1507 -0.0970 -0.2921
 1443TIP3   OH225743   1.233   4.837  12.725  0.6565  0.3585  0.1940
 1443TIP3    H125744   1.140   4.846  12.704  0.6428  0.9352  0.4962
 1443TIP3    H225745   1.278   4.894  12.662  0.6827  1.3466  1.0809
 1444TIP3   OH225746   0.284   3.391  14.059  0.3807 -0.1460 -0.3565
 1444TIP3    H125747   0.363   3.380  14.006  0.6393  0.9970 -0.2349
 1444TIP3    H225748   0.309   3.362  14.146  1.0559  1.3250 -0.0314
 1445TIP3   OH225749   6.029   2.800  16.376  0.0692 -0.3207  0.3831
 1445TIP3    H125750   5.995   2.816  16.288 -0.0398  1.2583  0.6973
 1445TIP3    H225751   5.982   2.861  16.432  1.2731 -0.1897  1.2869
 1446TIP3   OH225752   1.448   2.661  14.341  0.2669  0.8543 -0.2849
 1446TIP3    H125753   1.538   2.679  14.368  0.6012  0.4961 -1.1084
 1446TIP3    H225754   1.424   2.737  14.288  0.4653  0.4773 -0.9301
 1447TIP3   OH225755   4.112   5.022  15.416 -0.1699 -1.0937 -0.0156
 1447TIP3    H125756   4.168   4.945  15.428  0.1880 -0.7708  0.4673
 1447TIP3    H225757   4.106   5.033  15.322  2.2038 -0.0002 -0.1083
 1448TIP3   OH225758   0.947   5.936   5.513  0.2653  0.0987  0.5383
 1448TIP3    H125759   0.898   5.952   5.433  0.3466  0.5792  0.5825
 1448TIP3    H225760   0.893   5.973   5.583 -0.7598 -2.0422  0.9682
 1449TIP3   OH225761   4.378   2.335  12.118  0.1383 -0.0130  0.0533
 1449TIP3    H125762   4.352   2.425  12.142  0.1729 -0.1921  0.8039
 1449TIP3    H225763   4.309   2.280  12.157  1.8862 -0.5528  2.6405
 1450TIP3   OH225764   3.421   3.246  16.207  0.2643 -0.4472 -0.0314
 1450TIP3    H125765   3.366   3.182  16.252  0.4450 -1.6158 -1.4001
 1450TIP3    H225766   3.404   3.232  16.114  2.0807 -0.1256 -0.4601
 1451TIP3   OH225767   0.033   4.718   5.277  0.1877 -0.0289 -0.3601
 1451TIP3    H125768  -0.004   4.806   5.277 -0.9309 -0.4711 -0.2589
 1451TIP3    H225769   0.119   4.727   5.318 -0.2040  0.9053  0.2825
 1452TIP3   OH225770   3.240   2.915  12.760  0.0383 -0.1205  0.5715
 1452TIP3    H125771   3.163   2.956  12.722 -0.4362 -3.1096 -2.1413
 1452TIP3    H225772   3.314   2.964  12.724 -0.5199 -0.9655 -1.8980
 1453TIP3   OH225773   2.583   1.894   5.345  0.3222 -0.2213  0.1977
 1453TIP3    H125774   2.617   1.896   5.434  0.6450  4.3958  0.1991
 1453TIP3    H225775   2.488   1.892   5.356  0.3655 -0.0529  0.6290
 1454TIP3   OH225776   3.373   6.298   3.849 -0.6290 -0.0978 -0.7696
 1454TIP3    H125777   3.287   6.325   3.816 -2.3345 -2.6001  1.1555
 1454TIP3    H225778   3.372   6.323   3.941  1.0325  0.4321 -0.8665
 1455TIP3   OH225779   2.835   0.887  17.146 -0.0415 -0.5042  0.0152
 1455TIP3    H125780   2.903   0.944  17.111 -0.8516 -0.3509 -1.4001
 1455TIP3    H225781   2.868   0.799  17.133  0.3064 -0.4101  0.2513
 1456TIP3   OH225782   6.418   6.378  15.756 -0.3040  0.6584 -0.3145
 1456TIP3    H125783   6.392   6.286  15.761  0.3916  0.4993  0.5835
 1456TIP3    H225784   6.423   6.396  15.662 -1.1090 -0.0167 -0.5023
 1457TIP3   OH225785   6.680   1.491  11.577  0.4094 -0.7882  0.4624
 1457TIP3    H125786   6.680   1.584  11.557 -0.7355 -0.5204  1.5744
 1457TIP3    H225787   6.763   1.475  11.621  1.0092 -0.4965 -0.5374
 1458TIP3   OH225788   1.993   1.200  10.832 -0.3822 -0.3451  0.0003
 1458TIP3    H125789   2.040   1.227  10.753 -1.1334  0.3917 -0.2114
 1458TIP3    H225790   2.057   1.150  10.882  0.2950 -0.2828 -0.7805
 1459TIP3   OH225791   3.521   0.223  14.860 -0.2178 -0.1040  0.3112
 1459TIP3    H125792   3.591   0.261  14.807 -1.1518  0.1020 -0.8219
 1459TIP3    H225793   3.442   0.269  14.832 -0.8515 -0.4676  1.4259
 1460TIP3   OH225794   2.424   6.281  15.325  0.1704  0.1003  0.5631
 1460TIP3    H125795   2.471   6.218  15.380  0.3653 -0.5649 -0.3344
 1460TIP3    H225796   2.476   6.286  15.245 -1.7564 -1.4707 -0.9054
 1461TIP3   OH225797   5.729   1.429  17.213 -0.0809 -0.3342 -0.0373
 1461TIP3    H125798   5.675   1.430  17.293  0.7435  0.3730  0.5301
 1461TIP3    H225799   5.811   1.470  17.240  1.5017 -3.0153 -0.3623
 1462TIP3   OH225800   0.705   0.162   3.292  0.6412  0.1605 -0.6403
 1462TIP3    H125801   0.643   0.125   3.229  0.1914  0.3171 -0.2910
 1462TIP3    H225802   0.653   0.183   3.369  0.8086  1.7771 -0.9174
 1463TIP3   OH225803   2.916   2.825   2.266  0.4902 -0.6399 -0.1659
 1463TIP3    H125804   2.919   2.886   2.340  1.0978  0.1642 -0.8323
 1463TIP3    H225805   2.931   2.739   2.305 -0.7783 -0.4173  0.8398
 1464TIP3   OH225806   4.468   3.858  15.608  0.0729 -0.8050 -0.1518
 1464TIP3    H125807   4.464   3.942  15.654  0.8529 -1.1775  0.6416
 1464TIP3    H225808   4.487   3.881  15.517  1.2088 -0.1467  0.2268
 1465TIP3   OH225809   4.962   4.194   6.320  0.2376 -0.0176 -0.3417
 1465TIP3    H125810   4.893   4.164   6.262 -1.2219  1.2736  0.6768
 1465TIP3    H225811   5.013   4.255   6.268  0.8617 -1.2284 -1.2007
 1466TIP3   OH225812   5.540   3.240  12.456 -0.5187 -0.2951  1.0120
 1466TIP3    H125813   5.486   3.222  12.379  0.6959 -1.7954  0.4788
 1466TIP3    H225814   5.571   3.329  12.444 -0.4778 -0.4607 -0.1493
 1467TIP3   OH225815   2.716   6.049  12.052  0.0543 -0.5034  0.1864
 1467TIP3    H125816   2.759   6.119  12.002 -1.1854 -0.3820 -0.7484
 1467TIP3    H225817   2.699   5.980  11.989 -0.8068 -0.6886  0.5981
 1468TIP3   OH225818   6.059   6.776   1.735  0.1168  0.2103 -0.2203
 1468TIP3    H125819   6.132   6.731   1.692  0.8615  1.1890 -0.0068
 1468TIP3    H225820   6.006   6.810   1.663  0.5475  0.5529 -0.3832
 1469TIP3   OH225821   1.133   6.531  11.867 -0.3090  0.3518 -0.7920
 1469TIP3    H125822   1.040   6.511  11.862 -0.2597  0.2734 -1.4924
 1469TIP3    H225823   1.166   6.516  11.778  0.4550 -0.0284 -0.4570
 1470TIP3   OH225824   5.884   5.439  15.573 -0.2144  0.3998 -0.2256
 1470TIP3    H125825   5.807   5.484  15.607 -0.4758 -0.9944  1.1233
 1470TIP3    H225826   5.850   5.384  15.503 -1.0430 -2.3145  2.1303
 1471TIP3   OH225827   3.401   2.683  13.376 -0.3204 -0.1710  0.1331
 1471TIP3    H125828   3.406   2.755  13.439 -1.6570  0.4051 -0.3679
 1471TIP3    H225829   3.392   2.604  13.429  1.2317 -0.0015  0.6937
 1472TIP3   OH225830   6.573   5.468  15.274 -0.2846  0.2691  0.1010
 1472TIP3    H125831   6.655   5.489  15.229 -0.5127  0.9140 -0.0292
 1472TIP3    H225832   6.596   5.467  15.367 -0.5408  2.6799  0.2713
 1473TIP3   OH225833   3.739   3.118  13.066 -0.1712  0.3708  0.2552
 1473TIP3    H125834   3.781   3.037  13.037  1.0246  0.9087  0.4198
 1473TIP3    H225835   3.760   3.182  12.998  0.7308  1.0710  1.1579
 1474TIP3   OH225836   0.414   6.480  13.794  0.8857 -0.2758 -0.0351
 1474TIP3    H125837   0.482   6.543  13.769 -0.6693  1.3823 -0.3348
 1474TIP3    H225838   0.422   6.473  13.890 -0.0910  1.9353  0.2766
 1475TIP3   OH225839   3.706   1.256  13.182 -0.8708  0.0056  0.3470
 1475TIP3    H125840   3.673   1.294  13.101 -2.0509 -2.4321 -0.4163
 1475TIP3    H225841   3.636   1.272  13.246 -0.7069  0.3946  0.4318
 1476TIP3   OH225842   1.389   0.325  13.363  0.0416  0.4991  0.1043
 1476TIP3    H125843   1.355   0.239  13.391  0.0010  0.8214  1.0862
 1476TIP3    H225844   1.326   0.387  13.399  0.9912  1.0381  0.8739
 1477TIP3   OH225845   3.820   0.850  17.075  0.0636 -0.3225 -0.4897
 1477TIP3    H125846   3.875   0.780  17.110  0.5050  0.6403  0.8058
 1477TIP3    H225847   3.836   0.848  16.981 -1.0215 -2.8895 -0.7183
 1478TIP3   OH225848   4.696   3.496  12.538 -0.5329  0.3964 -0.3717
 1478TIP3    H125849   4.773   3.550  12.556 -0.4332  1.0453 -2.4594
 1478TIP3    H225850   4.732   3.412  12.511 -0.5284  0.7200 -1.4104
 1479TIP3   OH225851   4.422   6.591   2.193 -0.0205 -0.4841 -0.0191
 1479TIP3    H125852   4.333   6.626   2.186 -0.0628 -0.8353 -1.9347
 1479TIP3    H225853   4.478   6.669   2.191 -0.1900 -0.3266 -2.4222
 1480TIP3   OH225854   3.601   5.310  15.462  0.4462 -0.1000 -0.0859
 1480TIP3    H125855   3.600   5.224  15.422  0.9104 -0.3121  0.3432
 1480TIP3    H225856   3.548   5.365  15.404 -1.6001 -1.1317  0.6995
 1481TIP3   OH225857   6.190   4.263   0.499 -0.0300  0.3685  0.3468
 1481TIP3    H125858   6.196   4.347   0.455  1.1733 -0.5714 -1.4113
 1481TIP3    H225859   6.119   4.217   0.453  1.3292 -0.6792 -0.7694
 1482TIP3   OH225860   1.080   3.445   3.381  0.0448  0.1521 -0.5737
 1482TIP3    H125861   1.006   3.386   3.370 -0.5474  1.1610 -2.5116
 1482TIP3    H225862   1.041   3.528   3.410  0.6686  0.1378  0.3769
 1483TIP3   OH225863   1.599   5.692   5.796  0.0039  0.8759 -0.2433
 1483TIP3    H125864   1.540   5.679   5.870  2.0566  1.0075  1.5118
 1483TIP3    H225865   1.596   5.786   5.778  0.2410  0.9939  0.3339
 1484TIP3   OH225866   1.172   5.162  15.770 -0.1771  0.0258  0.3777
 1484TIP3    H125867   1.169   5.242  15.824  3.0746  0.6212 -0.1052
 1484TIP3    H225868   1.256   5.168  15.724 -0.7974 -2.6868 -1.3075
 1485TIP3   OH225869   2.396   3.029   2.440 -0.0195  0.7265 -0.1797
 1485TIP3    H125870   2.350   2.946   2.430  1.5520 -0.2727  0.4266
 1485TIP3    H225871   2.379   3.056   2.530  2.3470 -0.8703  0.8677
 1486TIP3   OH225872   5.734   6.471   3.111 -0.5195  0.0426  0.4328
 1486TIP3    H125873   5.784   6.444   3.188 -1.5374 -0.8646  0.8054
 1486TIP3    H225874   5.791   6.452   3.037 -0.7959 -2.3174  0.7383
 1487TIP3   OH225875   6.242   2.289  15.214 -0.1131 -0.5715  0.1091
 1487TIP3    H125876   6.162   2.238  15.223  0.9032 -2.3610 -0.4397
 1487TIP3    H225877   6.297   2.260  15.286  0.2862  0.1432  0.0939
 1488TIP3   OH225878   4.044   3.499  11.193 -0.1093 -0.3423 -0.5250
 1488TIP3    H125879   4.000   3.512  11.110  0.4517 -0.3862 -0.8343
 1488TIP3    H225880   4.047   3.404  11.205 -0.1241 -0.3386 -0.4915
 1489TIP3   OH225881   3.984   3.883  11.021 -0.3594  0.0394 -0.1492
 1489TIP3    H125882   4.067   3.895  10.975 -0.0030  0.3617  0.5682
 1489TIP3    H225883   4.005   3.824  11.093 -0.7222  0.2374  0.1212
 1490TIP3   OH225884   0.589   5.055  16.420 -0.5973 -0.1433  0.3748
 1490TIP3    H125885   0.621   5.118  16.356  0.8318  1.8064  2.8371
 1490TIP3    H225886   0.500   5.083  16.440 -1.3961 -1.3115 -1.3187
 1491TIP3   OH225887   3.006   1.533   4.734  0.0024 -0.3411 -0.1481
 1491TIP3    H125888   2.943   1.569   4.796  0.9925  0.8008  0.2294
 1491TIP3    H225889   3.009   1.596   4.662  1.5134  0.2259  0.3695
 1492TIP3   OH225890   3.101   4.452  14.788 -0.6420 -0.1338  0.0016
 1492TIP3    H125891   3.029   4.454  14.851  0.7493  1.8215  1.6503
 1492TIP3    H225892   3.084   4.526  14.729 -0.0627  0.2762  0.3386
 1493TIP3   OH225893   4.623   0.010  16.971 -0.3515 -0.2413 -0.8431
 1493TIP3    H125894   4.569  -0.057  17.015  1.1977 -0.4425  0.8756
 1493TIP3    H225895   4.677  -0.040  16.910 -0.9562 -0.2290 -1.4018
 1494TIP3   OH225896   1.169   2.146   5.706  0.2961 -0.1001 -0.5592
 1494TIP3    H125897   1.131   2.080   5.647 -0.0349 -0.4889  0.0868
 1494TIP3    H225898   1.093   2.189   5.746  0.5030 -0.9323  0.7941
 1495TIP3   OH225899   6.328   5.837   4.629  0.4199 -0.1461  0.0225
 1495TIP3    H125900   6.242   5.798   4.642  0.4473 -0.7280 -1.3656
 1495TIP3    H225901   6.377   5.771   4.580  1.1972  0.7441 -0.4318
 1496TIP3   OH225902   6.116   2.657   6.366  0.3594  0.1284  0.0233
 1496TIP3    H125903   6.060   2.719   6.319 -1.0200  0.3994  1.9501
 1496TIP3    H225904   6.123   2.693   6.454  1.1763 -1.4463  0.6272
 1497TIP3   OH225905   5.197   6.586   0.934  0.0879  0.1898  0.0141
 1497TIP3    H125906   5.212   6.667   0.984 -1.7685  1.3440 -1.1815
 1497TIP3    H225907   5.259   6.523   0.971  1.9046  2.2654  0.7105
 1498TIP3   OH225908   1.060   4.939   2.899 -0.2654 -0.1023 -0.0554
 1498TIP3    H125909   1.085   5.028   2.875 -2.0794  0.6464  0.6683
 1498TIP3    H225910   1.048   4.894   2.816 -1.3292  0.9336 -0.4926
 1499TIP3   OH225911   5.946   4.437  15.095  0.0403 -0.0857 -0.2110
 1499TIP3    H125912   6.039   4.457  15.086  0.1000  0.4344  1.2260
 1499TIP3    H225913   5.910   4.510  15.146 -1.5946  0.7378 -2.3901
 1500TIP3   OH225914   3.325   3.894   2.087 -0.1562  0.2500  0.7832
 1500TIP3    H125915   3.300   3.807   2.056 -0.3596  0.7139 -0.4221
 1500TIP3    H225916   3.416   3.883   2.117  0.9618  0.2116 -2.1954
 1501TIP3   OH225917   6.195   3.488   4.958 -0.4084  0.3400 -0.1798
 1501TIP3    H125918   6.102   3.470   4.971 -0.5214  1.7239  1.2317
 1501TIP3    H225919   6.197   3.557   4.892 -0.3393  0.0612 -0.4763
 1502TIP3   OH225920   4.106   1.477  11.031 -0.6339  0.0079 -0.5959
 1502TIP3    H125921   4.076   1.514  11.114 -3.6279 -2.7417 -0.2759
 1502TIP3    H225922   4.188   1.434  11.052 -0.8688  0.1575  0.7327
 1503TIP3   OH225923   0.440   0.792  15.634  0.0322  0.3681  0.3755
 1503TIP3    H125924   0.354   0.761  15.662  0.2473 -0.9906 -0.3789
 1503TIP3    H225925   0.443   0.773  15.540  0.5657  1.8412  0.0655
 1504TIP3   OH225926   4.404   1.776   2.371 -0.1749 -0.5732  0.7419
 1504TIP3    H125927   4.468   1.848   2.372 -0.3517 -0.1259 -3.5040
 1504TIP3    H225928   4.321   1.817   2.396  0.1617  0.1256  0.7410
 1505TIP3   OH225929   3.010   1.253   5.236 -0.8212 -0.0619  0.0509
 1505TIP3    H125930   2.921   1.221   5.248 -0.5005 -0.3693  1.9907
 1505TIP3    H225931   3.010   1.294   5.150 -2.3769 -1.5224 -0.6978
 1506TIP3   OH225932   0.210   1.021   4.536  0.3886 -0.0686  0.5059
 1506TIP3    H125933   0.209   0.992   4.445  1.0472  1.6632 -0.1037
 1506TIP3    H225934   0.129   0.987   4.574  0.4723 -1.4522 -0.5103
 1507TIP3   OH225935   0.190   2.230  12.925  0.9237  0.8192 -0.3513
 1507TIP3    H125936   0.219   2.196  12.841  0.3743 -0.0200 -0.2160
 1507TIP3    H225937   0.162   2.320  12.906 -2.9541 -0.5116 -1.9805
 1508TIP3   OH225938   6.730   0.644   2.225 -0.9880  0.5926  0.5901
 1508TIP3    H125939   6.649   0.614   2.184 -1.4958  3.0382 -0.3723
 1508TIP3    H225940   6.717   0.738   2.238  0.5350  0.5528  3.2393
 1509TIP3   OH225941   4.651   2.026   0.586  0.4047  0.8249  0.0747
 1509TIP3    H125942   4.591   1.954   0.603  0.0303  1.2753  0.6923
 1509TIP3    H225943   4.610   2.077   0.517  0.0003  1.2040  0.5841
 1510TIP3   OH225944   1.642   0.736   5.921 -0.2532 -0.0837 -0.4387
 1510TIP3    H125945   1.646   0.641   5.921  0.1875 -0.0653 -0.3526
 1510TIP3    H225946   1.703   0.763   5.852 -0.5929  0.1292 -0.6630
 1511TIP3   OH225947   5.754   0.017   2.956  0.3478  0.4274 -0.1408
 1511TIP3    H125948   5.730   0.109   2.969 -1.7810  0.1315 -1.4547
 1511TIP3    H225949   5.698  -0.012   2.884 -0.1472 -2.3150  1.2154
 1512TIP3   OH225950   6.375   0.803   5.668 -0.2797  0.5480 -0.1796
 1512TIP3    H125951   6.340   0.792   5.757  1.3710 -1.8322  0.2548
 1512TIP3    H225952   6.361   0.719   5.626  4.4852 -0.6093 -0.0151
 1513TIP3   OH225953   5.403   3.260  14.247 -0.4888 -0.5179 -0.0732
 1513TIP3    H125954   5.455   3.190  14.207 -0.4523 -0.6549  0.2121
 1513TIP3    H225955   5.435   3.340  14.207  1.2060 -0.4000  1.4062
 1514TIP3   OH225956   0.305   5.045   5.853 -0.2547  0.1352 -0.7727
 1514TIP3    H125957   0.235   4.981   5.864 -0.7323  0.7191 -0.3461
 1514TIP3    H225958   0.272   5.124   5.896  1.1516  0.0734  0.5077
 1515TIP3   OH225959   5.694   4.174  14.368  0.3419  0.7174 -0.0992
 1515TIP3    H125960   5.779   4.217  14.370  1.4896 -1.3172  2.6548
 1515TIP3    H225961   5.706   4.095  14.421 -2.1673 -1.8799 -2.9361
 1516TIP3   OH225962   6.704   0.387  16.041 -0.3162  0.2253 -0.0517
 1516TIP3    H125963   6.765   0.355  15.975 -0.8230  0.2881 -0.5592
 1516TIP3    H225964   6.720   0.481  16.047  0.7256  0.0059  0.9694
 1517TIP3   OH225965   4.393   1.570  15.870  0.3901 -0.2286  0.1366
 1517TIP3    H125966   4.376   1.660  15.895 -1.2607 -0.7719  1.1114
 1517TIP3    H225967   4.442   1.576  15.788  1.4164  1.5415  0.8338
 1518TIP3   OH225968   3.351   2.724  17.010 -0.5998  0.0078 -0.4638
 1518TIP3    H125969   3.388   2.786  17.072  1.0587  0.1565 -1.5175
 1518TIP3    H225970   3.303   2.778  16.947 -0.0927  0.1291 -0.7534
 1519TIP3   OH225971   3.785   1.191  13.755 -0.4509 -0.1037 -1.0357
 1519TIP3    H125972   3.796   1.097  13.771 -0.8511 -0.1833 -1.2147
 1519TIP3    H225973   3.873   1.228  13.764 -0.5646 -0.2140  0.9318
 1520TIP3   OH225974   1.040   2.461   5.716  0.0959 -0.4023  0.2673
 1520TIP3    H125975   0.969   2.404   5.744 -0.4364 -0.2443 -0.7280
 1520TIP3    H225976   1.039   2.456   5.620  0.0632  1.2323  0.1508
 1521TIP3   OH225977   4.005   0.335  15.442 -0.5951  0.4687 -0.4138
 1521TIP3    H125978   4.033   0.301  15.527 -0.5447 -2.2478 -1.3898
 1521TIP3    H225979   4.079   0.387  15.411  0.2838 -0.3076  0.3112
 1522TIP3   OH225980   2.508   2.685   4.943  0.2851  0.2764 -0.2305
 1522TIP3    H125981   2.573   2.627   4.904 -0.3760 -0.0069 -0.9224
 1522TIP3    H225982   2.552   2.722   5.020  1.8590  1.3396 -1.5688
 1523TIP3   OH225983   3.019   0.629  14.393  0.5343  0.3454  0.0934
 1523TIP3    H125984   3.103   0.606  14.352  0.5717  2.4935 -1.1751
 1523TIP3    H225985   3.019   0.725  14.395 -2.7384  0.5171 -1.8497
 1524TIP3   OH225986   5.651   2.105  14.781  0.1787  0.4867 -0.2438
 1524TIP3    H125987   5.651   2.197  14.754  1.0491  0.5044 -0.1941
 1524TIP3    H225988   5.743   2.085  14.800 -0.3698  0.7391  3.5314
 1525TIP3   OH225989   0.663   4.640   5.738  0.2187  0.0286  0.2917
 1525TIP3    H125990   0.748   4.608   5.709  0.6385 -0.1138  1.6265
 1525TIP3    H225991   0.681   4.724   5.779 -0.0985 -0.5280  1.6200
 1526TIP3   OH225992   5.501   4.404  15.145  0.3289 -0.2405  1.0489
 1526TIP3    H125993   5.420   4.363  15.113  0.6993 -1.3423  1.4908
 1526TIP3    H225994   5.571   4.355  15.103  0.8083  1.6170 -0.4637
 1527TIP3   OH225995   6.258   2.343  12.677  0.2769  0.3811 -0.3859
 1527TIP3    H125996   6.283   2.293  12.599 -1.6065 -0.2194 -0.6497
 1527TIP3    H225997   6.195   2.288  12.722  0.7160  1.0863  1.1615
 1528TIP3   OH225998   2.875   2.970  15.484 -0.0349 -0.2938 -0.0803
 1528TIP3    H125999   2.898   2.882  15.513 -0.0514  0.2035  1.5899
 1528TIP3    H226000   2.807   2.998  15.545 -0.7228  0.5328 -1.1817
 1529TIP3   OH226001   6.474   3.364   1.383 -0.3703 -0.1458  0.7620
 1529TIP3    H126002   6.558   3.398   1.414 -0.2928  0.1371  0.2346
 1529TIP3    H226003   6.410   3.398   1.446 -0.2673  0.7948  0.3595
 1530TIP3   OH226004   4.082   5.494  13.713  0.3180  0.3558  0.1682
 1530TIP3    H126005   4.003   5.501  13.659  0.4818  3.1332  0.1622
 1530TIP3    H226006   4.056   5.439  13.787 -1.5987  1.0367  0.0638
 1531TIP3   OH226007   4.182   0.276  16.994 -0.2557  0.5494  0.2640
 1531TIP3    H126008   4.211   0.257  16.905 -0.1203  0.6771  0.2785
 1531TIP3    H226009   4.251   0.332  17.030  0.1349 -0.2383  0.7526
 1532TIP3   OH226010   3.350   4.243  12.463 -0.1413 -0.3119 -0.2290
 1532TIP3    H126011   3.280   4.291  12.507 -0.6009 -0.7421 -0.4819
 1532TIP3    H226012   3.341   4.153  12.494  0.1940 -0.4065 -0.3941
 1533TIP3   OH226013   2.643   1.220   5.501  0.2408  0.2002  0.2248
 1533TIP3    H126014   2.614   1.134   5.471 -1.6796  1.6946 -2.6933
 1533TIP3    H226015   2.738   1.215   5.500  0.2034 -1.3259 -1.8847
 1534TIP3   OH226016   4.100   6.419   4.707 -0.0040  0.3334 -0.2552
 1534TIP3    H126017   4.097   6.331   4.745 -3.1569  0.2350 -0.4795
 1534TIP3    H226018   4.143   6.472   4.774 -1.2176 -0.7576  1.4739
 1535TIP3   OH226019   0.022   2.591  16.553 -0.5855  0.3438 -0.4810
 1535TIP3    H126020  -0.053   2.638  16.588 -0.1071  0.3804  0.5299
 1535TIP3    H226021   0.066   2.654  16.496 -0.5265  0.7859  0.0530
 1536TIP3   OH226022   2.218   2.937  14.176 -0.3651 -0.2885 -0.2786
 1536TIP3    H126023   2.158   2.907  14.107 -1.5521 -2.0424  1.4207
 1536TIP3    H226024   2.162   2.982  14.238  0.4734  0.1178  0.1939
 1537TIP3   OH226025   5.938   5.552   2.410 -0.0008  0.0150 -0.3242
 1537TIP3    H126026   5.956   5.495   2.335  1.1608 -1.5137  1.0055
 1537TIP3    H226027   5.855   5.594   2.390 -1.2690 -2.6331 -1.1897
 1538TIP3   OH226028   3.566   0.163   1.191 -0.4459 -0.0609  0.0394
 1538TIP3    H126029   3.482   0.150   1.147  0.6008 -0.0918 -2.0759
 1538TIP3    H226030   3.628   0.178   1.120  1.2748  0.4149  1.5684
 1539TIP3   OH226031   0.982   2.387   3.206 -0.4617 -0.0165  0.0223
 1539TIP3    H126032   0.911   2.413   3.265 -0.8617 -0.5871 -0.2012
 1539TIP3    H226033   0.940   2.381   3.120  0.1206  0.8348 -0.3327
 1540TIP3   OH226034   4.753   4.740  13.331 -0.5941  0.4492  0.5011
 1540TIP3    H126035   4.719   4.745  13.421 -0.1353  1.1877  0.6498
 1540TIP3    H226036   4.844   4.769  13.339 -0.0105 -1.1736  0.0632
 1541TIP3   OH226037   6.095   2.117   1.581  0.5184  0.2993 -0.2817
 1541TIP3    H126038   6.146   2.154   1.509 -1.7053  1.0039 -1.5663
 1541TIP3    H226039   6.035   2.055   1.539 -0.2106  0.0531  1.0748
 1542TIP3   OH226040   4.503   6.495  14.838 -0.0298 -0.7852  0.1144
 1542TIP3    H126041   4.567   6.451  14.894  1.3247 -0.8529 -1.4048
 1542TIP3    H226042   4.424   6.442  14.846 -0.0424 -0.5368  2.2670
 1543TIP3   OH226043   2.427   0.161  13.448  0.1500 -0.0016 -0.4684
 1543TIP3    H126044   2.521   0.162  13.429  0.1269 -0.8598 -0.6499
 1543TIP3    H226045   2.387   0.122  13.371 -0.1308 -1.7479  0.5072
 1544TIP3   OH226046   1.631   5.661   6.331  0.4437 -0.3896  0.1330
 1544TIP3    H126047   1.716   5.683   6.368 -1.1638  3.2798  2.1054
 1544TIP3    H226048   1.615   5.727   6.264 -0.4113 -1.7296 -1.0576
 1545TIP3   OH226049   3.981   6.468  14.335  0.1056  0.0720 -0.1827
 1545TIP3    H126050   3.915   6.534  14.313  0.1429 -0.0325 -0.6208
 1545TIP3    H226051   3.938   6.384  14.322  0.7825 -0.0329 -2.0593
 1546TIP3   OH226052   3.884   6.455  12.156 -0.1194 -0.5439 -0.1427
 1546TIP3    H126053   3.909   6.493  12.241  1.9977 -0.9723 -0.5018
 1546TIP3    H226054   3.789   6.464  12.153 -0.4774 -1.9375  2.9521
 1547TIP3   OH226055   0.531   4.121  12.222  0.1012  0.0013  0.3080
 1547TIP3    H126056   0.585   4.109  12.300 -1.1598 -0.7007  1.1149
 1547TIP3    H226057   0.441   4.116  12.254 -0.4607 -0.7901 -1.2737
 1548TIP3   OH226058   5.000   5.100  14.855 -0.0437 -0.7671 -0.7053
 1548TIP3    H126059   5.017   5.138  14.768  0.8948  1.2279  0.2798
 1548TIP3    H226060   4.912   5.131  14.877  1.2004  2.1393  0.6366
 1549TIP3   OH226061   5.257   4.432  14.252  0.1248  0.0083  0.2882
 1549TIP3    H126062   5.215   4.484  14.183 -0.4021  0.3807  0.8770
 1549TIP3    H226063   5.344   4.413  14.219  0.1206  0.7879 -0.1809
 1550TIP3   OH226064   5.260   4.709   2.645 -0.0761  0.4387  0.1455
 1550TIP3    H126065   5.342   4.756   2.627 -0.1621  0.0523 -1.3972
 1550TIP3    H226066   5.197   4.778   2.667  0.3417  0.8505  0.0678
 1551TIP3   OH226067   4.008   1.341  11.391 -0.2191 -0.2848 -0.6077
 1551TIP3    H126068   4.051   1.310  11.471 -1.3415 -0.1618  0.0619
 1551TIP3    H226069   4.072   1.400  11.350 -0.2706  0.9982  1.0799
 1552TIP3   OH226070   6.595   3.047   0.540  0.1680 -0.2860 -0.2078
 1552TIP3    H126071   6.670   3.052   0.480  0.1932  0.3836 -0.1275
 1552TIP3    H226072   6.605   3.124   0.597  0.5874 -1.3400  1.1960
 1553TIP3   OH226073   6.628   5.251  12.588  0.0907  0.0223 -0.1544
 1553TIP3    H126074   6.688   5.184  12.554  0.7807  0.1263  0.7987
 1553TIP3    H226075   6.660   5.333  12.552  3.2278  0.7167  3.4756
 1554TIP3   OH226076   3.259   2.451   3.140  0.1018  0.3669  0.5945
 1554TIP3    H126077   3.219   2.364   3.131 -0.4723  0.7215 -0.3314
 1554TIP3    H226078   3.287   2.474   3.052  4.9721 -1.0260  1.4612
 1555TIP3   OH226079   6.084   3.305   0.400  0.1625  0.0586 -0.8138
 1555TIP3    H126080   6.023   3.372   0.368  2.1462  2.2752 -0.2865
 1555TIP3    H226081   6.088   3.320   0.494 -0.4118 -1.8143 -0.4530
 1556TIP3   OH226082   6.318   3.211   0.269  0.1953 -0.0713 -0.1797
 1556TIP3    H126083   6.235   3.233   0.312 -1.0011 -2.1001 -1.2500
 1556TIP3    H226084   6.301   3.225   0.176  1.0354 -0.5644 -0.4127
 1557TIP3   OH226085   0.476   5.006   2.660 -0.3328  0.4553  0.4942
 1557TIP3    H126086   0.454   5.002   2.754  0.4416 -2.0349  0.6343
 1557TIP3    H226087   0.442   4.924   2.624  2.5762 -0.3725 -0.6353
 1558TIP3   OH226088   0.671   1.055   5.109 -0.0251  0.1236 -0.3988
 1558TIP3    H126089   0.755   1.094   5.133 -0.1291  1.0141 -1.3951
 1558TIP3    H226090   0.632   1.030   5.193  0.8494  0.5062  0.1387
 1559TIP3   OH226091   1.942   2.069  10.828 -0.0807  0.4053 -0.0159
 1559TIP3    H126092   2.017   2.102  10.778 -2.1594  2.4384 -2.0272
 1559TIP3    H226093   1.894   2.015  10.766 -1.0511  0.3078  0.7930
 1560TIP3   OH226094   6.328   5.493  16.426 -0.3789  0.4796 -0.0279
 1560TIP3    H126095   6.283   5.461  16.504  2.2986 -1.1983  0.9558
 1560TIP3    H226096   6.387   5.562  16.459  0.6299 -0.1091 -0.5433
 1561TIP3   OH226097   0.680   2.542  12.663 -0.1375  0.0146 -0.1165
 1561TIP3    H126098   0.662   2.567  12.572 -1.4715  0.7954  0.3392
 1561TIP3    H226099   0.605   2.486  12.687 -1.7340  2.6744  1.5758
 1562TIP3   OH226100   3.714   3.263  14.104 -0.2207 -0.2922 -0.5255
 1562TIP3    H126101   3.685   3.199  14.168  1.7065 -0.6232  0.0682
 1562TIP3    H226102   3.786   3.220  14.058  0.6035  1.1502 -0.6442
 1563TIP3   OH226103   1.731   3.474   4.981 -0.7152  0.3010  0.4834
 1563TIP3    H126104   1.650   3.445   5.023 -0.2354  0.7079  1.7679
 1563TIP3    H226105   1.801   3.435   5.034 -0.0823  1.1901  0.3378
 1564TIP3   OH226106   0.471   0.562  16.746  0.1795  0.0574 -0.0564
 1564TIP3    H126107   0.420   0.618  16.688  0.9554  0.3169 -0.5035
 1564TIP3    H226108   0.407   0.500  16.781 -0.2281 -0.4756 -1.6369
 1565TIP3   OH226109   6.477   4.879   3.364 -0.3194 -0.2999 -0.0358
 1565TIP3    H126110   6.496   4.894   3.271 -0.1011 -0.4439 -0.0152
 1565TIP3    H226111   6.551   4.917   3.410 -0.6824  0.2372  0.1074
 1566TIP3   OH226112   5.224   4.970   5.636 -0.2157  0.0780 -0.0481
 1566TIP3    H126113   5.150   4.941   5.689 -1.1006 -0.0951 -1.3538
 1566TIP3    H226114   5.301   4.940   5.685 -1.0131 -0.4381  0.9219
 1567TIP3   OH226115   5.836   3.374  13.635 -0.4701  0.4029 -0.1273
 1567TIP3    H126116   5.769   3.348  13.572 -0.3472  0.4035 -0.2588
 1567TIP3    H226117   5.878   3.292  13.660  3.0618  0.6704 -3.9937
 1568TIP3   OH226118   3.891   1.678   4.562 -0.5553 -0.1216 -0.0310
 1568TIP3    H126119   3.979   1.692   4.598 -1.3846  2.5324  1.2458
 1568TIP3    H226120   3.851   1.615   4.622  0.0307 -0.2749  0.2127
 1569TIP3   OH226121   2.003   1.412  13.351 -0.1942  0.0851  0.3517
 1569TIP3    H126122   1.968   1.325  13.334 -0.8406  0.0359  1.7775
 1569TIP3    H226123   2.091   1.397  13.385 -0.1360  0.0081  0.1654
 1570TIP3   OH226124   5.921   1.362  13.589 -0.4149 -0.0602  0.0459
 1570TIP3    H126125   5.938   1.451  13.619 -2.3095 -0.3787  2.3629
 1570TIP3    H226126   6.008   1.322  13.583  0.3188  1.2128  1.4318
 1571TIP3   OH226127   6.590   6.389   1.148 -0.1846 -1.0525 -0.7608
 1571TIP3    H126128   6.565   6.425   1.063 -1.2227  1.4891  0.5005
 1571TIP3    H226129   6.507   6.360   1.186 -0.2216  0.5961  0.5170
 1572TIP3   OH226130   0.732   4.099  11.936  0.2779 -0.6879 -0.7365
 1572TIP3    H126131   0.699   4.163  11.998 -0.1008 -1.0678 -0.5392
 1572TIP3    H226132   0.755   4.150  11.858  1.0615 -0.1670 -0.1730
 1573TIP3   OH226133   6.018   6.105  15.840  0.0035 -0.6993 -0.0782
 1573TIP3    H126134   6.024   6.080  15.748  0.2055 -1.5817  0.1677
 1573TIP3    H226135   6.036   6.199  15.841  0.7988 -0.8329 -0.8454
 1574TIP3   OH226136   1.522   1.046   0.757  0.3009 -0.3149 -0.1008
 1574TIP3    H126137   1.500   0.981   0.824 -0.9866 -0.5043 -0.6835
 1574TIP3    H226138   1.480   1.127   0.787 -1.0003 -0.6022 -1.0622
 1575TIP3   OH226139   5.639   2.015   5.010  0.0118 -0.4200 -0.6459
 1575TIP3    H126140   5.555   2.060   4.998 -0.4638 -0.9917  0.4470
 1575TIP3    H226141   5.687   2.071   5.072  0.0674 -0.5761 -0.5484
 1576TIP3   OH226142   0.599   4.339  16.213 -0.0827 -0.0836  0.2680
 1576TIP3    H126143   0.533   4.406  16.232 -1.8332 -1.0103 -2.0533
 1576TIP3    H226144   0.682   4.386  16.212 -1.2655  2.1543 -1.5504
 1577TIP3   OH226145   0.451   4.623  11.459 -0.5866  0.2445 -0.2168
 1577TIP3    H126146   0.512   4.679  11.411  0.5370  0.5576  1.5210
 1577TIP3    H226147   0.496   4.538  11.465  0.0925  0.7019  1.7710
 1578TIP3   OH226148   4.822   6.053   0.502  1.2278  0.7023 -0.5518
 1578TIP3    H126149   4.850   5.980   0.447  0.9032  0.2485 -0.1234
 1578TIP3    H226150   4.798   6.013   0.585  0.5556  1.2364 -0.4765
 1579TIP3   OH226151   1.038   4.831   3.161 -0.2174  0.0813 -0.1964
 1579TIP3    H126152   1.084   4.905   3.201  1.0893 -0.8276  0.0416
 1579TIP3    H226153   1.043   4.847   3.067  1.7556 -0.6111 -0.2597
 1580TIP3   OH226154   0.920   5.205   0.727  0.0300 -0.0680 -0.1819
 1580TIP3    H126155   0.885   5.283   0.769  1.7819  1.0073 -0.6170
 1580TIP3    H226156   0.920   5.225   0.634 -1.2479 -1.3647 -0.5056
 1581TIP3   OH226157   4.400   2.637   1.749 -0.4013  0.5794 -0.0206
 1581TIP3    H126158   4.328   2.670   1.696 -0.5726 -0.4108 -0.4174
 1581TIP3    H226159   4.381   2.670   1.837 -2.1405 -0.8024  0.2037
 1582TIP3   OH226160   5.171   0.592  16.553  0.1581 -0.0011 -0.5637
 1582TIP3    H126161   5.161   0.686  16.568  2.3696  0.2319 -0.1458
 1582TIP3    H226162   5.234   0.564  16.619 -1.5492 -2.1171  0.2821
 1583TIP3   OH226163   3.154   0.678  12.360 -0.1834  0.1792  0.2188
 1583TIP3    H126164   3.133   0.770  12.344 -0.7419  0.5718  2.7360
 1583TIP3    H226165   3.077   0.630  12.330 -0.3326  0.6350 -0.1289
 1584TIP3   OH226166   1.923   1.782   2.067  0.6881  0.0618 -0.1351
 1584TIP3    H126167   1.883   1.696   2.051 -1.7314  1.2204 -0.6455
 1584TIP3    H226168   1.894   1.806   2.155  0.9480  0.5965 -0.1896
 1585TIP3   OH226169   0.824   4.641   3.755  0.5003 -0.1753  0.3363
 1585TIP3    H126170   0.877   4.562   3.748 -1.0592 -1.1623 -1.5679
 1585TIP3    H226171   0.885   4.713   3.741  1.4031 -1.2419 -1.5317
 1586TIP3   OH226172   1.076   6.130   2.687 -0.3421  0.6304  0.1617
 1586TIP3    H126173   1.090   6.057   2.627  1.7928  2.0252 -1.1581
 1586TIP3    H226174   1.131   6.109   2.763  1.0870  1.2748 -0.6524
 1587TIP3   OH226175   1.165   6.451   0.170 -0.3691  0.6534  0.2191
 1587TIP3    H126176   1.228   6.458   0.242 -1.5022  0.5874  1.2640
 1587TIP3    H226177   1.217   6.423   0.095  0.8640  0.7520  1.0010
 1588TIP3   OH226178   1.266   3.075  14.201 -0.3627 -0.0142 -0.2939
 1588TIP3    H126179   1.231   3.158  14.234  0.0438 -0.6103  1.7208
 1588TIP3    H226180   1.275   3.020  14.278 -1.9762 -2.4839 -1.7321
 1589TIP3   OH226181   5.344   5.531   3.451 -0.2261 -0.1090  0.1341
 1589TIP3    H126182   5.346   5.620   3.487  0.3175  0.0210 -0.2084
 1589TIP3    H226183   5.366   5.542   3.358 -0.0325 -0.6178  0.1179
 1590TIP3   OH226184   2.111   1.830   0.162  0.3547  0.3363 -0.7183
 1590TIP3    H126185   2.104   1.795   0.251 -1.6326  0.6453 -0.6872
 1590TIP3    H226186   2.095   1.754   0.105  2.0970  0.0419 -0.8616
 1591TIP3   OH226187   6.696   5.474  11.388 -0.0219  0.3065 -0.6892
 1591TIP3    H126188   6.762   5.502  11.452 -0.2649 -2.6352  1.0432
 1591TIP3    H226189   6.708   5.379  11.381 -4.4803 -0.5665  0.3787
 1592TIP3   OH226190   0.736   3.495   4.109 -0.3436  0.2143  0.6008
 1592TIP3    H126191   0.661   3.515   4.053 -0.4621  1.1834  1.0830
 1592TIP3    H226192   0.812   3.523   4.058 -0.2246 -1.3088 -0.1374
 1593TIP3   OH226193   0.896   1.996  12.177 -0.0697  0.5965 -0.0182
 1593TIP3    H126194   0.988   2.024  12.179 -0.9063  3.7347  2.8741
 1593TIP3    H226195   0.854   2.055  12.114 -0.1962 -0.9798 -1.5123
 1594TIP3   OH226196   0.567   2.885  12.383 -0.4404 -0.5251  0.1719
 1594TIP3    H126197   0.575   2.954  12.449  0.2314  1.3233 -1.7231
 1594TIP3    H226198   0.478   2.895  12.348 -0.4975 -0.9278  0.1963
 1595TIP3   OH226199   4.310   3.873   1.890  0.0969 -0.0970 -0.0039
 1595TIP3    H126200   4.337   3.961   1.862  1.0649  0.6325  2.8621
 1595TIP3    H226201   4.215   3.880   1.897  0.3034  2.5937  4.9743
 1596TIP3   OH226202   4.479   4.668   4.156  0.4127 -0.2800  0.3795
 1596TIP3    H126203   4.410   4.623   4.206 -0.3014  0.1562 -0.2038
 1596TIP3    H226204   4.542   4.695   4.223 -0.4648  0.1840  1.0411
 1597TIP3   OH226205   2.854   1.688   1.130  0.1658  0.0738  0.4540
 1597TIP3    H126206   2.816   1.705   1.044  0.9835  0.7672  0.2243
 1597TIP3    H226207   2.786   1.716   1.192 -0.6329 -0.9019  0.0617
 1598TIP3   OH226208   1.078   5.183   4.902  0.1035  0.1464 -0.2665
 1598TIP3    H126209   1.069   5.172   4.807 -1.7302  0.6934 -0.2134
 1598TIP3    H226210   1.112   5.272   4.912  0.1968  0.1286 -0.4268
 1599TIP3   OH226211   0.906   4.774   4.140  0.4363 -0.2515  0.2361
 1599TIP3    H126212   0.821   4.777   4.184 -0.1846 -3.6542 -0.4555
 1599TIP3    H226213   0.893   4.825   4.060 -0.6319  0.1160  0.6217
 1600TIP3   OH226214   2.419   2.714   3.086  0.1865  0.0213 -0.1539
 1600TIP3    H126215   2.473   2.682   3.014  1.5991 -1.7854  1.5955
 1600TIP3    H226216   2.367   2.638   3.113 -1.4306  1.0687 -0.1945
 1601TIP3   OH226217   5.819   3.797   0.274  0.0652  0.4312  0.1354
 1601TIP3    H126218   5.901   3.841   0.293  0.1339 -0.1169  1.1352
 1601TIP3    H226219   5.752   3.866   0.281  0.2301  0.5024  1.1739
 1602TIP3   OH226220   2.142   2.777   6.406  0.0022 -0.1551 -0.0999
 1602TIP3    H126221   2.219   2.834   6.412  0.3744 -0.5300 -1.1274
 1602TIP3    H226222   2.070   2.837   6.389  0.3135  0.0578 -0.6861
 1603TIP3   OH226223   1.074   4.221  16.179 -0.1170  0.1104  0.3149
 1603TIP3    H126224   0.989   4.222  16.136 -0.4080 -3.5192  0.4694
 1603TIP3    H226225   1.054   4.231  16.272 -0.3052 -0.1626  0.3025
 1604TIP3   OH226226   4.090   4.475   5.663  0.0665 -0.0152 -0.1778
 1604TIP3    H126227   4.147   4.499   5.735  0.9058 -0.9664 -0.5039
 1604TIP3    H226228   4.015   4.534   5.671  0.5441  0.4656  0.9484
 1605TIP3   OH226229   1.255   5.277   3.577 -0.1405  0.4014 -0.3172
 1605TIP3    H126230   1.301   5.303   3.497 -1.2747 -0.9462 -1.4716
 1605TIP3    H226231   1.245   5.358   3.626  0.9788  1.1938 -1.3258
 1606TIP3   OH226232   4.277   6.229   4.863  0.0387  0.0830 -0.0615
 1606TIP3    H126233   4.287   6.153   4.806  0.6846 -0.2382  0.4624
 1606TIP3    H226234   4.210   6.203   4.926  0.2007 -0.0295  0.0672
 1607TIP3   OH226235   1.655   5.158  17.045  1.2744 -0.1340  0.3295
 1607TIP3    H126236   1.593   5.159  16.972 -0.2468  1.0953  1.5506
 1607TIP3    H226237   1.722   5.221  17.020 -0.9628  2.9011  1.2315
 1608TIP3   OH226238   1.336   4.221   4.605 -0.1636  0.3095 -0.9837
 1608TIP3    H126239   1.361   4.303   4.647 -2.7263  0.1795  1.0668
 1608TIP3    H226240   1.414   4.166   4.612  0.5872  1.4902  0.5892
 1609TIP3   OH226241   3.793   3.523  13.976 -0.4399 -0.0274 -0.1015
 1609TIP3    H126242   3.724   3.457  13.979 -0.0564 -0.4295 -0.1027
 1609TIP3    H226243   3.851   3.501  14.049 -0.2419  0.2278 -0.1788
 1610TIP3   OH226244   5.839   2.037  11.103 -0.4470 -0.1472  0.6002
 1610TIP3    H126245   5.849   1.984  11.024  0.6260 -0.7482  1.1113
 1610TIP3    H226246   5.772   1.992  11.154 -0.2726 -0.4436  0.5705
 1611TIP3   OH226247   1.435   5.165  15.172  0.6870 -0.1666  0.0206
 1611TIP3    H126248   1.504   5.118  15.219  0.6890  0.7393  0.9695
 1611TIP3    H226249   1.482   5.223  15.113  0.6808 -1.6567 -1.5141
 1612TIP3   OH226250   0.560   1.335   5.341 -0.1001 -0.9989  0.0032
 1612TIP3    H126251   0.575   1.330   5.247 -1.1060 -1.8907 -0.1365
 1612TIP3    H226252   0.586   1.249   5.374 -0.3340 -0.9019  0.4476
 1613TIP3   OH226253   3.911   6.311  10.784  0.0274 -0.6175  0.2685
 1613TIP3    H126254   3.823   6.313  10.745 -0.3233 -0.4095  1.0561
 1613TIP3    H226255   3.962   6.257  10.723 -0.6886 -0.8922 -0.1093
 1614TIP3   OH226256   5.224   1.026   0.144 -0.2840 -0.0545 -0.6804
 1614TIP3    H126257   5.226   1.120   0.125 -2.3482  0.2189  0.2235
 1614TIP3    H226258   5.297   1.012   0.204 -0.7869  1.2459  0.2600
 1615TIP3   OH226259   3.480   1.459  11.917 -0.0085  0.7222  0.0723
 1615TIP3    H126260   3.460   1.538  11.967  1.0343  0.1240  1.4860
 1615TIP3    H226261   3.397   1.410  11.916 -0.2296  1.0778  0.5857
 1616TIP3   OH226262   3.166   3.073  11.203 -0.4999  0.4744  0.3640
 1616TIP3    H126263   3.152   3.015  11.278  1.1512  1.2800  1.3535
 1616TIP3    H226264   3.224   3.142  11.236  1.7653 -0.0804 -2.0910
 1617TIP3   OH226265   0.238   1.343  14.404 -0.2255  0.4420  0.8635
 1617TIP3    H126266   0.237   1.439  14.411 -0.6902  0.4335  0.9503
 1617TIP3    H226267   0.269   1.313  14.490 -0.3190  0.5104  0.9223
 1618TIP3   OH226268   1.698   5.100   0.463 -0.1674  0.0159  0.1920
 1618TIP3    H126269   1.713   5.021   0.411  2.2458  0.3368  0.3082
 1618TIP3    H226270   1.699   5.171   0.399 -1.9424  0.0592  0.1436
 1619TIP3   OH226271   2.711   4.660  12.048  0.3979 -0.3866  0.3515
 1619TIP3    H126272   2.745   4.731  12.102  0.8163 -1.9901  2.3138
 1619TIP3    H226273   2.624   4.689  12.021  0.6696  0.9715  0.8817
 1620TIP3   OH226274   6.522   6.492   4.485  0.0067 -0.0435 -0.4782
 1620TIP3    H126275   6.564   6.572   4.515  0.6873 -0.0869 -1.2903
 1620TIP3    H226276   6.520   6.435   4.562 -1.4254  1.1104  0.3902
 1621TIP3   OH226277   2.242   5.744   2.820 -0.3651 -0.3776 -0.2469
 1621TIP3    H126278   2.337   5.747   2.833 -0.4217 -1.3632  0.4183
 1621TIP3    H226279   2.209   5.817   2.873 -0.0152 -0.2009 -0.2637
 1622TIP3   OH226280   0.563   3.705  16.611 -0.3455 -0.1877  0.2733
 1622TIP3    H126281   0.509   3.676  16.684 -1.0809  0.6882  0.0800
 1622TIP3    H226282   0.564   3.630  16.551 -1.9194  0.0203 -0.0458
 1623TIP3   OH226283   0.879   1.003  16.375  0.5650 -0.0661 -0.0249
 1623TIP3    H126284   0.918   0.939  16.435 -0.6640 -0.2882  0.5551
 1623TIP3    H226285   0.794   0.966  16.352  0.4399  0.6871 -0.8147
 1624TIP3   OH226286   6.276   2.701  15.899 -0.0650 -0.1448 -0.3561
 1624TIP3    H126287   6.332   2.737  15.830 -0.2098  0.7738 -0.0150
 1624TIP3    H226288   6.192   2.686  15.855  0.1143 -0.4629 -0.5984
 1625TIP3   OH226289   3.577   1.521  17.183  0.3865  0.2776 -0.3444
 1625TIP3    H126290   3.661   1.518  17.137  1.0907 -1.1050  0.9286
 1625TIP3    H226291   3.553   1.429  17.195  0.5151  0.5070  2.4008
 1626TIP3   OH226292   1.601   2.058  11.078 -0.3999 -0.4351 -0.3560
 1626TIP3    H126293   1.660   1.983  11.071  0.5454  0.0618  1.6768
 1626TIP3    H226294   1.655   2.134  11.059 -0.3056  0.0354  1.6127
 1627TIP3   OH226295   3.295   4.985   2.552  0.3017 -0.0911  0.4013
 1627TIP3    H126296   3.376   5.009   2.597  2.5069 -0.2045 -3.0861
 1627TIP3    H226297   3.239   5.062   2.562  2.1045  1.3100  0.3495
 1628TIP3   OH226298   5.136   0.785  16.040  0.9178  0.0512 -0.5426
 1628TIP3    H126299   5.220   0.801  15.997  1.1881 -0.4041 -0.1943
 1628TIP3    H226300   5.132   0.851  16.109  1.3559 -0.4258 -0.0527
 1629TIP3   OH226301   4.997   4.916   4.703  0.0429 -0.2459  0.2990
 1629TIP3    H126302   4.965   4.987   4.646 -0.8049 -0.3472  0.6364
 1629TIP3    H226303   4.998   4.839   4.646  0.3578 -0.0949  0.0985
 1630TIP3   OH226304   3.448   0.970   0.249  0.9678  0.1969 -0.7082
 1630TIP3    H126305   3.407   0.914   0.183  0.9659 -0.6366 -0.0132
 1630TIP3    H226306   3.444   1.058   0.211  0.4936 -0.1897 -1.5881
 1631TIP3   OH226307   2.585   4.024   3.216  0.0309  0.0700  0.3391
 1631TIP3    H126308   2.617   4.024   3.126  1.3944  1.4187  0.7886
 1631TIP3    H226309   2.598   3.934   3.246  0.4754 -0.1524 -0.4929
 1632TIP3   OH226310   3.569   1.493   0.641  0.2815 -0.2082  0.0836
 1632TIP3    H126311   3.519   1.574   0.656 -0.2853 -0.1009 -2.0996
 1632TIP3    H226312   3.659   1.523   0.630  0.4599 -0.1437  1.4944
 1633TIP3   OH226313   2.868   5.745  11.629 -0.7700 -0.5190 -0.1414
 1633TIP3    H126314   2.949   5.703  11.658 -1.9689 -2.2744  0.8353
 1633TIP3    H226315   2.874   5.744  11.533 -0.2355 -1.9000 -0.1141
 1634TIP3   OH226316   4.362   2.310   3.220 -0.0587  0.7345 -0.2885
 1634TIP3    H126317   4.349   2.378   3.286 -0.3519  0.0612  0.3602
 1634TIP3    H226318   4.393   2.358   3.143 -0.6414  1.6553  0.0239
 1635TIP3   OH226319   3.920   3.076  10.929 -1.0180 -0.1674 -0.1416
 1635TIP3    H126320   3.846   3.135  10.942 -2.8571 -2.0357 -1.6021
 1635TIP3    H226321   3.993   3.119  10.974 -3.3630  0.8741  3.0546
 1636TIP3   OH226322   0.429   1.825  15.771  0.3002 -0.5489  0.0470
 1636TIP3    H126323   0.389   1.877  15.702 -1.6663 -0.4938  1.1457
 1636TIP3    H226324   0.439   1.738  15.733  1.5867  0.0435 -1.0786
 1637TIP3   OH226325   4.978   1.820   5.155  0.1933 -0.5420 -0.3117
 1637TIP3    H126326   5.064   1.862   5.153 -0.2276  0.3143 -1.3205
 1637TIP3    H226327   4.916   1.892   5.168 -0.4277 -1.0780 -0.2053
 1638TIP3   OH226328   5.480   4.192  15.563  0.3736 -0.1721  0.0073
 1638TIP3    H126329   5.574   4.200  15.579  0.4012 -0.8496  0.2568
 1638TIP3    H226330   5.465   4.097  15.557 -0.8644 -0.4183  3.8467
 1639TIP3   OH226331   0.307   4.858  16.608  0.5224  0.2107  0.2320
 1639TIP3    H126332   0.402   4.865  16.623  0.8432 -0.7673 -1.1167
 1639TIP3    H226333   0.300   4.804  16.529 -1.0151  2.8265 -1.5937
 1640TIP3   OH226334   4.278   4.214  15.166 -0.1073  0.0393  0.0181
 1640TIP3    H126335   4.193   4.223  15.122  0.1781 -0.3529 -0.6233
 1640TIP3    H226336   4.340   4.194  15.096  0.8078  1.8187  0.2602
 1641TIP3   OH226337   4.687   4.306  15.829  0.4422 -0.6975 -0.1408
 1641TIP3    H126338   4.651   4.374  15.772 -2.0686 -0.5370  1.4622
 1641TIP3    H226339   4.614   4.245  15.841  1.3950 -1.5638  1.5974
 1642TIP3   OH226340   1.814   0.589   0.196  0.3451 -0.0450 -0.2847
 1642TIP3    H126341   1.777   0.547   0.274  1.9356 -1.2938 -0.1646
 1642TIP3    H226342   1.797   0.527   0.125  0.2482  0.3993 -0.6545
 1643TIP3   OH226343   4.683   5.182  12.141 -0.1303 -0.6270 -0.2205
 1643TIP3    H126344   4.756   5.146  12.190  0.2726  0.4756  0.0306
 1643TIP3    H226345   4.616   5.200  12.208  0.1699  0.2705 -0.1469
 1644TIP3   OH226346   6.156   6.724  16.105  0.0157  0.0574  0.5883
 1644TIP3    H126347   6.187   6.774  16.181  0.4464 -0.1135  0.5307
 1644TIP3    H226348   6.211   6.755  16.033  0.1118 -0.3121  0.4995
 1645TIP3   OH226349   1.305   5.052  16.519 -0.3419  0.4352  0.5049
 1645TIP3    H126350   1.240   5.009  16.575  1.0923  0.9829  2.7164
 1645TIP3    H226351   1.383   4.996  16.526 -0.0375  0.6857 -0.7362
 1646TIP3   OH226352   3.646   6.130   5.606 -0.1229 -0.4232  0.0211
 1646TIP3    H126353   3.668   6.078   5.683 -2.0417 -1.9064 -0.3376
 1646TIP3    H226354   3.722   6.121   5.549 -0.2949 -2.7596  0.0623
 1647TIP3   OH226355   0.089   0.218   2.025 -0.2335 -0.2294 -0.3077
 1647TIP3    H126356   0.127   0.306   2.024 -0.6628 -0.0124  1.0302
 1647TIP3    H226357   0.028   0.218   1.951 -0.8705  0.9011  0.1841
 1648TIP3   OH226358   4.882   1.033   6.519 -0.5957 -0.0857  0.1205
 1648TIP3    H126359   4.897   1.015   6.426  0.7062 -2.1516  0.6723
 1648TIP3    H226360   4.806   0.980   6.542 -0.2608 -0.4184  0.4740
 1649TIP3   OH226361   0.264   2.151   4.727  0.2759  0.8812  0.3908
 1649TIP3    H126362   0.342   2.184   4.683 -0.2887 -1.3031 -2.5792
 1649TIP3    H226363   0.295   2.072   4.773  0.0183  0.5587  0.0169
 1650TIP3   OH226364   1.320   6.291  12.231 -0.3043 -0.1810  1.0529
 1650TIP3    H126365   1.260   6.220  12.213 -1.0598  0.3956  1.2403
 1650TIP3    H226366   1.336   6.287  12.325  0.4640 -0.7206  0.9106
 1651TIP3   OH226367   0.315   6.423   2.745  0.2307 -0.4965  0.0904
 1651TIP3    H126368   0.328   6.445   2.653  1.8846 -0.5893  0.2711
 1651TIP3    H226369   0.401   6.435   2.786 -0.6786  0.5200  1.8512
 1652TIP3   OH226370   4.585   1.207   3.666 -0.0192 -0.2088 -0.3080
 1652TIP3    H126371   4.594   1.285   3.721  0.4818 -1.1083  0.9297
 1652TIP3    H226372   4.573   1.242   3.578 -0.5355  1.2737  0.3143
 1653TIP3   OH226373   4.763   3.284   4.072  0.1655 -0.5810 -0.1742
 1653TIP3    H126374   4.729   3.341   4.141  0.3070  1.0177 -1.3599
 1653TIP3    H226375   4.851   3.317   4.055  0.3731 -1.3687 -0.6921
 1654TIP3   OH226376   3.510   4.251  14.205 -0.1000  0.6557  0.2067
 1654TIP3    H126377   3.485   4.329  14.254 -2.6497 -0.0809  0.2145
 1654TIP3    H226378   3.541   4.285  14.121  0.8814  1.7443  0.9800
 1655TIP3   OH226379   0.875   4.457  13.591 -0.6532  0.0098 -0.3513
 1655TIP3    H126380   0.806   4.426  13.650 -2.6817  3.8851 -0.2830
 1655TIP3    H226381   0.853   4.418  13.506 -1.1702 -1.1139  0.2789
 1656TIP3   OH226382   0.883   1.425   1.618 -0.1148 -0.1989 -0.2383
 1656TIP3    H126383   0.916   1.488   1.682  2.0161 -0.5817 -0.8835
 1656TIP3    H226384   0.944   1.352   1.623  0.0756 -0.2883 -2.6000
 1657TIP3   OH226385   5.954   4.090  16.935  0.3798 -0.3197 -0.4130
 1657TIP3    H126386   5.975   4.070  17.026 -1.8760  2.8351  0.9659
 1657TIP3    H226387   5.863   4.062  16.924  1.0250 -1.9505 -2.2291
 1658TIP3   OH226388   3.404   5.763   1.119 -0.2666  0.1312  0.3914
 1658TIP3    H126389   3.463   5.727   1.185 -0.0176  0.3982  0.3163
 1658TIP3    H226390   3.423   5.857   1.119  0.4256  0.0151 -0.7340
 1659TIP3   OH226391   0.500   4.579  16.742 -0.5228  0.4252 -0.6687
 1659TIP3    H126392   0.407   4.603  16.737 -0.1584  2.2036  0.2954
 1659TIP3    H226393   0.535   4.603  16.656 -1.1050 -1.1454 -1.3863
 1660TIP3   OH226394   6.370   4.531  13.761  0.6074 -0.0778  0.6570
 1660TIP3    H126395   6.415   4.447  13.762 -0.0172 -0.4786 -0.7777
 1660TIP3    H226396   6.393   4.573  13.843  3.5148 -0.2753  0.0330
 1661TIP3   OH226397   5.007   0.170  15.376 -0.1861  0.1072  0.2674
 1661TIP3    H126398   4.993   0.111  15.302 -2.0129  3.9647 -2.8392
 1661TIP3    H226399   5.102   0.175  15.386  0.3123  1.2557 -3.6458
 1662TIP3   OH226400   2.899   2.206  13.632  0.2835 -0.1887 -0.4407
 1662TIP3    H126401   2.832   2.272  13.617  0.1917 -0.2018 -0.1047
 1662TIP3    H226402   2.915   2.167  13.546 -0.2118 -0.2538 -0.5085
 1663TIP3   OH226403   1.350   1.426   2.131 -0.4879 -0.5985 -0.2215
 1663TIP3    H126404   1.424   1.405   2.189 -0.5509 -0.1361  0.0308
 1663TIP3    H226405   1.388   1.424   2.043  0.1554  0.9651 -0.0057
 1664TIP3   OH226406   1.008   0.416   3.000 -0.0006  0.4603  0.6035
 1664TIP3    H126407   1.072   0.486   2.987 -0.6453  1.2029  1.3327
 1664TIP3    H226408   1.012   0.365   2.919  1.7763  0.2581  0.7908
 1665TIP3   OH226409   0.617   5.670   2.769 -0.2179  0.0629  0.0740
 1665TIP3    H126410   0.709   5.691   2.781 -0.5693  1.1875  1.0668
 1665TIP3    H226411   0.616   5.591   2.715  1.3094  0.0843 -0.0091
 1666TIP3   OH226412   3.839   6.642   5.127  0.1968 -0.2003  0.0788
 1666TIP3    H126413   3.865   6.659   5.036  0.1252 -0.3151  0.0364
 1666TIP3    H226414   3.891   6.567   5.153 -0.6409 -0.9089 -0.2551
 1667TIP3   OH226415   4.261   6.427  13.081 -0.2618  0.2803 -0.2592
 1667TIP3    H126416   4.279   6.398  12.992  0.3301  0.8816 -0.3442
 1667TIP3    H226417   4.307   6.510  13.089 -0.1083  0.1189  0.6880
 1668TIP3   OH226418   4.377   6.614  16.550 -0.0671  0.0447 -0.0809
 1668TIP3    H126419   4.328   6.535  16.570  0.7703 -0.1293  1.3678
 1668TIP3    H226420   4.360   6.673  16.623  2.5338 -0.3457  0.9521
 1669TIP3   OH226421   0.327   5.681  13.273  0.5355 -0.8893  0.2457
 1669TIP3    H126422   0.390   5.729  13.219  0.4480 -2.5699 -1.4444
 1669TIP3    H226423   0.256   5.660  13.213  0.1264 -2.2986  1.1868
 1670TIP3   OH226424   3.929   0.637  17.240 -0.3741  0.1543 -0.0228
 1670TIP3    H126425   3.925   0.695  17.316 -1.3194  2.0988 -1.4741
 1670TIP3    H226426   4.014   0.593  17.249 -1.1242 -0.9578  2.9629
 1671TIP3   OH226427   1.968   0.974  12.654 -0.1723  0.1086  0.1597
 1671TIP3    H126428   1.996   1.031  12.725 -1.6372  0.0294  0.8289
 1671TIP3    H226429   2.032   0.990  12.584  1.1806  0.3306  1.3988
 1672TIP3   OH226430   4.696   1.009  14.697 -0.0499  0.5957  0.0016
 1672TIP3    H126431   4.682   0.933  14.752  0.0505 -1.4726 -2.6096
 1672TIP3    H226432   4.755   1.065  14.747  0.5561 -1.4274  1.6920
 1673TIP3   OH226433   1.536   1.145  10.560  0.1747 -0.4060  0.1635
 1673TIP3    H126434   1.490   1.080  10.509  1.2493 -0.4282 -0.8203
 1673TIP3    H226435   1.495   1.142  10.646  0.5671 -2.7889  0.3206
 1674TIP3   OH226436   2.989   6.510   3.891 -0.8777 -0.3269  0.5375
 1674TIP3    H126437   2.909   6.472   3.927 -1.6942  0.8003 -0.0353
 1674TIP3    H226438   2.959   6.569   3.822  0.5967 -1.8272 -1.4807
 1675TIP3   OH226439   2.095   4.833   4.175  0.2553 -0.4820  0.2694
 1675TIP3    H126440   2.032   4.856   4.107 -0.0340  0.2446  0.7736
 1675TIP3    H226441   2.128   4.917   4.208  1.6050 -0.8455 -0.0819
 1676TIP3   OH226442   1.863   0.579  12.391 -1.0659  0.0340 -0.3054
 1676TIP3    H126443   1.915   0.500  12.405  0.7812  1.3063  0.2031
 1676TIP3    H226444   1.841   0.610  12.479 -0.2833  1.0367 -0.4491
 1677TIP3   OH226445   0.525   2.377  14.316  0.1073  0.2473  0.4549
 1677TIP3    H126446   0.454   2.418  14.366  0.9339  0.0403  1.8438
 1677TIP3    H226447   0.598   2.371  14.378  0.4101 -2.2729 -0.0364
 1678TIP3   OH226448   2.481   4.466   2.717  0.2295 -0.1122  0.7553
 1678TIP3    H126449   2.457   4.446   2.626 -1.3705 -0.7417  1.2806
 1678TIP3    H226450   2.435   4.399   2.769  0.4764  0.7136  2.0787
 1679TIP3   OH226451   1.344   1.019   4.764 -0.3723  0.2776 -0.7223
 1679TIP3    H126452   1.288   0.943   4.752 -1.9121  1.3107 -0.4305
 1679TIP3    H226453   1.348   1.031   4.859 -1.9742  1.8142 -0.8064
 1680TIP3   OH226454   3.392   0.621  12.164  0.7492 -0.1274  0.3209
 1680TIP3    H126455   3.406   0.664  12.080 -1.5989 -0.7580 -0.4573
 1680TIP3    H226456   3.406   0.690  12.229  3.0647  0.2574 -0.4872
 1681TIP3   OH226457   4.064   3.335   3.498 -0.1700  0.4836  0.0783
 1681TIP3    H126458   4.159   3.328   3.489  0.0242 -1.0573  2.3428
 1681TIP3    H226459   4.032   3.348   3.409  2.1913  1.8985 -0.6385
 1682TIP3   OH226460   3.690   4.333  15.936 -0.0654  0.4199  0.4964
 1682TIP3    H126461   3.724   4.244  15.942 -3.5885 -1.0837  1.0103
 1682TIP3    H226462   3.756   4.382  15.886  3.2905 -1.6895  2.4961
 1683TIP3   OH226463   2.980   3.998   3.405 -0.0457  0.3621  0.5564
 1683TIP3    H126464   3.070   3.972   3.386  0.1456  1.9209 -0.9199
 1683TIP3    H226465   2.951   4.044   3.326 -1.5225  1.4860  1.6968
 1684TIP3   OH226466   3.731   2.143  14.710 -0.1950 -0.5572 -0.0665
 1684TIP3    H126467   3.647   2.118  14.749 -0.1265  2.3996  2.3230
 1684TIP3    H226468   3.795   2.126  14.779  0.5991  0.7344 -0.4565
 1685TIP3   OH226469   0.245   6.080  14.247 -0.4250  0.4986 -0.4302
 1685TIP3    H126470   0.181   6.133  14.294 -0.7408 -0.3643  0.1565
 1685TIP3    H226471   0.320   6.138  14.233 -1.2365  1.4514 -0.9108
 1686TIP3   OH226472   5.901   6.647  15.592  0.1710 -0.4359 -0.5313
 1686TIP3    H126473   5.935   6.625  15.679 -1.3780  0.2696  0.2972
 1686TIP3    H226474   5.978   6.643  15.534  1.5114  0.3465  1.0971
 1687TIP3   OH226475   1.473   4.307   2.712 -0.0958  0.4036 -0.4905
 1687TIP3    H126476   1.504   4.306   2.803 -0.4493 -0.2543 -0.3706
 1687TIP3    H226477   1.383   4.273   2.717  0.3951 -1.1066 -1.2623
 1688TIP3   OH226478   6.127   3.098   4.234 -0.4146  0.2077  0.1525
 1688TIP3    H126479   6.213   3.079   4.197  0.1228 -0.0661  1.4898
 1688TIP3    H226480   6.067   3.043   4.184  0.2629  0.0075 -0.4550
 1689TIP3   OH226481   2.156   5.842   0.641  0.2583 -0.2663  0.0760
 1689TIP3    H126482   2.156   5.937   0.651 -0.1024 -0.3460  0.9350
 1689TIP3    H226483   2.241   5.814   0.675 -0.2496 -0.3754  1.3120
 1690TIP3   OH226484   1.341   6.294   0.033  0.0361 -0.0401  0.3330
 1690TIP3    H126485   1.355   6.231  -0.038 -1.1950 -2.4697  2.0791
 1690TIP3    H226486   1.416   6.353   0.028  1.4970 -1.8796 -1.1951
 1691TIP3   OH226487   2.266   1.263  16.125 -0.2664  0.4037 -0.1387
 1691TIP3    H126488   2.301   1.330  16.065  2.5520  0.6943  1.6396
 1691TIP3    H226489   2.207   1.310  16.183  0.4529  1.0511  0.0807
 1692TIP3   OH226490   4.250   4.124   0.602 -0.3090 -0.1305 -0.0163
 1692TIP3    H126491   4.280   4.092   0.687 -2.2116 -1.6441  0.1550
 1692TIP3    H226492   4.165   4.082   0.589 -2.7623  4.3359 -0.1741
 1693TIP3   OH226493   1.186   5.767  10.801  0.0740  0.2539  0.7239
 1693TIP3    H126494   1.221   5.678  10.798 -0.4861 -0.0028  1.5985
 1693TIP3    H226495   1.092   5.756  10.811 -0.1030  0.9484 -0.0617
 1694TIP3   OH226496   2.890   0.292   0.401  0.3076 -0.2930  0.4546
 1694TIP3    H126497   2.952   0.259   0.336 -0.0169 -2.6566  1.2760
 1694TIP3    H226498   2.908   0.242   0.480  0.9926  2.7929  2.4434
 1695TIP3   OH226499   5.428   2.702  16.112 -0.2930  0.1898 -0.3847
 1695TIP3    H126500   5.394   2.741  16.192  1.6911  2.1190 -0.3992
 1695TIP3    H226501   5.475   2.624  16.142  0.2075  0.7493  0.3173
 1696TIP3   OH226502   5.321   3.216  10.925 -0.0360  0.3778 -0.0153
 1696TIP3    H126503   5.396   3.157  10.919 -0.3188 -0.3366  2.4907
 1696TIP3    H226504   5.328   3.255  11.012 -1.0777  2.4283 -0.7774
 1697TIP3   OH226505   6.434   0.044  14.795  0.2672 -0.5959 -0.5229
 1697TIP3    H126506   6.384   0.008  14.868  0.6240  0.9707  0.5452
 1697TIP3    H226507   6.497   0.103  14.836  1.0378 -0.3134 -2.0500
 1698TIP3   OH226508   0.905   4.196  11.519  0.0866  1.2572  0.4761
 1698TIP3    H126509   0.900   4.224  11.428  1.1170 -1.3398 -0.4657
 1698TIP3    H226510   0.988   4.148  11.525 -1.1714 -0.9222  2.0312
 1699TIP3   OH226511   1.284   4.877  17.161 -0.1522 -0.7030  0.4706
 1699TIP3    H126512   1.282   4.797  17.212 -0.7122  0.0761  1.7172
 1699TIP3    H226513   1.371   4.914  17.177 -0.1224 -0.7493  0.4119
 1700TIP3   OH226514   3.839   0.390   4.601 -0.1222  0.6002 -0.1782
 1700TIP3    H126515   3.882   0.361   4.521 -0.2194 -0.2083  0.0513
 1700TIP3    H226516   3.824   0.310   4.651  1.7697  1.2664  1.5965
 1701TIP3   OH226517   0.095   0.191  15.044  0.1643 -0.0066 -0.0589
 1701TIP3    H126518   0.057   0.214  14.959 -1.2709  0.7507  0.7390
 1701TIP3    H226519   0.036   0.124  15.079  0.5387 -0.0565  0.4810
 1702TIP3   OH226520   3.339   0.680  16.886 -0.1400  0.0391 -0.8099
 1702TIP3    H126521   3.245   0.685  16.869 -0.3417  0.3527  0.3246
 1702TIP3    H226522   3.352   0.732  16.965  1.2531  1.4084 -1.8723
 1703TIP3   OH226523   0.048   4.608  12.518  0.1459 -0.1951  0.2500
 1703TIP3    H126524   0.018   4.672  12.453 -2.0802 -0.8393  0.5932
 1703TIP3    H226525  -0.016   4.612  12.588  0.7144 -1.8532  0.9212
 1704TIP3   OH226526   0.799   0.003   2.040 -0.1491 -0.1327 -0.2230
 1704TIP3    H126527   0.778   0.092   2.012 -1.5913 -0.2097  0.5113
 1704TIP3    H226528   0.767  -0.053   1.969  1.2723 -0.0687 -0.9503
 1705TIP3   OH226529   5.204   5.113   3.947  0.2091 -0.1082 -0.4203
 1705TIP3    H126530   5.143   5.105   3.874 -0.4883  0.3177  0.1130
 1705TIP3    H226531   5.176   5.190   3.994  1.9019  0.8216 -0.8448
 1706TIP3   OH226532   5.619   0.745   4.666  0.2837  0.1548 -0.3440
 1706TIP3    H126533   5.707   0.715   4.687  0.0870  0.0468  0.3602
 1706TIP3    H226534   5.587   0.783   4.748 -0.7008 -0.7266 -0.2947
 1707TIP3   OH226535   2.947   5.917   3.204 -0.3653  0.0773  0.3110
 1707TIP3    H126536   3.035   5.891   3.175 -1.1367 -1.0684 -1.0976
 1707TIP3    H226537   2.963   5.978   3.276  1.5868  0.1361 -0.1234
 1708TIP3   OH226538   4.812   4.860   1.689 -0.6720  0.1352 -0.6881
 1708TIP3    H126539   4.764   4.829   1.612 -3.4540 -0.4083  1.1027
 1708TIP3    H226540   4.814   4.784   1.748  0.2643  0.8837  0.2757
 1709TIP3   OH226541   4.758   5.313  10.406 -0.0323  0.6122  0.2334
 1709TIP3    H126542   4.814   5.380  10.444  1.8642 -0.3713 -0.6869
 1709TIP3    H226543   4.818   5.244  10.378 -1.5375  0.0971 -2.0841
 1710TIP3   OH226544   3.345   1.687   1.054  0.2658  0.3337 -0.2275
 1710TIP3    H126545   3.379   1.737   0.980  1.4098 -0.4819 -0.2823
 1710TIP3    H226546   3.256   1.720   1.067  0.1978  0.7772 -1.6916
 1711TIP3   OH226547   5.986   3.959   1.852  0.0668 -0.2674 -0.7045
 1711TIP3    H126548   5.961   3.883   1.799  0.6774 -0.6663 -0.4446
 1711TIP3    H226549   6.002   3.922   1.939 -0.1337  0.2485 -0.4477
 1712TIP3   OH226550   0.351   1.451   5.469  0.3444  0.0360  0.1554
 1712TIP3    H126551   0.301   1.457   5.388  1.5182 -0.7755 -0.6514
 1712TIP3    H226552   0.439   1.426   5.442  1.2530  1.5603  1.5316
 1713TIP3   OH226553   3.858   3.658   4.951  0.0335  0.1281 -0.0027
 1713TIP3    H126554   3.797   3.621   5.015  0.6217 -1.6055 -0.3831
 1713TIP3    H226555   3.803   3.710   4.893 -0.9210 -0.4748  0.3308
 1714TIP3   OH226556   1.897   6.167  13.928  0.0766  0.0321 -0.5737
 1714TIP3    H126557   1.850   6.239  13.887 -0.0615 -0.5569 -1.4568
 1714TIP3    H226558   1.839   6.092  13.920  0.4302 -0.2991 -0.1100
 1715TIP3   OH226559   1.316   4.355   3.076 -0.3406 -0.0105  0.2880
 1715TIP3    H126560   1.396   4.379   3.121 -0.9052 -0.2933  1.4787
 1715TIP3    H226561   1.253   4.338   3.146 -1.4682  0.2948 -0.6220
 1716TIP3   OH226562   1.771   1.697   3.072 -0.5737 -0.1364  0.0209
 1716TIP3    H126563   1.781   1.609   3.036 -3.5133 -0.6988  0.3287
 1716TIP3    H226564   1.841   1.748   3.032  2.3404 -2.9557  1.1486
 1717TIP3   OH226565   5.279   4.083   1.534  0.3798 -0.4629  0.2108
 1717TIP3    H126566   5.253   4.140   1.606  0.3415 -0.9466  0.5840
 1717TIP3    H226567   5.204   4.084   1.474  0.7189  0.5704 -0.2300
 1718TIP3   OH226568   4.785   6.605  14.938  0.0913  0.3109 -0.0978
 1718TIP3    H126569   4.800   6.697  14.962  0.6593  0.2296 -0.1377
 1718TIP3    H226570   4.780   6.606  14.843 -1.2912  0.4987 -0.0555
 1719TIP3   OH226571   1.205   0.841   2.807  0.4725 -0.1347 -0.0593
 1719TIP3    H126572   1.132   0.780   2.798  0.8595 -0.3163 -3.1030
 1719TIP3    H226573   1.170   0.912   2.860 -1.4670 -0.8709 -0.2523
 1720TIP3   OH226574   3.163   0.634   0.995  0.2918 -0.4243 -0.1948
 1720TIP3    H126575   3.154   0.721   0.957 -0.4702 -0.6480 -0.5535
 1720TIP3    H226576   3.227   0.644   1.066  0.3996  0.3643 -0.4046
 1721TIP3   OH226577   1.826   3.615   3.170  0.3917  0.4868 -0.0274
 1721TIP3    H126578   1.773   3.668   3.111 -0.5602 -0.6359 -0.1948
 1721TIP3    H226579   1.877   3.680   3.219 -0.1638  1.5226 -0.7708
 1722TIP3   OH226580   2.090   4.366  15.224  0.8320 -0.0554  0.6286
 1722TIP3    H126581   2.132   4.350  15.139 -1.3303 -1.9160 -0.1989
 1722TIP3    H226582   2.158   4.348  15.288  1.7613 -1.4807 -0.6802
 1723TIP3   OH226583   0.156   0.542   5.933 -0.1789 -0.1542  0.2665
 1723TIP3    H126584   0.217   0.551   5.860  0.0093  3.4100  0.6545
 1723TIP3    H226585   0.194   0.474   5.989  1.5781 -0.4405 -1.1977
 1724TIP3   OH226586   1.905   6.280  14.621  0.0545  0.1394 -0.0048
 1724TIP3    H126587   1.821   6.325  14.625 -0.2224 -0.3896  0.1843
 1724TIP3    H226588   1.888   6.201  14.571  0.2229 -0.4378  0.8247
 1725TIP3   OH226589   5.723   3.093  11.520 -0.3999 -0.6860  0.0586
 1725TIP3    H126590   5.789   3.162  11.515  0.0853 -1.2294 -1.9419
 1725TIP3    H226591   5.737   3.052  11.605  2.9556 -1.8084 -0.8692
 1726TIP3   OH226592   0.915   5.201  14.556 -0.6270 -0.1183 -0.3672
 1726TIP3    H126593   0.857   5.183  14.631 -0.2681  0.7843  0.1430
 1726TIP3    H226594   0.994   5.237  14.595 -0.1202 -0.3859 -1.1368
 1727TIP3   OH226595   5.963   2.716   5.475 -0.4360 -0.4211  0.1229
 1727TIP3    H126596   5.939   2.643   5.533  0.7148 -1.0168 -0.1030
 1727TIP3    H226597   5.926   2.793   5.517 -3.4752 -1.3083 -0.6654
 1728TIP3   OH226598   2.555   5.746   3.037 -0.1594  0.5607 -0.9518
 1728TIP3    H126599   2.606   5.682   2.989  0.2131 -0.2597  0.4648
 1728TIP3    H226600   2.580   5.831   3.000  0.6393  0.0188 -1.6833
 1729TIP3   OH226601   2.311   1.435   4.718  0.1278  0.3336  0.5900
 1729TIP3    H126602   2.399   1.470   4.729  0.0500  0.1916  1.7110
 1729TIP3    H226603   2.265   1.502   4.668  1.3285 -0.3520 -1.5920
 1730TIP3   OH226604   6.613   6.719  15.503 -0.1820 -0.2843  0.2611
 1730TIP3    H126605   6.519   6.722  15.488 -0.2213  0.1668  0.5905
 1730TIP3    H226606   6.635   6.805  15.539  0.0374 -1.0175  1.9745
 1731TIP3   OH226607   4.057   6.172   3.614 -0.4233  0.7666 -0.3701
 1731TIP3    H126608   4.093   6.188   3.701  1.7642 -1.7352 -0.6814
 1731TIP3    H226609   4.123   6.206   3.554 -0.8549  0.4922 -1.0146
 1732TIP3   OH226610   3.453   3.796   1.690 -0.0112  0.3265  0.3752
 1732TIP3    H126611   3.503   3.874   1.714  0.3020  0.0706  0.5682
 1732TIP3    H226612   3.520   3.729   1.675 -0.0367  0.8708 -2.8552
 1733TIP3   OH226613   3.361   2.012  13.419  0.1942  0.3293  0.1744
 1733TIP3    H126614   3.324   2.039  13.503 -2.6116  0.7092 -1.0887
 1733TIP3    H226615   3.322   1.926  13.402 -0.2971  0.8079 -1.2913
 1734TIP3   OH226616   6.471   1.692   0.095  0.8477 -0.0488 -0.1292
 1734TIP3    H126617   6.425   1.651   0.023 -0.1813 -0.6678  0.8499
 1734TIP3    H226618   6.426   1.775   0.109  1.7521  0.5977 -0.8956
 1735TIP3   OH226619   5.810   4.892   0.289  0.1854  0.2652  0.1740
 1735TIP3    H126620   5.733   4.946   0.267  0.0680  0.1760  0.3598
 1735TIP3    H226621   5.823   4.907   0.383  0.7263  0.6992  0.0371
 1736TIP3   OH226622   4.253   5.468   6.577  0.9474 -0.8786 -0.4953
 1736TIP3    H126623   4.190   5.439   6.643  0.9623 -0.2849 -0.2146
 1736TIP3    H226624   4.207   5.458   6.493 -1.3747  3.8456 -0.1139
 1737TIP3   OH226625   6.133   2.060  13.463 -1.1188  0.5459  0.2476
 1737TIP3    H126626   6.040   2.039  13.454 -0.9067  0.1109 -1.1949
 1737TIP3    H226627   6.178   1.989  13.416 -0.1959  2.0355 -1.2408
 1738TIP3   OH226628   3.177   5.332   1.160  0.2651  0.1119  0.0137
 1738TIP3    H126629   3.253   5.374   1.119  0.4018  0.7696  0.8810
 1738TIP3    H226630   3.205   5.317   1.251 -1.0088  1.4490  0.6880
 1739TIP3   OH226631   0.581   1.528  14.260  0.5708  0.1381  0.2715
 1739TIP3    H126632   0.578   1.534  14.164 -0.3103  0.6136  0.3168
 1739TIP3    H226633   0.532   1.605  14.290  1.4112  0.3544  1.1166
 1740TIP3   OH226634   5.494   2.331   3.106 -0.1169  0.2048  0.0979
 1740TIP3    H126635   5.554   2.400   3.080  0.0872  0.2272  0.6141
 1740TIP3    H226636   5.428   2.375   3.161 -1.9680  0.6296 -2.3040
 1741TIP3   OH226637   1.453   5.051   3.938 -0.4448  0.0801 -0.5125
 1741TIP3    H126638   1.497   5.124   3.895 -0.5401  0.9600  0.8221
 1741TIP3    H226639   1.521   5.011   3.992 -0.6234 -0.2418 -0.5277
 1742TIP3   OH226640   0.896   3.081  14.245  0.5164 -0.3330  0.8603
 1742TIP3    H126641   0.955   3.111  14.176  1.3938 -0.8146  1.3868
 1742TIP3    H226642   0.898   2.985  14.238 -3.0294 -0.4391 -1.4737
 1743TIP3   OH226643   3.483   0.179   4.643  0.4046 -0.4467 -0.2935
 1743TIP3    H126644   3.443   0.261   4.673  0.1899 -0.5420 -0.3163
 1743TIP3    H226645   3.478   0.183   4.548 -0.1037 -0.7287 -0.2833
 1744TIP3   OH226646   0.119   3.404  17.118 -0.4117  0.0368  0.6696
 1744TIP3    H126647   0.111   3.337  17.050 -0.4522 -0.1705  0.8782
 1744TIP3    H226648   0.162   3.360  17.191  1.5460  0.8054  0.0421
 1745TIP3   OH226649   5.926   6.629  13.312  0.2379  0.8966 -0.8878
 1745TIP3    H126650   5.969   6.671  13.386  0.8174  1.0634 -1.3092
 1745TIP3    H226651   5.970   6.544  13.304 -0.3299  0.5681 -0.5851
 1746TIP3   OH226652   5.311   4.317  15.383  0.1367 -0.3706  0.3275
 1746TIP3    H126653   5.285   4.395  15.431  0.6486  1.7160 -2.4825
 1746TIP3    H226654   5.387   4.283  15.430 -0.0371  0.8993  1.5750
 1747TIP3   OH226655   6.065   0.977   3.380  0.2026 -0.0379  0.2422
 1747TIP3    H126656   6.111   0.976   3.296  2.0453 -0.9854  1.1852
 1747TIP3    H226657   6.134   0.996   3.444 -1.0737  0.2262  1.5938
 1748TIP3   OH226658   6.158   4.726  14.690 -0.4370 -0.1305 -0.4599
 1748TIP3    H126659   6.122   4.815  14.686 -1.6426 -0.6328 -2.4908
 1748TIP3    H226660   6.092   4.675  14.736  0.4974  0.0695  1.1898
 1749TIP3   OH226661   6.695   5.796   4.914  0.2606  0.0156  0.0808
 1749TIP3    H126662   6.771   5.833   4.871 -0.4743  0.5531 -0.7953
 1749TIP3    H226663   6.621   5.848   4.882 -0.4129 -0.0628  1.3922
 1750TIP3   OH226664   5.475   6.127   0.335 -0.2847 -0.8090  0.2963
 1750TIP3    H126665   5.433   6.052   0.378  1.9574 -1.2605  1.9077
 1750TIP3    H226666   5.565   6.097   0.318  0.0056  0.7454 -1.1873
 1751TIP3   OH226667   2.531   6.545  13.355  0.3299 -0.1268  0.2471
 1751TIP3    H126668   2.574   6.469  13.315  0.8008 -0.3183  1.0789
 1751TIP3    H226669   2.454   6.561  13.300 -0.8934 -2.4347  1.1351
 1752TIP3   OH226670   1.032   5.600   5.770 -0.2812  0.0528 -0.0362
 1752TIP3    H126671   0.983   5.638   5.843 -0.0611  1.0603 -0.4077
 1752TIP3    H226672   1.091   5.536   5.812  1.4038  2.1439  0.9650
 1753TIP3   OH226673   5.000   0.312  15.909 -0.6437 -0.3663 -0.3043
 1753TIP3    H126674   5.021   0.402  15.936 -2.3488  0.0891 -0.3902
 1753TIP3    H226675   4.909   0.299  15.937 -1.2693 -1.1874 -2.4852
 1754TIP3   OH226676   3.305   0.280   0.324  0.2174  0.4512  0.1008
 1754TIP3    H126677   3.322   0.364   0.367 -0.4999  0.0814  1.1519
 1754TIP3    H226678   3.351   0.286   0.240  0.0275  1.9552  0.0768
 1755TIP3   OH226679   0.948   4.879   3.695  0.0875  0.0778  0.2742
 1755TIP3    H126680   0.938   4.873   3.600  0.4059 -0.9017  0.2911
 1755TIP3    H226681   1.030   4.927   3.707  0.3273 -0.2718  0.0460
 1756TIP3   OH226682   5.625   5.452  12.302  0.1688 -0.0069 -0.1344
 1756TIP3    H126683   5.713   5.421  12.326 -0.6137 -1.8173  0.5875
 1756TIP3    H226684   5.603   5.402  12.223  0.8863  2.5814 -2.1152
 1757TIP3   OH226685   1.925   3.473  16.848 -0.1310  0.3729 -0.5312
 1757TIP3    H126686   1.965   3.478  16.935  2.5192 -1.9687 -1.4351
 1757TIP3    H226687   1.981   3.527  16.793 -0.7940  0.5131 -1.0765
 1758TIP3   OH226688   4.244   4.182   3.487 -0.0818 -0.0568 -0.5040
 1758TIP3    H126689   4.180   4.216   3.550 -0.8051  0.1990 -1.3503
 1758TIP3    H226690   4.191   4.152   3.414  0.7408 -0.4256 -0.9539
 1759TIP3   OH226691   5.878   5.218  14.309  0.0965 -0.1792  0.3589
 1759TIP3    H126692   5.890   5.312  14.320 -0.0829 -0.2632  1.3905
 1759TIP3    H226693   5.813   5.194  14.375  0.5803 -1.1211  0.5181
 1760TIP3   OH226694   5.330   2.838   5.879  0.7083 -0.1874  0.1489
 1760TIP3    H126695   5.364   2.806   5.795 -1.0178  0.4121 -0.8273
 1760TIP3    H226696   5.371   2.923   5.891  0.3796  0.0645 -0.4820
 1761TIP3   OH226697   1.546   0.124   5.328  0.3278 -0.5328 -0.7572
 1761TIP3    H126698   1.630   0.096   5.364 -0.5813  0.2222  2.2166
 1761TIP3    H226699   1.556   0.114   5.234  3.0960 -2.2112 -0.3918
 1762TIP3   OH226700   5.398   0.752   3.436  0.0711 -0.0756 -0.1515
 1762TIP3    H126701   5.326   0.690   3.450 -0.6988  0.1840 -2.5682
 1762TIP3    H226702   5.454   0.710   3.371  0.1455  1.2391 -0.9767
 1763TIP3   OH226703   0.808   1.484  10.606  0.3052  0.2688  0.1267
 1763TIP3    H126704   0.744   1.502  10.675  1.7544 -0.3534  1.6745
 1763TIP3    H226705   0.892   1.481  10.651  1.4551  1.0624 -1.8658
 1764TIP3   OH226706   4.712   2.881   5.930  0.2019  0.2128  0.3240
 1764TIP3    H126707   4.738   2.823   6.002 -1.0916 -1.4784 -0.5038
 1764TIP3    H226708   4.665   2.824   5.869  0.1876  1.8495 -1.2843
 1765TIP3   OH226709   1.342   3.487   1.053 -0.3428 -0.0394  0.0731
 1765TIP3    H126710   1.410   3.545   1.087 -0.0848  0.6946 -1.6304
 1765TIP3    H226711   1.270   3.545   1.029 -0.7447 -0.5974 -0.0923
 1766TIP3   OH226712   2.714   2.032   3.724  0.5633 -0.0481 -0.0331
 1766TIP3    H126713   2.620   2.029   3.735  0.2020  2.7661 -1.3845
 1766TIP3    H226714   2.745   2.090   3.793  1.7566 -2.9443  2.0442
 1767TIP3   OH226715   6.742   1.540   2.711  0.4042 -0.6678 -0.4449
 1767TIP3    H126716   6.815   1.597   2.734  0.0256  0.1224 -1.1821
 1767TIP3    H226717   6.664   1.588   2.739  0.1466 -1.5709  0.4817
 1768TIP3   OH226718   3.877   6.273  16.602 -0.1084  0.3189 -0.4246
 1768TIP3    H126719   3.790   6.268  16.641 -0.6149 -2.1793 -1.6612
 1768TIP3    H226720   3.865   6.325  16.523 -0.2907  0.6382 -0.1915
 1769TIP3   OH226721   1.377   4.720   2.329 -0.2056  0.2726 -0.0649
 1769TIP3    H126722   1.325   4.661   2.273 -0.3821 -0.7116  1.0864
 1769TIP3    H226723   1.397   4.668   2.406  0.4650  1.4380  0.5770
 1770TIP3   OH226724   5.592   4.836   3.892 -0.1126 -0.3358 -0.3842
 1770TIP3    H126725   5.509   4.858   3.934  0.0277 -0.2981 -0.1297
 1770TIP3    H226726   5.607   4.907   3.830 -2.1823 -2.1755 -3.2532
 1771TIP3   OH226727   1.016   5.776  17.179 -0.4272 -0.7059 -0.1463
 1771TIP3    H126728   0.941   5.724  17.207 -0.3028 -0.8662 -0.1108
 1771TIP3    H226729   1.068   5.789  17.258 -1.2197  0.7561  0.1763
 1772TIP3   OH226730   6.113   0.546  15.186  0.1820  0.4085  0.1839
 1772TIP3    H126731   6.137   0.607  15.117  1.9754  0.5955  0.9239
 1772TIP3    H226732   6.169   0.470  15.171 -0.1980  0.0038  0.7853
 1773TIP3   OH226733   1.678   0.505   2.288  0.0702  0.3992  0.2052
 1773TIP3    H126734   1.723   0.587   2.305  2.1002 -0.7208  0.5627
 1773TIP3    H226735   1.649   0.511   2.197 -3.8413  3.2315  1.3663
 1774TIP3   OH226736   4.005   3.047   4.583 -0.0751 -0.1792  0.4069
 1774TIP3    H126737   3.985   2.999   4.663 -3.1783 -1.1527 -0.8137
 1774TIP3    H226738   3.995   2.982   4.513 -0.6388  1.3731 -1.0175
 1775TIP3   OH226739   1.233   4.591  15.986  0.6097 -0.7027 -0.3532
 1775TIP3    H126740   1.299   4.586  16.054  0.5837  1.5550 -0.0836
 1775TIP3    H226741   1.281   4.613  15.906  0.4098 -1.1830 -0.6100
 1776TIP3   OH226742   4.143   0.775   5.026 -0.2585 -0.7523 -0.0612
 1776TIP3    H126743   4.194   0.856   5.030 -1.4571  0.0481 -0.5073
 1776TIP3    H226744   4.066   0.792   5.081 -1.5227 -0.8260 -1.7295
 1777TIP3   OH226745   5.975   4.995  14.844  0.0086 -0.1876  1.0187
 1777TIP3    H126746   5.949   5.035  14.927  0.1792  1.2944  0.3865
 1777TIP3    H226747   5.941   4.906  14.849 -1.7989  0.4960  1.8213
 1778TIP3   OH226748   0.509   2.497   2.387  0.1536 -0.3812 -0.1666
 1778TIP3    H126749   0.464   2.467   2.466  0.0884 -0.1806 -0.1251
 1778TIP3    H226750   0.442   2.546   2.339 -0.0431 -1.2204 -0.7616
 1779TIP3   OH226751   6.703   3.488  15.892  0.4484 -0.9314 -0.4144
 1779TIP3    H126752   6.615   3.453  15.874  0.4810 -1.8861  1.0344
 1779TIP3    H226753   6.690   3.582  15.900 -0.2727 -0.9532 -1.1619
 1780TIP3   OH226754   1.585   3.615   0.649  0.2527 -0.6881 -0.0858
 1780TIP3    H126755   1.560   3.558   0.721  1.1657 -1.3296 -0.2655
 1780TIP3    H226756   1.609   3.555   0.578  1.5171 -0.1083 -0.1757
 1781TIP3   OH226757   3.038   5.847   0.536 -0.5278  0.5130 -1.0081
 1781TIP3    H126758   3.097   5.773   0.551 -0.1752  1.0067  0.0503
 1781TIP3    H226759   3.091   5.925   0.549 -1.4238  0.9711  0.0680
 1782TIP3   OH226760   4.586   1.367   0.459  0.4866  0.3592  0.3044
 1782TIP3    H126761   4.499   1.333   0.439  1.2201 -1.1803 -0.4461
 1782TIP3    H226762   4.625   1.386   0.374  1.0373  0.6506  0.6129
 1783TIP3   OH226763   5.078   5.488   1.451  0.1706  0.2789  0.0538
 1783TIP3    H126764   5.027   5.454   1.377 -1.3613 -0.3752  1.3409
 1783TIP3    H226765   5.036   5.571   1.472  1.2437  0.9610 -0.4164
 1784TIP3   OH226766   3.752   1.069  15.295 -0.0975  0.1428  0.5176
 1784TIP3    H126767   3.829   1.100  15.342 -0.5911  0.7018  0.9715
 1784TIP3    H226768   3.688   1.049  15.363 -0.4074 -0.1761  0.1402
 1785TIP3   OH226769   4.958   4.172  10.958  0.3472 -0.2869  0.5296
 1785TIP3    H126770   5.021   4.131  10.898 -0.0381 -0.4695  0.2435
 1785TIP3    H226771   4.877   4.122  10.944 -0.0519  0.3996  0.3780
 1786TIP3   OH226772   1.013   5.686   2.390 -0.7437 -0.1336 -0.6014
 1786TIP3    H126773   0.922   5.689   2.359 -0.9478 -1.2002 -0.1753
 1786TIP3    H226774   1.019   5.602   2.437 -0.6172  1.5444  2.6692
 1787TIP3   OH226775   0.708   5.830  14.523 -0.3855  0.6233  0.2605
 1787TIP3    H126776   0.791   5.828  14.474  0.9984 -2.1089  2.4303
 1787TIP3    H226777   0.646   5.784  14.467  0.0224  1.1676 -0.6574
 1788TIP3   OH226778   0.966   4.435   5.842 -0.2202  0.0570 -0.3120
 1788TIP3    H126779   1.012   4.502   5.791  0.2186 -0.2218 -0.2949
 1788TIP3    H226780   0.944   4.479   5.924 -0.0834  0.2318 -0.3667
 1789TIP3   OH226781   1.829   1.331   0.092  0.4979  0.3999 -0.3657
 1789TIP3    H126782   1.800   1.286   0.013  1.0610  0.4382 -0.5964
 1789TIP3    H226783   1.870   1.263   0.145 -0.7156  0.1708  0.3367
 1790TIP3   OH226784   3.270   3.218   6.048  0.3457 -0.7237 -0.2500
 1790TIP3    H126785   3.224   3.230   5.965  0.3943 -0.5735 -0.2570
 1790TIP3    H226786   3.299   3.127   6.047 -0.1147 -0.8751 -0.1599
 1791TIP3   OH226787   4.070   5.815  16.727  0.2437  0.4700  0.0053
 1791TIP3    H126788   3.996   5.767  16.765 -0.7556 -0.2893 -2.6500
 1791TIP3    H226789   4.029   5.882  16.672  1.4708  0.0392 -1.5059
 1792TIP3   OH226790   1.477   2.178   0.448  0.1345  0.1007  0.0547
 1792TIP3    H126791   1.430   2.250   0.404 -0.3787 -0.6491 -0.6562
 1792TIP3    H226792   1.503   2.215   0.532 -0.1807  1.1040 -0.2651
 1793TIP3   OH226793   1.586   6.390   5.573  0.1697 -0.0626 -0.6021
 1793TIP3    H126794   1.565   6.386   5.666 -0.1779 -0.1608 -0.6833
 1793TIP3    H226795   1.506   6.361   5.529  0.3486 -0.0653 -0.9291
 1794TIP3   OH226796   6.372   1.919   0.218  0.6696 -0.2732  0.5167
 1794TIP3    H126797   6.369   1.998   0.163  2.2996 -0.7361 -0.2956
 1794TIP3    H226798   6.423   1.945   0.295 -1.1064  0.2025  1.5875
 1795TIP3   OH226799   0.147   6.371   3.774 -0.1494  0.3698 -0.5486
 1795TIP3    H126800   0.146   6.456   3.817 -0.8058  1.2053 -2.1384
 1795TIP3    H226801   0.233   6.334   3.796 -0.8197  0.2892  2.2323
 1796TIP3   OH226802   0.609   1.319   3.199 -0.0506  0.9203 -0.0920
 1796TIP3    H126803   0.526   1.324   3.244 -1.6949 -0.1295 -2.7525
 1796TIP3    H226804   0.652   1.403   3.216 -1.6266  1.4632  1.3504
 1797TIP3   OH226805   5.775   4.653  10.367  0.0845 -0.7879  0.5039
 1797TIP3    H126806   5.746   4.695  10.448  1.7208 -0.0268  0.7218
 1797TIP3    H226807   5.694   4.637  10.319 -0.8843 -0.7688  2.0402
 1798TIP3   OH226808   2.771   4.341  16.987  0.2196  0.2150 -0.6813
 1798TIP3    H126809   2.711   4.305  16.921  0.7923 -0.2501 -0.9555
 1798TIP3    H226810   2.800   4.424  16.949  0.0038  0.2882 -0.6920
 1799TIP3   OH226811   6.393   4.089  15.056  0.0356  1.0766  0.3067
 1799TIP3    H126812   6.488   4.094  15.070  0.0690  0.3230  0.4036
 1799TIP3    H226813   6.383   4.023  14.987 -0.3297  2.2904 -0.8314
 1800TIP3   OH226814   0.922   5.321  10.691 -0.2956  0.1186  0.5588
 1800TIP3    H126815   0.979   5.244  10.698 -1.1885 -1.0053 -2.7324
 1800TIP3    H226816   0.973   5.391  10.731  1.8876 -1.5308  0.8820
 1801TIP3   OH226817   0.096   2.540  11.488  0.0976 -0.1631 -0.3326
 1801TIP3    H126818   0.092   2.478  11.415 -0.9610  0.0199 -0.4523
 1801TIP3    H226819   0.175   2.591  11.471  2.3901 -2.9554  1.0458
 1802TIP3   OH226820   0.378   0.903   3.942  0.0837 -0.1219  0.0272
 1802TIP3    H126821   0.378   0.929   4.034 -1.1441 -2.1186  0.6357
 1802TIP3    H226822   0.297   0.939   3.906  0.1508 -0.0680 -0.0741
 1803TIP3   OH226823   2.093   3.624  12.958  0.4166  0.2437 -0.2278
 1803TIP3    H126824   2.027   3.640  13.026  1.0577 -1.0534  0.7407
 1803TIP3    H226825   2.170   3.596  13.007  1.2559  0.4034 -1.4406
 1804TIP3   OH226826   5.071   3.278   2.077 -0.3775  0.2235 -0.0641
 1804TIP3    H126827   4.990   3.231   2.060  0.2103 -0.9675  0.3305
 1804TIP3    H226828   5.061   3.361   2.031 -1.8327  0.1164  0.0206
 1805TIP3   OH226829   4.707   4.119  14.373 -0.0314  0.4128  0.5584
 1805TIP3    H126830   4.774   4.186  14.381  0.3858  0.2881 -1.4353
 1805TIP3    H226831   4.698   4.104  14.279  0.7367 -3.1446  0.8811
 1806TIP3   OH226832   5.134   1.680  15.842 -0.8693  0.0466 -0.1976
 1806TIP3    H126833   5.093   1.742  15.903 -0.4857  1.5311 -1.3827
 1806TIP3    H226834   5.210   1.647  15.889 -1.3885  0.0395  0.6642
 1807TIP3   OH226835   4.353   1.367   3.978  0.2707 -0.1635  0.2360
 1807TIP3    H126836   4.394   1.451   4.000  0.9059  0.5766 -3.2701
 1807TIP3    H226837   4.267   1.372   4.019  0.7286  1.6763  1.0932
 1808TIP3   OH226838   1.979   6.089   6.256  0.2761  0.0098 -0.0895
 1808TIP3    H126839   1.940   6.154   6.314  0.1626  1.7321 -2.0204
 1808TIP3    H226840   2.054   6.134   6.217  0.9377 -1.4428 -0.5519
 1809TIP3   OH226841   3.997   3.989   1.473 -0.2680 -0.4218 -0.2515
 1809TIP3    H126842   3.931   3.994   1.404 -1.1528 -1.4064  0.4761
 1809TIP3    H226843   3.962   3.924   1.535  0.3409  0.6422  1.2748
 1810TIP3   OH226844   0.930   2.580  15.489  0.0973 -0.0070  0.0828
 1810TIP3    H126845   0.836   2.562  15.495  0.3284 -0.9527  1.0987
 1810TIP3    H226846   0.955   2.605  15.578  0.8484  0.0395 -0.1421
 1811TIP3   OH226847   2.653   6.300   2.813 -0.0705  0.4285 -0.8452
 1811TIP3    H126848   2.684   6.387   2.840  0.4171  0.1415 -0.4734
 1811TIP3    H226849   2.731   6.254   2.784 -0.2936  0.0390 -0.8397
 1812TIP3   OH226850   5.730   4.061   2.906 -0.1352  0.1459  0.0356
 1812TIP3    H126851   5.819   4.080   2.933 -0.6563  1.3885  0.9478
 1812TIP3    H226852   5.731   3.967   2.884  0.9000 -0.3645  2.0458
 1813TIP3   OH226853   1.044   2.713   4.495  0.2876  0.5972 -0.2501
 1813TIP3    H126854   1.010   2.670   4.416 -1.2052 -1.5446  1.4257
 1813TIP3    H226855   0.968   2.759   4.531  1.1065  2.0646 -0.3350
 1814TIP3   OH226856   2.565   1.252  16.540 -0.4441  0.2775  0.3248
 1814TIP3    H126857   2.639   1.309  16.560 -1.2315  1.3903  0.1718
 1814TIP3    H226858   2.490   1.295  16.580 -1.2224 -0.1077 -0.6623
 1815TIP3   OH226859   1.888   0.445  13.631  0.4090 -0.5163  0.0300
 1815TIP3    H126860   1.976   0.459  13.596  1.2425  0.8567  2.4696
 1815TIP3    H226861   1.830   0.472  13.560  1.9928  2.0929 -0.4230
 1816TIP3   OH226862   6.323   2.678   4.733 -0.2358 -0.2291 -0.2470
 1816TIP3    H126863   6.331   2.609   4.667 -2.1534  0.6713 -1.5070
 1816TIP3    H226864   6.242   2.724   4.710  0.4710  1.8368  1.1305
 1817TIP3   OH226865   2.023   0.700  12.014  0.2631 -0.3464  0.7445
 1817TIP3    H126866   2.106   0.697  12.062  0.6812  0.7670  0.1185
 1817TIP3    H226867   1.975   0.624  12.047  0.8245 -0.0433  2.3792
 1818TIP3   OH226868   5.844   4.365   0.688  0.2115  0.0641 -0.1380
 1818TIP3    H126869   5.879   4.412   0.763 -0.4374  0.2411  0.0642
 1818TIP3    H226870   5.854   4.426   0.615 -0.7346  0.5797  0.1461
 1819TIP3   OH226871   0.453   4.808  13.610  0.0638  0.0730  0.6131
 1819TIP3    H126872   0.473   4.726  13.565  2.2648  0.0633  1.4822
 1819TIP3    H226873   0.418   4.782  13.695 -3.6209  0.0984 -0.7037
 1820TIP3   OH226874   2.858   1.568   5.335  0.4211 -0.7899 -0.0769
 1820TIP3    H126875   2.857   1.481   5.296 -0.6573 -1.4633  1.3652
 1820TIP3    H226876   2.766   1.590   5.346  0.6951  0.0682  0.5778
 1821TIP3   OH226877   4.488   1.381   0.794 -0.2869  0.3792 -0.6303
 1821TIP3    H126878   4.452   1.370   0.706  0.6200 -1.1860 -0.8407
 1821TIP3    H226879   4.438   1.321   0.849  0.7789 -0.4902 -0.5829
 1822TIP3   OH226880   0.036   2.486  13.947  0.4462  0.6117  0.1205
 1822TIP3    H126881   0.046   2.401  13.904  1.1406  0.6240  0.2473
 1822TIP3    H226882   0.049   2.550  13.877  0.4133  0.6197  0.1218
 1823TIP3   OH226883   0.426   2.275   5.738 -0.3239  0.6381 -0.0942
 1823TIP3    H126884   0.374   2.298   5.661 -0.2121  0.2409 -0.2922
 1823TIP3    H226885   0.463   2.189   5.717 -2.0754 -0.5242  1.2839
 1824TIP3   OH226886   3.196   5.200   6.515  0.0898 -0.9562 -0.2433
 1824TIP3    H126887   3.171   5.126   6.460 -0.2589 -1.1768  0.2072
 1824TIP3    H226888   3.131   5.268   6.495  0.9145 -0.4530 -1.2950
 1825TIP3   OH226889   5.298   4.465   4.787  0.3293 -0.7407  0.1245
 1825TIP3    H126890   5.313   4.554   4.757 -0.6563 -0.6831 -0.2431
 1825TIP3    H226891   5.364   4.413   4.742 -0.3459 -0.4717 -1.2053
 1826TIP3   OH226892   4.926   1.116  15.481 -0.1815 -0.4412 -0.3256
 1826TIP3    H126893   4.981   1.118  15.559  1.0968 -0.9862 -1.1726
 1826TIP3    H226894   4.843   1.080  15.511  0.8422 -2.2596  0.4761
 1827TIP3   OH226895   5.636   5.797   0.127  0.0191  0.3672 -0.2002
 1827TIP3    H126896   5.632   5.773   0.220 -0.5735  1.6605  0.1289
 1827TIP3    H226897   5.719   5.760   0.097  0.5229  0.4631  1.0068
 1828TIP3   OH226898   0.623   1.641  12.609 -0.5054 -0.0054 -0.2390
 1828TIP3    H126899   0.643   1.562  12.659 -0.5412  0.0330 -0.1651
 1828TIP3    H226900   0.555   1.685  12.660  0.8546  1.0520  0.7135
 1829TIP3   OH226901   0.169   5.815   1.202  0.0802 -0.0220 -0.0390
 1829TIP3    H126902   0.244   5.875   1.206  2.2061 -2.2937 -1.9873
 1829TIP3    H226903   0.132   5.829   1.115  0.6527 -1.4737 -0.5530
 1830TIP3   OH226904   0.637   4.099  12.809 -0.1689  0.0270 -0.2505
 1830TIP3    H126905   0.582   4.041  12.755  1.9977 -0.2425 -2.3258
 1830TIP3    H226906   0.668   4.042  12.880 -3.0145  0.3746  1.4724
 1831TIP3   OH226907   1.154   1.420   0.020  0.3241  0.4754 -0.0551
 1831TIP3    H126908   1.172   1.436   0.112  1.0535 -1.6027  0.2029
 1831TIP3    H226909   1.068   1.378   0.019 -0.7346  2.4811 -0.5736
 1832TIP3   OH226910   4.489   5.935  12.566  0.3531 -0.1645  0.1728
 1832TIP3    H126911   4.468   5.967  12.654  1.6452 -0.9250  0.7890
 1832TIP3    H226912   4.409   5.951  12.515 -1.1487 -1.4818  1.9671
 1833TIP3   OH226913   0.282   4.020  14.851 -0.0542  0.8429 -0.6844
 1833TIP3    H126914   0.294   4.096  14.908  2.3510 -0.4225  0.6555
 1833TIP3    H226915   0.269   4.058  14.764 -0.9545  2.7821  0.2065
 1834TIP3   OH226916   3.884   4.502  14.022  0.5086  0.2324  0.3614
 1834TIP3    H126917   3.912   4.491  13.931 -0.1847 -0.1737  0.1894
 1834TIP3    H226918   3.930   4.432  14.069  0.7313  0.3339  0.2979
 1835TIP3   OH226919   0.326   5.677  12.637 -0.4189  0.0366  0.2742
 1835TIP3    H126920   0.299   5.652  12.549 -1.2806 -0.5258  0.6842
 1835TIP3    H226921   0.283   5.614  12.694 -0.5241  0.8861  1.1594
 1836TIP3   OH226922   0.238   2.553  12.624  0.0385  0.4050  0.3986
 1836TIP3    H126923   0.145   2.550  12.601  0.0857  1.1754  0.0628
 1836TIP3    H226924   0.251   2.641  12.657  0.8812  0.6749 -0.6048
 1837TIP3   OH226925   3.349   3.184  13.945  0.0699 -0.3072  0.1765
 1837TIP3    H126926   3.336   3.275  13.918  0.6039 -0.6236 -1.2425
 1837TIP3    H226927   3.283   3.169  14.013  0.3121  1.2785  0.8081
 1838TIP3   OH226928   2.471   6.625  12.809  0.3552  0.4343  0.5177
 1838TIP3    H126929   2.534   6.639  12.738  0.4436 -0.4300  0.4249
 1838TIP3    H226930   2.519   6.577  12.876 -0.0795  0.1723  0.6456
 1839TIP3   OH226931   3.984   5.177  12.001  0.0031  0.2716 -0.8895
 1839TIP3    H126932   3.914   5.167  12.065 -0.4948  0.9530 -1.3161
 1839TIP3    H226933   4.054   5.121  12.033 -1.3825 -1.8658 -1.3849
 1840TIP3   OH226934   0.543   6.266  13.646 -0.0904  0.0941 -0.1776
 1840TIP3    H126935   0.512   6.312  13.724  1.7044  0.1267  0.5659
 1840TIP3    H226936   0.466   6.217  13.615 -1.2230  1.2084  0.7559
 1841TIP3   OH226937   6.080   2.517   6.113 -0.0313  0.4199 -0.0182
 1841TIP3    H126938   6.096   2.440   6.059 -0.4312 -0.6043  1.2427
 1841TIP3    H226939   6.058   2.587   6.051 -0.7639 -0.7681 -1.1485
 1842TIP3   OH226940   5.326   3.653   0.681 -0.1312 -0.1646 -0.5163
 1842TIP3    H126941   5.421   3.645   0.679 -0.0274  0.9153 -0.2931
 1842TIP3    H226942   5.297   3.577   0.732  0.6985  0.1282  0.4302
 1843TIP3   OH226943   3.952   1.844  15.710  0.6327 -0.0897 -0.1067
 1843TIP3    H126944   3.880   1.812  15.656  0.9665  0.9284 -1.1962
 1843TIP3    H226945   3.993   1.765  15.745 -0.5324 -0.7042 -0.0866
 1844TIP3   OH226946   6.482   1.283  15.950 -0.0231  0.0582  0.2682
 1844TIP3    H126947   6.484   1.189  15.967 -0.3514  0.0470  0.2689
 1844TIP3    H226948   6.569   1.305  15.919  0.4476 -0.0180  1.4831
 1845TIP3   OH226949   4.932   4.658   0.256  0.4718  0.6954  0.5190
 1845TIP3    H126950   5.022   4.634   0.278  0.3515 -1.5056 -1.0144
 1845TIP3    H226951   4.895   4.578   0.218 -1.0726  2.4803 -2.0435
 1846TIP3   OH226952   2.641   5.447  16.395 -0.0455  0.4981  0.1839
 1846TIP3    H126953   2.643   5.401  16.311 -0.0256 -0.3775  0.6576
 1846TIP3    H226954   2.554   5.486  16.399 -0.0495  0.5366 -0.2319
 1847TIP3   OH226955   3.741   5.730   1.708 -0.0592 -0.1714  0.3119
 1847TIP3    H126956   3.647   5.741   1.691  0.0886 -1.4282 -1.5619
 1847TIP3    H226957   3.783   5.794   1.651  0.2594 -0.6226  0.0339
 1848TIP3   OH226958   3.998   5.299  13.310  0.1066 -0.2108 -0.5552
 1848TIP3    H126959   4.035   5.323  13.225  0.1161 -1.6908 -1.0078
 1848TIP3    H226960   4.072   5.260  13.357 -0.2268 -0.6677 -0.4050
 1849TIP3   OH226961   6.304   5.014  11.461 -0.0225 -0.4516  0.7351
 1849TIP3    H126962   6.286   4.945  11.523  0.8680  0.4763  2.0829
 1849TIP3    H226963   6.370   5.069  11.504 -0.2210  0.8661 -0.5470
 1850TIP3   OH226964   5.065   0.470  13.749 -0.7486  0.7135 -0.0985
 1850TIP3    H126965   5.051   0.459  13.655 -2.4420  1.8338 -0.0277
 1850TIP3    H226966   4.981   0.445  13.789 -0.0237  0.1578  1.1353
 1851TIP3   OH226967   1.318   5.521   1.707  0.6626  0.5880 -0.3180
 1851TIP3    H126968   1.378   5.590   1.680 -0.2116  2.5037  2.2084
 1851TIP3    H226969   1.374   5.453   1.744  1.4249  0.8902 -0.9045
 1852TIP3   OH226970   4.277   1.225  13.543 -0.1282 -0.0161  0.2656
 1852TIP3    H126971   4.183   1.226  13.530 -0.3877  0.3815  1.9379
 1852TIP3    H226972   4.296   1.309  13.586  0.9203 -0.2733  0.3272
 1853TIP3   OH226973   0.666   2.837  15.323 -0.8927 -0.0046 -0.4965
 1853TIP3    H126974   0.753   2.801  15.340 -0.7183  0.6629  0.0524
 1853TIP3    H226975   0.635   2.788  15.246  0.1534  0.0704 -0.9893
 1854TIP3   OH226976   4.967   2.400  13.631 -0.3968  0.2672  0.2174
 1854TIP3    H126977   4.990   2.460  13.560 -2.1498  0.4494 -0.2444
 1854TIP3    H226978   5.010   2.317  13.607  2.9408  1.4949  1.3972
 1855TIP3   OH226979   5.801   6.534   6.113  0.2159  0.2732  0.0097
 1855TIP3    H126980   5.753   6.460   6.075 -0.9456  1.1585 -0.2757
 1855TIP3    H226981   5.876   6.546   6.055 -0.5659  0.4616 -0.9723
 1856TIP3   OH226982   4.550   5.946   0.286 -0.1544  0.2468  0.3616
 1856TIP3    H126983   4.500   5.984   0.358 -1.3789  1.1838 -0.9459
 1856TIP3    H226984   4.640   5.975   0.301 -0.4829  0.8458  1.2201
 1857TIP3   OH226985   6.114   6.068   0.641  0.2236 -0.0608  0.2800
 1857TIP3    H126986   6.029   6.109   0.627  0.9208  1.2089 -0.3825
 1857TIP3    H226987   6.098   6.003   0.710 -0.7954  1.8178  1.9393
 1858TIP3   OH226988   3.559   5.570   4.870 -0.0889  0.2097  0.3125
 1858TIP3    H126989   3.551   5.496   4.811 -0.8167  0.5763 -0.0568
 1858TIP3    H226990   3.542   5.534   4.957 -1.6356  0.1521  0.0113
 1859TIP3   OH226991   5.450   4.711  16.532  0.0022 -0.2672  0.1184
 1859TIP3    H126992   5.427   4.647  16.600 -1.3794  0.9450  0.8764
 1859TIP3    H226993   5.436   4.665  16.450  0.7546 -1.4687  0.6328
 1860TIP3   OH226994   2.292   0.588   0.254 -0.8120  0.2222 -0.3524
 1860TIP3    H126995   2.310   0.502   0.215  1.1137  1.6408 -2.9155
 1860TIP3    H226996   2.332   0.583   0.341 -1.6941 -1.7811  0.0033
 1861TIP3   OH226997   3.223   0.665  11.222 -0.5526 -0.0661  0.1241
 1861TIP3    H126998   3.147   0.690  11.170  0.3850 -0.9363 -1.7247
 1861TIP3    H226999   3.197   0.584  11.266 -0.3602 -0.9290 -1.3204
 1862TIP3   OH227000   4.344   3.656  15.780 -0.3008 -0.6877  0.3202
 1862TIP3    H127001   4.391   3.591  15.727 -1.1441  0.6413 -2.2543
 1862TIP3    H227002   4.362   3.740  15.737 -2.1649  0.3089  1.3253
 1863TIP3   OH227003   0.702   2.583  13.007 -0.1575 -0.0270 -0.8551
 1863TIP3    H127004   0.790   2.622  13.004 -0.0280 -0.0101  1.4067
 1863TIP3    H227005   0.714   2.502  13.055 -1.5145  0.4065  0.2523
 1864TIP3   OH227006   1.925   6.045  13.538  0.3976  0.5974 -0.4721
 1864TIP3    H127007   1.935   5.990  13.460 -1.4886 -0.4871 -0.0225
 1864TIP3    H227008   1.832   6.036  13.562  0.7702  1.4412  1.4922
 1865TIP3   OH227009   0.016   2.692  15.792 -0.1272 -0.7178 -0.0950
 1865TIP3    H127010   0.041   2.605  15.826  3.0216 -0.0743 -0.4483
 1865TIP3    H227011   0.067   2.701  15.711 -0.3919  1.4559 -0.0630
 1866TIP3   OH227012   1.396   1.289   0.435  0.3928 -0.5904 -0.0717
 1866TIP3    H127013   1.488   1.263   0.427  1.1737  1.7706  0.3123
 1866TIP3    H227014   1.374   1.271   0.526  1.3170  1.0745  0.5400
 1867TIP3   OH227015   6.009   4.968   1.856  0.5005 -0.3444 -0.1182
 1867TIP3    H127016   6.085   4.979   1.798  0.5834 -0.3450 -0.0093
 1867TIP3    H227017   5.986   4.876   1.849 -0.8866  0.0780 -1.9047
 1868TIP3   OH227018   5.437   1.109  11.733  0.1928  0.2754  0.0447
 1868TIP3    H127019   5.408   1.045  11.668 -1.2975 -0.2072  1.1472
 1868TIP3    H227020   5.435   1.062  11.816 -0.1109  1.5072  0.7555
 1869TIP3   OH227021   5.291   4.178   3.549  0.2632 -0.5261 -0.5633
 1869TIP3    H127022   5.236   4.253   3.569 -0.3882 -0.4413 -2.4711
 1869TIP3    H227023   5.364   4.214   3.498  0.8870 -0.9529  0.0036
 1870TIP3   OH227024   2.169   1.054  11.249  0.2999  0.3293  0.0341
 1870TIP3    H127025   2.148   1.035  11.158  1.8229 -0.9600 -0.0808
 1870TIP3    H227026   2.135   0.978  11.298 -2.6446  2.0444  0.9234
 1871TIP3   OH227027   4.642   6.732   2.154  0.2586 -0.6502  0.4354
 1871TIP3    H127028   4.645   6.812   2.207 -3.1090  0.6355 -0.9975
 1871TIP3    H227029   4.681   6.757   2.071  1.0357 -1.1362  0.6508
 1872TIP3   OH227030   3.318   0.038   3.296  0.4616 -0.2842 -0.9113
 1872TIP3    H127031   3.310   0.130   3.272 -0.1390 -0.2661 -0.6421
 1872TIP3    H227032   3.229   0.004   3.294  0.5750 -0.6446 -0.1436
 1873TIP3   OH227033   3.810   4.734   2.542 -0.0332 -0.3708 -0.0504
 1873TIP3    H127034   3.781   4.696   2.460  1.7688 -0.8912 -0.4786
 1873TIP3    H227035   3.873   4.672   2.577  1.1712  1.0538  0.4267
 1874TIP3   OH227036   1.144   6.530   1.426  0.1891 -0.5907  0.0198
 1874TIP3    H127037   1.142   6.606   1.369  0.6087  0.0395  0.8333
 1874TIP3    H227038   1.150   6.566   1.514 -0.6962 -1.5421  0.4899
 1875TIP3   OH227039   0.375   6.295   3.854  0.3989 -0.2154  1.4075
 1875TIP3    H127040   0.455   6.342   3.876  1.1254 -0.0058 -1.3447
 1875TIP3    H227041   0.395   6.203   3.875  0.9655 -0.0284  1.7107
 1876TIP3   OH227042   5.314   5.036   2.468 -0.2421  0.0242 -0.0922
 1876TIP3    H127043   5.249   5.043   2.397 -1.1894 -1.5554  0.5629
 1876TIP3    H227044   5.374   5.108   2.452 -2.5355  2.0209 -0.3655
 1877TIP3   OH227045   3.172   2.845   5.939 -0.2113  0.4870  0.3748
 1877TIP3    H127046   3.237   2.890   5.993  2.3519  2.1814 -3.6712
 1877TIP3    H227047   3.214   2.764   5.913 -0.5998  0.5801 -0.5796
 1878TIP3   OH227048   5.330   1.808   4.617  0.3517  0.5439  0.3968
 1878TIP3    H127049   5.339   1.723   4.575  2.1199  0.3460  1.0965
 1878TIP3    H227050   5.340   1.790   4.711  2.4943  1.6988  0.4506
 1879TIP3   OH227051   6.305   6.356   4.383 -0.0956  0.0395  0.2869
 1879TIP3    H127052   6.248   6.398   4.447  0.5890 -0.5621  1.3234
 1879TIP3    H227053   6.393   6.384   4.408  0.0877  0.9922 -1.3146
 1880TIP3   OH227054   6.558   2.404   0.563 -0.0724  0.3623 -0.0323
 1880TIP3    H127055   6.520   2.322   0.595  0.2480  0.2409  0.0479
 1880TIP3    H227056   6.652   2.386   0.560  0.2207  1.3429  1.8319
 1881TIP3   OH227057   4.558   3.789   1.367 -0.1615 -0.1666  0.1227
 1881TIP3    H127058   4.593   3.871   1.331 -1.1134  0.2084 -0.0017
 1881TIP3    H227059   4.464   3.796   1.351 -0.2127 -1.4548 -0.2102
 1882TIP3   OH227060   5.107   2.507  15.165  0.3588  0.5161 -0.5978
 1882TIP3    H127061   5.141   2.445  15.101  2.9225 -1.4899  2.4111
 1882TIP3    H227062   5.015   2.483  15.176  0.2506 -0.0239 -2.4177
 1883TIP3   OH227063   2.701   2.423   3.282  0.1409 -0.0256  0.4822
 1883TIP3    H127064   2.704   2.378   3.367 -1.1026 -0.1192  0.5029
 1883TIP3    H227065   2.792   2.438   3.259  0.5259 -0.8759  1.3804
 1884TIP3   OH227066   1.867   0.186   4.971 -0.1291 -0.3326 -0.1744
 1884TIP3    H127067   1.940   0.211   4.915  0.1894 -0.6724  0.0783
 1884TIP3    H227068   1.871   0.247   5.045 -0.7410  0.3182 -0.6670
 1885TIP3   OH227069   4.067   4.988   4.282  0.1509  0.1269 -0.4577
 1885TIP3    H127070   4.106   4.986   4.369 -1.6271 -0.5388  0.3670
 1885TIP3    H227071   4.136   5.023   4.226  1.0500  1.3889  1.3381
 1886TIP3   OH227072   1.515   2.103   1.073 -0.2582  0.1980 -0.2937
 1886TIP3    H127073   1.460   2.035   1.035 -1.1161 -0.1184  1.3941
 1886TIP3    H227074   1.457   2.178   1.086  0.6297  1.2231 -1.9317
 1887TIP3   OH227075   1.029   5.727  15.825  0.1577 -0.0282 -0.0970
 1887TIP3    H127076   1.113   5.772  15.819 -0.1036  0.3124 -1.4377
 1887TIP3    H227077   1.035   5.657  15.760 -1.4014  1.3907 -1.8601
 1888TIP3   OH227078   2.416   0.897  12.567  0.3162 -0.3849 -0.0315
 1888TIP3    H127079   2.370   0.827  12.613 -0.2637 -0.1294 -0.2256
 1888TIP3    H227080   2.395   0.976  12.616  2.1539 -0.5211  1.0777
 1889TIP3   OH227081   3.153   5.517   1.600 -0.1027 -0.0579  0.3736
 1889TIP3    H127082   3.086   5.464   1.555  0.5213 -1.7338  1.3377
 1889TIP3    H227083   3.165   5.593   1.542  0.1831 -1.7688 -1.9807
 1890TIP3   OH227084   2.874   5.822  13.021 -0.0897 -0.1407  0.2295
 1890TIP3    H127085   2.871   5.807  12.926  0.9216  0.8771  0.0210
 1890TIP3    H227086   2.892   5.735  13.058 -1.7659 -0.7935 -0.3962
 1891TIP3   OH227087   2.008   0.932   2.364  0.1090 -0.9938  0.0185
 1891TIP3    H127088   1.997   0.994   2.292 -0.4978 -0.8676  0.2147
 1891TIP3    H227089   2.097   0.900   2.354 -0.2145 -1.5587 -1.2545
 1892TIP3   OH227090   4.757   2.982   2.167 -0.0833  0.0772  0.5074
 1892TIP3    H127091   4.804   2.958   2.087  1.4326 -0.5145  1.5015
 1892TIP3    H227092   4.752   2.899   2.216 -0.2966  0.5750  1.3388
 1893TIP3   OH227093   1.715   2.473   1.796  0.1741 -0.4593  0.1371
 1893TIP3    H127094   1.717   2.481   1.701 -0.2297 -1.8353 -0.0082
 1893TIP3    H227095   1.722   2.563   1.828  0.1729  0.0303 -1.1886
 1894TIP3   OH227096   0.961   5.178   3.595 -0.1184 -0.0759 -0.8473
 1894TIP3    H127097   0.928   5.215   3.677 -0.3720 -0.2361 -0.8754
 1894TIP3    H227098   1.056   5.189   3.600 -0.0936 -0.5095 -0.3265
 1895TIP3   OH227099   4.372   2.504   5.346  0.4560 -0.8222  0.3498
 1895TIP3    H127100   4.381   2.409   5.346  0.4550 -0.8316 -0.9976
 1895TIP3    H227101   4.281   2.520   5.370  0.9336 -1.0669  2.6043
 1896TIP3   OH227102   4.141   1.932   3.739 -0.2012  0.4429  0.3717
 1896TIP3    H127103   4.085   1.866   3.698  0.2147  0.4519 -0.2125
 1896TIP3    H227104   4.178   1.981   3.666  0.4216  0.5654  0.7659
 1897TIP3   OH227105   4.805   2.768   4.964 -0.4373 -0.1732  0.3703
 1897TIP3    H127106   4.723   2.763   4.915  0.2333 -1.1072 -0.7112
 1897TIP3    H227107   4.835   2.858   4.951  0.3501 -0.6964 -2.0814
 1898TIP3   OH227108   6.178   2.736  13.366 -0.2354 -0.2772 -0.3466
 1898TIP3    H127109   6.132   2.656  13.392 -0.3522 -0.2095 -0.3427
 1898TIP3    H227110   6.255   2.705  13.319 -0.9640 -0.3847 -1.5204
 1899TIP3   OH227111   5.238   2.331   3.725 -0.0010  0.5639 -0.1525
 1899TIP3    H127112   5.238   2.423   3.700 -1.6154  0.6452  0.0354
 1899TIP3    H227113   5.146   2.312   3.748 -0.4062 -1.9014 -3.1400
 1900TIP3   OH227114   6.707   4.656  17.156  0.4253  0.4152  0.1228
 1900TIP3    H127115   6.622   4.677  17.195  0.7797 -0.0637  1.1977
 1900TIP3    H227116   6.744   4.740  17.132 -1.3529  0.5429 -2.6280
 1901TIP3   OH227117   5.953   2.807   2.704 -0.1224 -0.0532  0.3735
 1901TIP3    H127118   5.945   2.815   2.609 -1.0976 -0.2290  0.4314
 1901TIP3    H227119   5.863   2.791   2.735 -0.2312  2.4329  1.5611
 1902TIP3   OH227120   1.772   2.752  17.115 -0.2755 -0.8175 -0.1280
 1902TIP3    H127121   1.865   2.766  17.135 -0.2696 -1.2887  0.1837
 1902TIP3    H227122   1.768   2.747  17.020 -0.3559  1.9300 -0.3673
 1903TIP3   OH227123   3.777   5.914  13.679 -0.1246 -0.4579  0.1045
 1903TIP3    H127124   3.700   5.859  13.664  0.7451 -1.3871 -1.2132
 1903TIP3    H227125   3.772   5.938  13.772 -1.8613 -0.6746  0.0966
 1904TIP3   OH227126   1.959   5.008   5.174 -0.2727  0.5897 -0.3669
 1904TIP3    H127127   1.916   4.964   5.247 -1.9022 -0.5956 -1.9633
 1904TIP3    H227128   1.927   5.098   5.178 -0.1415  0.6047  0.5061
 1905TIP3   OH227129   6.156   6.073  16.086 -0.5323  0.2526 -0.2150
 1905TIP3    H127130   6.149   6.096  15.993 -1.4491  1.7814  0.1903
 1905TIP3    H227131   6.081   6.116  16.126 -0.8931 -1.4779  1.0570
 1906TIP3   OH227132   0.287   6.733   5.821  0.0166  0.0265  0.0977
 1906TIP3    H127133   0.278   6.638   5.814 -1.8301 -0.0533  2.5007
 1906TIP3    H227134   0.201   6.767   5.796  0.8232  1.1763 -1.3213
 1907TIP3   OH227135   2.196   3.721   1.389 -0.0198  0.8938  0.6943
 1907TIP3    H127136   2.145   3.643   1.370 -0.0563  1.6105 -2.8344
 1907TIP3    H227137   2.286   3.696   1.370 -0.1588  1.9032 -1.6626
 1908TIP3   OH227138   3.613   5.097   4.641  0.2403 -0.3883 -0.3516
 1908TIP3    H127139   3.559   5.169   4.609 -0.1429 -1.1074 -1.3602
 1908TIP3    H227140   3.582   5.081   4.731 -0.5439 -0.1443 -0.5723
 1909TIP3   OH227141   2.792   1.337  15.460 -0.1158  0.1844 -0.2420
 1909TIP3    H127142   2.773   1.246  15.435  2.5293 -0.3824 -0.5616
 1909TIP3    H227143   2.756   1.390  15.389 -1.3833 -0.6243 -0.2312
 1910TIP3   OH227144   0.114   6.721  15.879  1.0299  0.4864  0.3700
 1910TIP3    H127145   0.170   6.690  15.950 -1.0457  0.7319  2.1988
 1910TIP3    H227146   0.096   6.642  15.827  1.3726  0.0030  0.9740
 1911TIP3   OH227147   4.752   4.893  12.737  0.1141 -0.3768  0.0421
 1911TIP3    H127148   4.836   4.868  12.776 -0.5004 -0.0041  1.7055
 1911TIP3    H227149   4.746   4.988  12.751 -1.3111 -0.6275  1.5627
 1912TIP3   OH227150   4.537   4.327   6.366  0.1035 -0.6710  0.3070
 1912TIP3    H127151   4.529   4.337   6.461  0.3229 -0.7299  0.3339
 1912TIP3    H227152   4.452   4.293   6.337  0.1153 -0.8746  0.5131
 1913TIP3   OH227153   3.597   4.185   0.226  0.0886  0.3131 -0.4583
 1913TIP3    H127154   3.682   4.221   0.200 -0.3699  1.7215 -0.0865
 1913TIP3    H227155   3.606   4.167   0.319  0.6893 -1.7050 -0.8612
 1914TIP3   OH227156   1.002   6.714  13.360  0.4978  0.1810  0.1885
 1914TIP3    H127157   0.996   6.788  13.300  1.7965 -0.0150 -0.2026
 1914TIP3    H227158   0.919   6.668  13.350  1.1097 -0.4992 -2.3460
 1915TIP3   OH227159   0.979   2.156   1.304 -0.4393  0.2362  0.3771
 1915TIP3    H127160   0.886   2.155   1.281 -0.6124  3.1728  0.5643
 1915TIP3    H227161   1.024   2.138   1.221 -1.1764  1.2297 -0.2581
 1916TIP3   OH227162   1.655   2.803   0.199  0.7315 -1.0141  0.4924
 1916TIP3    H127163   1.742   2.795   0.238  0.5580 -1.8908  0.7289
 1916TIP3    H227164   1.641   2.897   0.190  1.5793 -0.8568  0.7296
 1917TIP3   OH227165   5.035   6.171   1.322 -0.0352  0.2165  0.5259
 1917TIP3    H127166   5.102   6.159   1.389  2.5706  1.6531 -1.6124
 1917TIP3    H227167   4.961   6.212   1.368  2.8363  4.2955  2.1127
 1918TIP3   OH227168   0.103   2.048  15.805  0.2697  1.2425 -0.0798
 1918TIP3    H127169   0.025   2.091  15.771 -0.5116  0.2153  0.3593
 1918TIP3    H227170   0.073   2.001  15.882  1.5558  1.7108  0.7339
 1919TIP3   OH227171   6.082   0.715   2.585 -0.8971 -0.0638 -0.0246
 1919TIP3    H127172   6.141   0.718   2.661  0.5706  1.0686 -1.1596
 1919TIP3    H227173   6.057   0.623   2.578 -1.0305 -0.1994  1.7937
 1920TIP3   OH227174   1.219   3.472  12.563 -0.0270  0.0382 -0.7842
 1920TIP3    H127175   1.128   3.470  12.531 -0.2295  0.4957 -0.2419
 1920TIP3    H227176   1.233   3.562  12.589  0.6223 -0.0140 -0.9552
 1921TIP3   OH227177   5.481   1.281  15.419  0.2864  0.4378  0.1302
 1921TIP3    H127178   5.519   1.333  15.348  0.4599  1.5843  1.0356
 1921TIP3    H227179   5.387   1.275  15.397  0.8028 -2.0616 -1.8977
 1922TIP3   OH227180   2.288   4.878  17.135 -0.2863  0.7411 -0.2458
 1922TIP3    H127181   2.252   4.872  17.047  0.7019  3.2929 -0.9202
 1922TIP3    H227182   2.351   4.950  17.131 -1.1415  1.8482  2.8449
 1923TIP3   OH227183   3.005   2.407   2.066  0.2973 -0.3494 -0.5312
 1923TIP3    H127184   3.083   2.357   2.043 -0.6766 -1.4532 -1.5619
 1923TIP3    H227185   2.937   2.376   2.006 -0.7102  1.2561 -0.2981
 1924TIP3   OH227186   3.220   2.002   0.155 -0.5973  0.0807  0.0795
 1924TIP3    H127187   3.232   2.097   0.163  1.4741 -0.2330  1.5597
 1924TIP3    H227188   3.176   1.977   0.236 -1.2797 -0.2179 -0.3808
 1925TIP3   OH227189   0.163   4.250   5.079  0.2983  0.0911 -0.1185
 1925TIP3    H127190   0.114   4.316   5.128 -2.4868 -0.8001 -1.4853
 1925TIP3    H227191   0.238   4.297   5.043  1.0665  1.3271  2.8091
 1926TIP3   OH227192   1.109   0.091  16.311 -0.3100 -0.0363  0.1743
 1926TIP3    H127193   1.204   0.096  16.296 -0.2773  1.9096  0.8191
 1926TIP3    H227194   1.099   0.022  16.377  0.7326  0.3069  0.7061
 1927TIP3   OH227195   0.068   3.411   4.417  0.1655 -0.0476 -0.7446
 1927TIP3    H127196   0.140   3.445   4.470 -0.0607 -1.1469  0.2944
 1927TIP3    H227197   0.111   3.369   4.342  0.5201  0.6464 -0.9443
 1928TIP3   OH227198   4.872   2.679   1.004 -0.7661  0.1703 -0.3096
 1928TIP3    H127199   4.832   2.606   1.050  1.4988 -1.2131 -0.3923
 1928TIP3    H227200   4.914   2.731   1.073  0.0028 -0.1781 -0.5098
 1929TIP3   OH227201   2.702   4.786  13.365  0.6754 -0.7609  0.0443
 1929TIP3    H127202   2.788   4.755  13.391  1.1261  0.7090  0.3856
 1929TIP3    H227203   2.644   4.759  13.436  1.1392 -0.4118  0.5586
 1930TIP3   OH227204   0.012   4.094   4.019  0.0949  0.4148  0.2358
 1930TIP3    H127205  -0.079   4.067   4.030  0.2195  0.2091  0.8043
 1930TIP3    H227206   0.059   4.014   3.996  0.3065  0.3091  0.9974
 1931TIP3   OH227207   6.534   1.183  11.114 -0.6170 -0.0064  0.1192
 1931TIP3    H127208   6.539   1.116  11.046 -0.6479  0.7267 -0.6205
 1931TIP3    H227209   6.509   1.136  11.194 -0.1963 -0.9339 -0.2900
 1932TIP3   OH227210   2.492   1.807  13.381  0.6670  0.0670 -0.7674
 1932TIP3    H127211   2.430   1.876  13.360  0.7080  0.0885 -0.8192
 1932TIP3    H227212   2.578   1.847  13.365  0.8147  0.8043  1.4200
 1933TIP3   OH227213   4.555   5.144  17.105 -0.5635  0.1859 -0.2753
 1933TIP3    H127214   4.575   5.051  17.092  1.9928  0.4850  0.8537
 1933TIP3    H227215   4.481   5.144  17.167 -0.7300 -1.0716 -0.4483
 1934TIP3   OH227216   2.011   3.173   1.595 -0.0134  0.1107  0.5921
 1934TIP3    H127217   2.074   3.138   1.532 -0.6316 -0.0611  0.0542
 1934TIP3    H227218   1.925   3.151   1.558 -0.4167 -1.7920  2.4469
 1935TIP3   OH227219   1.624   4.404   3.791  0.4730  0.0812 -0.2628
 1935TIP3    H127220   1.644   4.489   3.754 -0.0404 -0.3902 -1.6753
 1935TIP3    H227221   1.645   4.341   3.722  1.1451 -0.9819  0.8545
 1936TIP3   OH227222   6.571   0.182   0.360 -0.0331  0.2285 -0.3335
 1936TIP3    H127223   6.655   0.209   0.398  0.0767 -2.4153  1.5666
 1936TIP3    H227224   6.514   0.167   0.435 -0.8701 -2.0523 -1.3356
 1937TIP3   OH227225   5.268   4.778   3.067  0.2682 -0.7394  0.8291
 1937TIP3    H127226   5.304   4.736   2.988 -0.8076 -0.2729  0.0718
 1937TIP3    H227227   5.174   4.762   3.062  0.0630  0.1639  1.4984
 1938TIP3   OH227228   5.317   2.434  10.558  0.3552  0.4184  0.5957
 1938TIP3    H127229   5.240   2.438  10.615  0.7475  1.1032  1.0950
 1938TIP3    H227230   5.330   2.524  10.529  0.7598  0.2445  0.2372
 1939TIP3   OH227231   3.941   1.109  15.512 -0.7745  0.3908 -0.1305
 1939TIP3    H127232   3.919   1.165  15.586  0.7954  0.2101  0.5216
 1939TIP3    H227233   3.887   1.031  15.524 -0.9748  0.6173  0.4920
 1940TIP3   OH227234   2.455   5.536   4.796 -0.0187  0.2716 -0.2975
 1940TIP3    H127235   2.484   5.512   4.884 -0.9107 -0.8128 -0.2699
 1940TIP3    H227236   2.371   5.491   4.785  0.0687  0.3894 -1.6963
 1941TIP3   OH227237   3.256   3.290  12.104 -0.1305  0.5188  0.4459
 1941TIP3    H127238   3.306   3.281  12.185 -0.6819  0.3123  0.7724
 1941TIP3    H227239   3.168   3.259  12.127 -0.2966  0.4785 -0.2271
 1942TIP3   OH227240   2.872   6.389  13.653  0.1843  0.7063 -0.6601
 1942TIP3    H127241   2.909   6.320  13.598  0.6056  0.7340 -0.4165
 1942TIP3    H227242   2.792   6.352  13.689  1.1837 -0.2354  0.6990
 1943TIP3   OH227243   0.647   4.105  14.877 -0.6816  0.1346 -0.3944
 1943TIP3    H127244   0.608   4.046  14.941  0.5964 -1.2245 -0.8045
 1943TIP3    H227245   0.670   4.183  14.928 -2.8429  0.5366  0.0502
 1944TIP3   OH227246   3.629   3.607   3.620  0.3580  0.6003  0.2233
 1944TIP3    H127247   3.660   3.580   3.534 -1.7895  0.7081 -0.6380
 1944TIP3    H227248   3.553   3.662   3.603  0.4275  1.4011  2.1804
 1945TIP3   OH227249   4.905   0.146  12.780 -0.1595 -0.0915 -0.3153
 1945TIP3    H127250   4.997   0.173  12.778 -0.4221  0.8114 -1.8373
 1945TIP3    H227251   4.907   0.051  12.776  0.7196 -0.1562  1.0004
 1946TIP3   OH227252   5.941   1.223  14.099 -0.0931 -0.0213  0.5143
 1946TIP3    H127253   5.958   1.138  14.140 -1.2723  0.1600  1.4404
 1946TIP3    H227254   5.975   1.213  14.009 -3.0691 -2.6400 -0.5298
 1947TIP3   OH227255   0.406   4.626   4.539  0.2894  0.4806  0.2827
 1947TIP3    H127256   0.451   4.589   4.614 -1.4158 -2.5016 -0.0198
 1947TIP3    H227257   0.338   4.682   4.577 -0.5714 -1.0108  1.0206
 1948TIP3   OH227258   0.827   4.466  16.199 -0.0390  0.3834 -0.4529
 1948TIP3    H127259   0.922   4.472  16.189 -0.0377  0.0598 -0.6423
 1948TIP3    H227260   0.797   4.557  16.190  0.4677  0.9012  2.1914
 1949TIP3   OH227261   3.103   2.958  15.887  1.0443  0.4088 -0.0818
 1949TIP3    H127262   3.010   2.936  15.877  1.3434 -0.6947 -0.6601
 1949TIP3    H227263   3.144   2.875  15.912  1.8417  0.9338  0.3852
 1950TIP3   OH227264   4.624   5.942   2.359  0.4370  0.3196  0.3027
 1950TIP3    H127265   4.568   5.896   2.421  0.7011 -1.8739 -0.9608
 1950TIP3    H227266   4.705   5.959   2.408 -0.4733  1.4862  1.4575
 1951TIP3   OH227267   5.283   5.668  14.572 -0.4759  0.3891 -0.2872
 1951TIP3    H127268   5.195   5.704  14.560 -0.4585  0.1708 -1.1287
 1951TIP3    H227269   5.287   5.645  14.665 -1.1132  0.8973 -0.1262
 1952TIP3   OH227270   4.842   1.817  12.778 -0.2440  0.4305  0.2767
 1952TIP3    H127271   4.831   1.859  12.693  0.7134 -1.7617 -1.0092
 1952TIP3    H227272   4.889   1.736  12.759 -2.5228 -1.5730  2.5338
 1953TIP3   OH227273   1.013   2.283  15.290 -0.1589 -0.3215 -0.1775
 1953TIP3    H127274   0.989   2.331  15.211  0.9650 -0.9567 -0.9331
 1953TIP3    H227275   0.932   2.240  15.318 -0.3400 -0.9231 -1.5831
 1954TIP3   OH227276   4.240   1.622   0.770  0.0903  1.0086  0.4496
 1954TIP3    H127277   4.247   1.540   0.819  1.3415  0.9385  0.1964
 1954TIP3    H227278   4.244   1.596   0.678 -1.7251  1.1861  0.2893
 1955TIP3   OH227279   2.872   2.133  15.722  0.2678  0.2463  0.2337
 1955TIP3    H127280   2.838   2.056  15.676 -1.1314  1.8840 -1.6617
 1955TIP3    H227281   2.795   2.178  15.755  0.9225  1.5535  0.0574
 1956TIP3   OH227282   3.454   1.147   0.772 -0.1645  0.3217  0.1604
 1956TIP3    H127283   3.430   1.176   0.683 -1.2740 -1.5600 -0.2090
 1956TIP3    H227284   3.371   1.126   0.813  0.4844 -0.8511  0.9088
 1957TIP3   OH227285   4.302   1.080   1.041 -0.0610  0.3410  0.0703
 1957TIP3    H127286   4.262   1.005   0.996  1.1408  0.4138 -1.1960
 1957TIP3    H227287   4.334   1.044   1.124  0.3609 -0.5369 -0.4567
 1958TIP3   OH227288   3.850   2.628   4.816  0.4208 -0.1420 -0.0785
 1958TIP3    H127289   3.773   2.681   4.793  0.1148 -1.2379 -1.7890
 1958TIP3    H227290   3.829   2.540   4.783  1.6947 -0.8912  0.9916
 1959TIP3   OH227291   2.634   4.484   2.332 -0.1002  0.2245  0.3385
 1959TIP3    H127292   2.572   4.434   2.278  1.4432 -1.4519  0.0282
 1959TIP3    H227293   2.579   4.548   2.377 -2.1613 -1.4959  0.4672
 1960TIP3   OH227294   5.730   1.393  13.376 -0.0909 -0.2247 -0.0348
 1960TIP3    H127295   5.796   1.379  13.444 -1.5136  0.5777  1.5868
 1960TIP3    H227296   5.650   1.357  13.414 -1.4410  2.3604 -0.2807
 1961TIP3   OH227297   2.139   0.580   3.541  0.0412  0.1681 -0.1989
 1961TIP3    H127298   2.100   0.493   3.537 -1.6575  0.9445 -2.0807
 1961TIP3    H227299   2.139   0.611   3.451  1.2300  1.8791  0.3358
 1962TIP3   OH227300   0.368   2.959   0.374 -0.0957  0.6420  0.3165
 1962TIP3    H127301   0.353   2.894   0.305  0.2374  1.4615 -0.5676
 1962TIP3    H227302   0.313   2.931   0.447 -1.0558  0.1614 -0.5668
 1963TIP3   OH227303   5.898   5.701   0.604 -0.1478 -0.0701  0.1528
 1963TIP3    H127304   5.931   5.733   0.520 -1.9708  0.4508 -0.3988
 1963TIP3    H227305   5.940   5.757   0.669  2.4791 -1.4444 -0.2217
 1964TIP3   OH227306   1.498   5.010  17.251 -0.0441 -0.3335 -0.5006
 1964TIP3    H127307   1.552   5.051  17.183  0.1633 -2.2715 -1.5777
 1964TIP3    H227308   1.513   5.064  17.329 -0.3900  2.0371 -1.9739
 1965TIP3   OH227309   5.696   0.313   2.494  0.3944  0.1204  0.5017
 1965TIP3    H127310   5.706   0.392   2.440 -3.1757 -0.7071 -1.7256
 1965TIP3    H227311   5.712   0.343   2.583  2.1484  2.6166 -0.5229
 1966TIP3   OH227312   3.104   0.451  13.658  0.3274  0.2485 -0.0161
 1966TIP3    H127313   3.053   0.529  13.684  2.1749  1.2472  0.8200
 1966TIP3    H227314   3.060   0.379  13.703 -0.1635  1.1200  0.9846
 1967TIP3   OH227315   1.485   5.663   1.126  0.0214 -0.1912 -0.6231
 1967TIP3    H127316   1.467   5.702   1.041 -1.5135  2.9953  0.9703
 1967TIP3    H227317   1.400   5.639   1.161  0.0791  2.1531  1.4434
 1968TIP3   OH227318   6.126   3.406  13.503 -0.5909 -0.0568 -0.5989
 1968TIP3    H127319   6.043   3.367  13.529 -0.1462 -0.0395  0.9917
 1968TIP3    H227320   6.105   3.458  13.426 -2.7516  2.3934  1.4384
 1969TIP3   OH227321   1.181   5.421   4.928 -0.6697  0.7344  0.4438
 1969TIP3    H127322   1.141   5.497   4.886 -0.1392  0.8007  0.0322
 1969TIP3    H227323   1.275   5.435   4.915 -0.5343  0.3988  1.0539
 1970TIP3   OH227324   3.220   2.268  10.869  0.3955 -0.2680  0.0455
 1970TIP3    H127325   3.282   2.295  10.937  1.3396  0.4733 -1.0689
 1970TIP3    H227326   3.235   2.175  10.858  0.8855 -0.2071  0.1973
 1971TIP3   OH227327   5.900   5.792   2.678  0.5467 -0.5334  0.2240
 1971TIP3    H127328   5.879   5.702   2.654  1.2935 -0.8922  0.8598
 1971TIP3    H227329   5.973   5.816   2.620  0.7695 -0.5622  0.4926
 1972TIP3   OH227330   4.041   2.715  14.384 -0.2766 -0.6785  0.4813
 1972TIP3    H127331   4.090   2.748  14.460  0.8582 -0.4145 -0.3436
 1972TIP3    H227332   4.040   2.620  14.396 -0.4251 -0.6122  1.0180
 1973TIP3   OH227333   2.454   4.224   5.999 -0.1892  0.4395  0.3994
 1973TIP3    H127334   2.496   4.248   6.082 -0.0834  1.7742 -0.0220
 1973TIP3    H227335   2.368   4.264   6.003 -0.0806  0.7504 -0.2528
 1974TIP3   OH227336   0.114   4.877  15.857  0.2643  0.0893 -0.1556
 1974TIP3    H127337   0.032   4.875  15.906  0.6898 -0.4228  0.5667
 1974TIP3    H227338   0.105   4.807  15.792 -0.1842  0.5657 -0.6038
 1975TIP3   OH227339   6.676   0.762  17.003  0.2345  0.0483 -0.2949
 1975TIP3    H127340   6.667   0.725  17.091  1.8112 -2.1837 -0.9913
 1975TIP3    H227341   6.606   0.827  16.997  0.4213  0.6665  2.7836
 1976TIP3   OH227342   5.710   1.189  16.514 -0.3365  0.4626  0.0519
 1976TIP3    H127343   5.684   1.241  16.590 -1.7640 -1.4137  0.9348
 1976TIP3    H227344   5.734   1.104  16.551  2.0177  0.4653 -1.3277
 1977TIP3   OH227345   4.586   6.098   3.817  0.0951 -0.0927 -0.2789
 1977TIP3    H127346   4.622   6.168   3.763  1.1843 -0.0562  0.4428
 1977TIP3    H227347   4.569   6.026   3.756  2.8858 -0.6653 -0.5302
 1978TIP3   OH227348   1.107   5.408  10.915 -0.2972  0.3556  0.5001
 1978TIP3    H127349   1.136   5.322  10.944  1.7172  1.0467  0.7198
 1978TIP3    H227350   1.183   5.445  10.869 -1.0807  2.0212  0.4501
 1979TIP3   OH227351   1.426   6.266   0.654  0.4686  0.1689  0.2329
 1979TIP3    H127352   1.392   6.353   0.673  1.5656  0.7778 -0.4706
 1979TIP3    H227353   1.519   6.279   0.638  0.8217 -1.2691  0.9315
 1980TIP3   OH227354   4.909   6.659  11.780 -0.6163 -0.6387  0.1164
 1980TIP3    H127355   4.955   6.577  11.761  0.7419  0.3185 -0.8889
 1980TIP3    H227356   4.958   6.726  11.733 -1.9169  0.7225  0.6085
 1981TIP3   OH227357   1.469   0.868  10.446 -0.1308 -0.1423 -0.6828
 1981TIP3    H127358   1.446   0.787  10.491 -0.2310  0.4679  0.4323
 1981TIP3    H227359   1.563   0.862  10.432 -0.1908 -0.5861 -0.8946
 1982TIP3   OH227360   3.004   2.156   0.581  0.6715 -0.1441  0.3102
 1982TIP3    H127361   2.990   2.235   0.529  0.1681 -0.4714 -0.0614
 1982TIP3    H227362   3.076   2.179   0.640  1.2198  0.2511 -0.4888
 1983TIP3   OH227363   1.857   3.544   6.493 -1.0120  0.2204  0.6324
 1983TIP3    H127364   1.913   3.603   6.543 -1.4102  0.3718  0.9058
 1983TIP3    H227365   1.894   3.545   6.404 -0.1635 -0.2265  0.9647
 1984TIP3   OH227366   4.018   3.166   3.118 -0.1982  0.1309 -0.9356
 1984TIP3    H127367   3.960   3.095   3.089 -0.0028  0.2160 -1.5419
 1984TIP3    H227368   4.045   3.141   3.206 -1.6504  0.3817 -0.3914
 1985TIP3   OH227369   6.198   0.268  14.021  0.1498 -0.4384  0.6990
 1985TIP3    H127370   6.180   0.358  13.991 -2.4617 -0.0745  2.9746
 1985TIP3    H227371   6.265   0.279  14.089  1.5504 -0.5484 -0.6172
 1986TIP3   OH227372   1.913   0.732  11.437 -0.1462  0.0211 -0.8609
 1986TIP3    H127373   1.871   0.647  11.454 -0.0818 -0.1357 -1.4519
 1986TIP3    H227374   1.926   0.733  11.342 -1.7818  1.4452 -1.1301
 1987TIP3   OH227375   5.912   2.702   3.396  0.7269 -0.5813  0.0877
 1987TIP3    H127376   5.913   2.612   3.364  2.1533 -0.5006 -0.1754
 1987TIP3    H227377   5.936   2.755   3.320 -0.9135  0.1199  0.0295
 1988TIP3   OH227378   5.635   2.888   2.970  0.6884 -0.2253 -0.3352
 1988TIP3    H127379   5.666   2.825   2.905 -0.0678 -1.4581  0.4627
 1988TIP3    H227380   5.702   2.957   2.970  1.1477 -0.6405 -1.7643
 1989TIP3   OH227381   3.664   6.325   1.733  0.1472  0.2485  0.2518
 1989TIP3    H127382   3.730   6.277   1.682 -0.6842 -1.8866  1.0966
 1989TIP3    H227383   3.706   6.409   1.751  2.0776 -0.4894 -0.4529
 1990TIP3   OH227384   6.763   2.361   2.072 -0.0309 -0.3665  0.2039
 1990TIP3    H127385   6.826   2.430   2.050 -0.2514 -0.1842  0.1363
 1990TIP3    H227386   6.693   2.371   2.008 -1.3124  1.0118  1.7093
 1991TIP3   OH227387   6.491   6.711   1.061  0.5677 -0.2415 -0.3523
 1991TIP3    H127388   6.545   6.778   1.103  0.5173  0.0202 -0.7033
 1991TIP3    H227389   6.552   6.664   1.003  0.7283 -0.8622  0.3005
 1992TIP3   OH227390   0.443   5.192  17.194 -0.3596  0.2314 -0.1602
 1992TIP3    H127391   0.419   5.192  17.287  0.1632  3.0529  0.0585
 1992TIP3    H227392   0.533   5.160  17.193  0.2906  1.9352  0.5768
 1993TIP3   OH227393   4.733   1.133  17.124 -0.5531  0.6436 -0.0222
 1993TIP3    H127394   4.807   1.141  17.185  0.8726 -1.9203 -1.2406
 1993TIP3    H227395   4.773   1.137  17.038 -2.0785  0.7576 -0.7547
 1994TIP3   OH227396   5.034   1.280  16.044  0.0529 -0.1492 -0.0127
 1994TIP3    H127397   4.987   1.298  15.962 -0.5736 -0.5711  0.2473
 1994TIP3    H227398   4.965   1.265  16.108  0.5433 -0.7272  0.3885
 1995TIP3   OH227399   3.311   4.379   0.615  0.1027 -0.0773 -0.1840
 1995TIP3    H127400   3.356   4.311   0.666 -0.0881 -1.8956 -2.3262
 1995TIP3    H227401   3.318   4.350   0.524  0.2302  2.9343 -1.2422
 1996TIP3   OH227402   0.984   3.557   2.880 -0.0086  0.3096  1.1426
 1996TIP3    H127403   0.951   3.641   2.910 -2.7258  0.1850 -1.1458
 1996TIP3    H227404   1.067   3.577   2.837  0.6093  1.3951  2.7457
 1997TIP3   OH227405   1.140   0.727   0.492 -0.0974 -0.1243  0.6276
 1997TIP3    H127406   1.201   0.734   0.418 -0.5054 -1.5519  0.1107
 1997TIP3    H227407   1.178   0.781   0.560  0.4427  1.0062 -0.5332
 1998TIP3   OH227408   2.065   6.447  10.979 -0.2820  0.6058  0.4452
 1998TIP3    H127409   2.121   6.513  11.019  0.1359  1.4237 -1.3733
 1998TIP3    H227410   2.084   6.366  11.027  2.5903  0.8124 -0.1537
 1999TIP3   OH227411   6.720   4.115   0.605  0.2094 -0.5946 -0.0777
 1999TIP3    H127412   6.777   4.058   0.657 -0.0036  1.0685  2.1367
 1999TIP3    H227413   6.764   4.200   0.605 -1.4719  0.3396  0.3862
 2000TIP3   OH227414   0.840   0.031  17.275  0.0944 -0.4085 -0.5129
 2000TIP3    H127415   0.909  -0.016  17.322  0.2534 -1.3537 -1.6495
 2000TIP3    H227416   0.856   0.123  17.294  0.7778 -0.7100  0.4327
 2001TIP3   OH227417   4.902   3.710   2.777 -0.8316 -0.3121  0.0792
 2001TIP3    H127418   4.960   3.742   2.847  0.4547 -1.6969 -0.2910
 2001TIP3    H227419   4.829   3.669   2.823 -0.7706  0.1276  0.5807
 2002TIP3   OH227420   1.581   2.968   5.633  0.2018  0.4704 -0.3101
 2002TIP3    H127421   1.612   3.000   5.548  1.7996 -1.6921 -0.6078
 2002TIP3    H227422   1.619   3.029   5.696  2.7864 -0.4017 -0.8928
 2003TIP3   OH227423   4.872   6.734  10.859  0.5952 -0.5338 -0.0728
 2003TIP3    H127424   4.925   6.801  10.814 -1.7591  0.9920 -0.7809
 2003TIP3    H227425   4.836   6.779  10.935 -3.0932  0.0058 -1.9075
 2004TIP3   OH227426   3.524   1.893  11.130  0.1403 -0.2512  0.3865
 2004TIP3    H127427   3.498   1.915  11.220 -0.3515  2.1486 -0.2711
 2004TIP3    H227428   3.447   1.915  11.077  1.1585  0.4416 -0.8559
 2005TIP3   OH227429   4.674   2.794   1.714 -0.2023  0.7300 -0.6251
 2005TIP3    H127430   4.611   2.747   1.660 -0.7532  1.5606 -0.7254
 2005TIP3    H227431   4.690   2.876   1.667  0.0383  1.0422 -0.0111
 2006TIP3   OH227432   4.157   4.445   5.406  0.1758  0.4033  0.3489
 2006TIP3    H127433   4.065   4.463   5.389 -0.4960 -2.1797  0.8407
 2006TIP3    H227434   4.163   4.436   5.501  0.3275 -2.0335  0.1659
 2007TIP3   OH227435   0.270   0.344   3.030 -0.4594  0.1563  0.0306
 2007TIP3    H127436   0.254   0.289   2.954 -2.5492  0.2379  0.3661
 2007TIP3    H227437   0.282   0.283   3.103 -2.5827  0.0731  0.3658
 2008TIP3   OH227438   0.232   5.052  11.692  0.5031  0.1079 -0.4091
 2008TIP3    H127439   0.138   5.068  11.699  0.4002 -0.0603 -1.2283
 2008TIP3    H227440   0.266   5.068  11.779 -0.2489  0.4368 -0.1683
 2009TIP3   OH227441   2.207   5.195  10.855  0.2077 -0.0009 -0.0655
 2009TIP3    H127442   2.141   5.263  10.847 -1.7031 -1.6572  0.7703
 2009TIP3    H227443   2.274   5.233  10.911 -0.4301  1.4470 -0.2571
 2010TIP3   OH227444   2.161   0.202   4.368 -0.3360  0.4499 -0.3743
 2010TIP3    H127445   2.215   0.175   4.293 -0.3816 -1.9946  0.3875
 2010TIP3    H227446   2.144   0.121   4.415 -1.6749  1.7038  1.4127
 2011TIP3   OH227447   4.570   4.601  14.764  0.5240  0.2661  0.0281
 2011TIP3    H127448   4.577   4.514  14.727  1.1389  0.8206 -1.2106
 2011TIP3    H227449   4.538   4.587  14.853  3.9873 -1.5228  1.1709
 2012TIP3   OH227450   4.444   1.235   1.655 -1.1108 -0.1346 -0.8204
 2012TIP3    H127451   4.537   1.246   1.637 -1.0115  0.9090  0.1649
 2012TIP3    H227452   4.420   1.313   1.704 -1.8226 -1.6850  1.4923
 2013TIP3   OH227453   4.996   6.288   2.772 -0.0971 -0.3989 -0.4450
 2013TIP3    H127454   4.943   6.323   2.701 -0.7461 -0.3824  0.0349
 2013TIP3    H227455   4.970   6.196   2.778  1.5077 -0.9662 -1.6198
 2014TIP3   OH227456   6.565   3.569  14.514  0.3510  0.0019 -0.3742
 2014TIP3    H127457   6.551   3.561  14.608  0.9414 -2.2396 -0.4126
 2014TIP3    H227458   6.502   3.636  14.485 -0.3418  0.1996  1.4754
 2015TIP3   OH227459   5.370   0.294  14.273  0.0967  0.4653  0.0198
 2015TIP3    H127460   5.385   0.374  14.223 -1.5966  0.8119  0.0090
 2015TIP3    H227461   5.336   0.232  14.208  3.2388 -0.9919 -0.4155
 2016TIP3   OH227462   0.283   1.926  16.024 -0.4669 -0.2253  0.3561
 2016TIP3    H127463   0.319   1.897  15.941 -1.8991 -1.0531 -0.0078
 2016TIP3    H227464   0.337   2.001  16.049  0.0194 -0.0073 -1.2725
 2017TIP3   OH227465   5.903   1.673  10.566 -0.4970  0.4493  0.5701
 2017TIP3    H127466   5.876   1.613  10.635  1.1391 -2.3864 -1.0608
 2017TIP3    H227467   5.998   1.663  10.561 -0.1566  3.1139  0.0872
 2018TIP3   OH227468   1.029   5.238   1.970 -0.3004 -0.0974 -0.2685
 2018TIP3    H127469   0.983   5.167   2.014  0.2335 -2.3275 -2.9884
 2018TIP3    H227470   1.083   5.194   1.904  2.0903  2.7108 -0.3792
 2019TIP3   OH227471   3.644   4.404   2.458 -0.1120  0.0572 -0.9610
 2019TIP3    H127472   3.722   4.347   2.461 -0.1625  0.0034 -0.5981
 2019TIP3    H227473   3.668   4.474   2.397  0.8050  0.8740  0.2651
 2020TIP3   OH227474   5.019   2.798   3.758  0.3246 -0.3926 -0.5185
 2020TIP3    H127475   5.040   2.839   3.841  0.5431 -2.4336  0.5019
 2020TIP3    H227476   5.031   2.704   3.774  0.0873 -0.8625 -2.7694
 2021TIP3   OH227477   1.084   5.354  13.784 -0.4213  0.1292  0.5108
 2021TIP3    H127478   1.165   5.353  13.834  0.3393  0.3898 -0.6973
 2021TIP3    H227479   1.089   5.433  13.731 -1.7196  0.4377  0.8076
 2022TIP3   OH227480   2.436   3.254  16.498  0.3057  0.4902  0.7738
 2022TIP3    H127481   2.340   3.256  16.498  0.3043  0.4845  1.4566
 2022TIP3    H227482   2.461   3.304  16.575  0.8561  0.5628  0.5490
 2023TIP3   OH227483   3.284   4.815  13.112 -0.3352  0.1152  0.1480
 2023TIP3    H127484   3.214   4.880  13.110 -0.2716  0.2798  2.0316
 2023TIP3    H227485   3.296   4.794  13.204  2.9966  1.1149  0.1091
 2024TIP3   OH227486   6.099   6.335   5.915  0.7126  0.2562 -0.0735
 2024TIP3    H127487   6.188   6.313   5.940  0.3141 -1.7945 -0.2833
 2024TIP3    H227488   6.087   6.425   5.945  2.1904 -0.0864  1.7364
 2025TIP3   OH227489   3.878   4.272   0.522  0.4439  0.0911  0.7697
 2025TIP3    H127490   3.789   4.249   0.546  0.2086  1.9680  1.9162
 2025TIP3    H227491   3.867   4.329   0.445  0.5894  0.8112  1.2736
 2026TIP3   OH227492   1.600   3.366  12.872  0.8510 -0.2743 -0.4627
 2026TIP3    H127493   1.650   3.384  12.952 -1.9769  0.6387  1.2369
 2026TIP3    H227494   1.554   3.285  12.891 -1.2383  0.8775 -0.3501
 2027TIP3   OH227495   1.200   1.822  16.590  0.0690 -0.2857 -0.1702
 2027TIP3    H127496   1.242   1.820  16.676  0.2410 -0.8629 -0.2613
 2027TIP3    H227497   1.265   1.783  16.531  0.2673  0.8271 -0.7018
 2028TIP3   OH227498   5.577   5.596  16.945 -0.4291 -1.1564  0.8802
 2028TIP3    H127499   5.565   5.587  16.850 -2.1918 -0.0218  0.9621
 2028TIP3    H227500   5.629   5.676  16.954 -1.0172 -0.7735  0.8990
 2029TIP3   OH227501   6.432   2.509   4.223 -0.0275  0.0765  0.0737
 2029TIP3    H127502   6.487   2.450   4.171  1.1274  1.9129 -0.8908
 2029TIP3    H227503   6.389   2.565   4.158  0.3138  1.4585  0.9920
 2030TIP3   OH227504   6.228   5.063   1.711 -0.0415 -0.9747 -0.0550
 2030TIP3    H127505   6.240   5.151   1.747  3.2464 -1.5584  0.6381
 2030TIP3    H227506   6.296   5.056   1.644 -2.3827 -1.9283 -2.5180
 2031TIP3   OH227507   3.331   4.244  11.152 -0.3067  0.8634 -0.1572
 2031TIP3    H127508   3.272   4.319  11.151 -1.5877 -0.0861  0.8167
 2031TIP3    H227509   3.298   4.187  11.083  1.3159  1.6165 -1.6391
 2032TIP3   OH227510   0.478   4.008  10.843 -0.0819  0.8100  0.2242
 2032TIP3    H127511   0.421   3.981  10.770 -1.7988  1.4322  1.2620
 2032TIP3    H227512   0.419   4.014  10.918  1.4821  1.0145  1.4899
 2033TIP3   OH227513   0.141   0.680  16.297 -0.0983  0.4554  0.1881
 2033TIP3    H127514   0.075   0.746  16.317 -0.6581 -0.0633  0.0874
 2033TIP3    H227515   0.132   0.614  16.366  1.4552  1.1729  1.1534
 2034TIP3   OH227516   6.249   3.258   0.976  0.1290  0.0601 -0.2760
 2034TIP3    H127517   6.231   3.345   0.941  3.1950  0.6288 -0.7166
 2034TIP3    H227518   6.339   3.263   1.008 -0.0559 -2.5937  0.8982
 2035TIP3   OH227519   5.814   0.770   0.647  0.3435 -0.8504  0.1280
 2035TIP3    H127520   5.893   0.768   0.593 -0.4108 -0.6258 -1.0215
 2035TIP3    H227521   5.742   0.759   0.585 -0.5156 -1.5510  1.2048
 2036TIP3   OH227522   4.253   5.367  14.015 -0.4651 -0.5827 -0.4182
 2036TIP3    H127523   4.190   5.311  13.970 -1.5186 -0.9418  1.4028
 2036TIP3    H227524   4.204   5.446  14.036  1.0056  1.1749 -2.9653
 2037TIP3   OH227525   4.740   4.738   0.455  0.1149  0.8484 -0.1706
 2037TIP3    H127526   4.769   4.739   0.364 -1.6340  1.4383 -0.7725
 2037TIP3    H227527   4.811   4.696   0.503  0.7572 -0.1644 -1.9186
 2038TIP3   OH227528   1.905   5.731   6.089 -0.6107  0.3182 -0.3666
 2038TIP3    H127529   1.856   5.770   6.161 -0.4917 -0.9091  0.4020
 2038TIP3    H227530   1.971   5.797   6.066  0.6023  0.0025  1.9436
 2039TIP3   OH227531   2.638   4.366   6.207  0.0665  0.2794  0.1821
 2039TIP3    H127532   2.704   4.429   6.177 -1.5924  1.4839 -1.0610
 2039TIP3    H227533   2.689   4.300   6.254  2.4489  0.0101 -2.5116
 2040TIP3   OH227534   0.894   2.170  14.453  0.7369  0.0478  0.5756
 2040TIP3    H127535   0.855   2.141  14.371 -0.0993  0.9686  0.6272
 2040TIP3    H227536   0.919   2.090  14.498 -1.8287 -0.6748  0.8794
 2041TIP3   OH227537   2.540   3.784  14.137 -0.0587  0.3068 -0.4845
 2041TIP3    H127538   2.597   3.823  14.203 -0.7445  1.2026 -0.4134
 2041TIP3    H227539   2.587   3.705  14.109 -0.5907 -1.1520  2.3920
 2042TIP3   OH227540   6.728   3.201  12.691  0.7285  0.4698  0.1962
 2042TIP3    H127541   6.663   3.162  12.634 -1.6744  1.2030  2.2637
 2042TIP3    H227542   6.769   3.127  12.735 -0.4945  0.0641  0.6819
 2043TIP3   OH227543   3.404   5.288   3.936 -0.1270 -0.2706  0.2847
 2043TIP3    H127544   3.450   5.209   3.964 -0.1354 -1.1626 -1.9788
 2043TIP3    H227545   3.333   5.257   3.880 -2.0962  1.2145  1.7960
 2044TIP3   OH227546   2.452   5.979   2.929  0.3538 -0.3653  0.2572
 2044TIP3    H127547   2.460   6.064   2.886  0.9107 -0.4799  0.1227
 2044TIP3    H227548   2.362   5.976   2.961  0.5633  0.6296  0.9984
 2045TIP3   OH227549   2.552   2.799   1.098  0.3036  0.1467 -0.2237
 2045TIP3    H127550   2.545   2.770   1.007 -1.0706  0.8025 -0.3546
 2045TIP3    H227551   2.556   2.895   1.092  1.9428  0.1314  0.3326
 2046TIP3   OH227552   6.446   2.828   2.804 -0.6041 -0.3282  0.0756
 2046TIP3    H127553   6.430   2.923   2.806 -1.4566 -0.4772  0.5667
 2046TIP3    H227554   6.362   2.789   2.826 -0.9051 -1.2809 -2.4606
 2047TIP3   OH227555   1.465   3.260  13.820  0.1616 -0.4837  0.5633
 2047TIP3    H127556   1.445   3.205  13.896 -1.8375 -0.0736  0.3777
 2047TIP3    H227557   1.396   3.240  13.757 -0.4579  2.0141  0.3687
 2048TIP3   OH227558   2.393   2.506  15.923  0.2224  0.5530  0.1011
 2048TIP3    H127559   2.409   2.437  15.859  2.5317  0.3247  0.8101
 2048TIP3    H227560   2.389   2.459  16.007  3.7638  1.2697  0.8534
 2049TIP3   OH227561   0.372   2.645  12.204 -0.1634  0.3999  0.0655
 2049TIP3    H127562   0.299   2.589  12.231  0.5357 -0.2336  0.6688
 2049TIP3    H227563   0.331   2.730  12.186 -0.8984  0.3655  1.4443
 2050TIP3   OH227564   4.575   6.741  13.430 -0.6110 -0.6435  0.8480
 2050TIP3    H127565   4.651   6.683  13.435 -0.1728 -0.0836  0.7416
 2050TIP3    H227566   4.538   6.740  13.518  0.0154 -0.2688  1.1240
 2051TIP3   OH227567   1.939   4.583  13.259  0.1368 -0.5751  0.4994
 2051TIP3    H127568   1.959   4.515  13.195  0.2776 -0.5875  0.5574
 2051TIP3    H227569   1.863   4.550  13.306  0.0718 -0.5947  0.3815
 2052TIP3   OH227570   1.822   6.373  15.582 -0.4602  0.0161  0.5525
 2052TIP3    H127571   1.853   6.434  15.648 -1.3413  0.2412  0.7780
 2052TIP3    H227572   1.878   6.388  15.506 -0.8639  1.3486  0.4894
 2053TIP3   OH227573   2.943   5.146   1.403 -0.3266  0.0095 -0.4843
 2053TIP3    H127574   2.933   5.137   1.309  1.4235 -1.5031 -0.5861
 2053TIP3    H227575   3.007   5.217   1.414 -0.1548 -0.1482 -0.4609
 2054TIP3   OH227576   4.700   1.681  16.897  0.4309 -0.2445  0.0300
 2054TIP3    H127577   4.759   1.751  16.870 -0.0814  0.0416 -0.3723
 2054TIP3    H227578   4.750   1.600  16.883  1.2372  0.0624  1.0528
 2055TIP3   OH227579   3.593   3.620   2.989 -0.1418  0.0967 -0.2875
 2055TIP3    H127580   3.611   3.627   2.896  0.9169  0.6232 -0.0628
 2055TIP3    H227581   3.641   3.543   3.018 -1.5537 -0.8713 -0.3984
 2056TIP3   OH227582   0.027   4.930   5.718 -0.8819  0.6031  0.5321
 2056TIP3    H127583   0.001   4.838   5.720 -0.5538  0.5244  2.6160
 2056TIP3    H227584   0.039   4.954   5.809 -0.8682  2.7104  0.0303
 2057TIP3   OH227585   0.912   2.460   1.240  0.4883  0.4521  0.0226
 2057TIP3    H127586   1.003   2.430   1.242  0.9357  1.7939  0.6336
 2057TIP3    H227587   0.866   2.394   1.188  2.3464  1.2784 -2.8554
 2058TIP3   OH227588   3.629   2.262   2.453  0.3365  0.0826 -0.4348
 2058TIP3    H127589   3.680   2.331   2.411 -0.6392  1.0940 -0.0110
 2058TIP3    H227590   3.568   2.309   2.510  0.5639 -1.1863  0.9234
 2059TIP3   OH227591   1.101   3.287   1.153  0.5828  0.2813  0.0359
 2059TIP3    H127592   1.071   3.290   1.063  2.5240  0.4730 -0.6607
 2059TIP3    H227593   1.086   3.375   1.187 -0.6086  0.0721  0.0864
 2060TIP3   OH227594   3.581   3.156  11.630  0.2626  0.0876  0.4405
 2060TIP3    H127595   3.576   3.201  11.546 -0.8943  1.4833  1.2239
 2060TIP3    H227596   3.565   3.064  11.609 -2.2947  0.7052 -0.6164
 2061TIP3   OH227597   1.579   1.817   3.221 -0.2359  0.1537 -0.1521
 2061TIP3    H127598   1.523   1.742   3.238 -0.4557  0.3223 -0.1304
 2061TIP3    H227599   1.661   1.779   3.188 -0.1399 -0.1196  0.3984
 2062TIP3   OH227600   3.581   3.455   0.379  0.7500 -0.4047 -0.2798
 2062TIP3    H127601   3.658   3.459   0.436  0.3270 -1.2314  0.3734
 2062TIP3    H227602   3.612   3.487   0.295  1.4706  0.5370  0.3217
 2063TIP3   OH227603   1.798   3.469   2.006  0.3156 -0.5879 -0.8149
 2063TIP3    H127604   1.741   3.543   2.027 -0.3487 -1.2961 -0.0731
 2063TIP3    H227605   1.759   3.429   1.928  0.5650 -0.2850 -1.1000
 2064TIP3   OH227606   5.190   5.928   1.221  0.1825  0.1264  0.1485
 2064TIP3    H127607   5.128   5.978   1.274  2.3025  1.2648  1.7005
 2064TIP3    H227608   5.247   5.995   1.182  1.6570 -0.9298  0.3960
 2065TIP3   OH227609   5.566   4.820   0.553 -0.2791 -0.1130 -0.2740
 2065TIP3    H127610   5.595   4.740   0.510 -0.1307 -0.4073  0.3615
 2065TIP3    H227611   5.476   4.801   0.581 -0.7674  0.4569 -1.3856
 2066TIP3   OH227612   2.505   1.116  15.605 -0.0353 -0.0527  0.1932
 2066TIP3    H127613   2.440   1.135  15.538 -1.5484  1.5078  1.9899
 2066TIP3    H227614   2.538   1.029  15.583 -1.9752 -0.4556 -1.3575
 2067TIP3   OH227615   1.827   0.941   0.357  0.1063  0.3944  0.3934
 2067TIP3    H127616   1.876   0.860   0.348  1.9000  1.3838  0.6975
 2067TIP3    H227617   1.762   0.922   0.425 -0.3126 -1.1158 -0.3867
 2068TIP3   OH227618   4.219   5.102   1.385  0.2685  0.7263 -0.0599
 2068TIP3    H127619   4.311   5.128   1.383  1.2873 -2.4305  0.4463
 2068TIP3    H227620   4.199   5.079   1.294  0.8557 -1.1364  0.2504
 2069TIP3   OH227621   5.593   2.790  14.382 -0.2451 -0.2559 -0.3882
 2069TIP3    H127622   5.529   2.784  14.453 -0.2188 -2.4405 -0.5064
 2069TIP3    H227623   5.673   2.821  14.425 -0.6308 -0.1263  0.2562
 2070TIP3   OH227624   3.520   0.876   0.875  0.6423  0.2556 -0.1817
 2070TIP3    H127625   3.519   0.954   0.819 -3.1332  1.1184  0.8289
 2070TIP3    H227626   3.463   0.814   0.830 -2.6283  1.0203  2.5122
 2071TIP3   OH227627   1.582   1.728   5.787  0.1149  0.2824  0.3733
 2071TIP3    H127628   1.646   1.784   5.743  0.5155 -1.1826 -1.0293
 2071TIP3    H227629   1.497   1.756   5.753  0.2433  0.5335  0.2611
 2072TIP3   OH227630   4.485   6.282  13.966 -0.0109  0.6257 -0.7587
 2072TIP3    H127631   4.472   6.337  14.043  1.2381  1.5667 -1.1879
 2072TIP3    H227632   4.534   6.337  13.905  0.1634 -0.5384 -1.7146
 2073TIP3   OH227633   5.135   5.379   5.842  0.3048  0.2571 -0.2703
 2073TIP3    H127634   5.121   5.303   5.786 -2.1829  0.3607  0.1059
 2073TIP3    H227635   5.217   5.361   5.888  0.0699 -1.9272 -0.6336
 2074TIP3   OH227636   5.808   3.538   0.599 -0.1106  0.3724  0.1829
 2074TIP3    H127637   5.804   3.507   0.508 -0.0348 -1.9587  0.9036
 2074TIP3    H227638   5.717   3.547   0.625 -0.1389  2.1236 -0.4230
 2075TIP3   OH227639   4.781   4.805  11.111 -0.0399 -0.3102  0.4228
 2075TIP3    H127640   4.716   4.830  11.177 -0.5837  1.3642 -0.6837
 2075TIP3    H227641   4.858   4.857  11.133  0.8973 -2.0711  1.5518
 2076TIP3   OH227642   3.379   6.118  12.677 -0.0910 -0.3563  0.0881
 2076TIP3    H127643   3.295   6.143  12.638  0.2761 -0.8208 -1.0472
 2076TIP3    H227644   3.401   6.036  12.634  2.0616  0.9083 -1.3843
 2077TIP3   OH227645   1.224   1.478  15.064 -0.7473 -0.0156 -0.7474
 2077TIP3    H127646   1.151   1.416  15.066  0.1378 -1.0790  0.7177
 2077TIP3    H227647   1.183   1.562  15.043 -2.5245 -0.4413  0.7322
 2078TIP3   OH227648   6.279   3.864   3.891  0.4616  0.1497  0.1504
 2078TIP3    H127649   6.318   3.892   3.974 -3.1919 -1.1400  2.5340
 2078TIP3    H227650   6.207   3.925   3.877  0.0466 -0.6345 -1.2245
 2079TIP3   OH227651   0.621   0.233   3.558  0.2957 -0.1705  0.3959
 2079TIP3    H127652   0.656   0.314   3.595 -0.2527 -0.2912  1.2143
 2079TIP3    H227653   0.681   0.165   3.588  1.2477  0.0051 -0.9989
 2080TIP3   OH227654   1.600   2.954   3.752 -0.5210 -0.0428 -0.4966
 2080TIP3    H127655   1.606   3.019   3.822  1.1616 -1.7424  1.0511
 2080TIP3    H227656   1.651   2.991   3.680 -2.7413  1.9905 -1.1687
 2081TIP3   OH227657   5.142   2.104   4.217  0.5476  0.2805 -0.1831
 2081TIP3    H127658   5.061   2.108   4.166  0.8304 -1.8290 -0.9283
 2081TIP3    H227659   5.192   2.180   4.189 -0.9054  1.2974 -0.1525
 2082TIP3   OH227660   0.926   4.817   1.141 -0.4543 -0.0175  0.2674
 2082TIP3    H127661   0.956   4.732   1.107 -0.2643  0.2604 -0.2768
 2082TIP3    H227662   0.953   4.880   1.074  1.5167  0.7906  1.7314
 2083TIP3   OH227663   5.933   3.779   6.105  0.4071 -0.2158  0.3784
 2083TIP3    H127664   5.879   3.852   6.074 -0.2915 -0.7682  0.2840
 2083TIP3    H227665   5.873   3.724   6.155 -0.1608 -2.9397 -2.9676
 2084TIP3   OH227666   6.155   0.363   4.263 -0.5943 -0.4085 -0.0574
 2084TIP3    H127667   6.080   0.406   4.221 -0.6696  0.3433  0.8276
 2084TIP3    H227668   6.118   0.287   4.306 -1.0390  0.5074  1.2255
 2085TIP3   OH227669   6.238   2.064  16.975  0.0834  0.3819 -1.0470
 2085TIP3    H127670   6.175   1.994  16.993  0.5761  0.4408  1.1994
 2085TIP3    H227671   6.320   2.018  16.955  1.5563 -0.0318  4.3370
 2086TIP3   OH227672   6.339   0.386   5.018  0.1506 -0.3709 -0.1491
 2086TIP3    H127673   6.345   0.480   4.999  2.7613  0.5388  3.9543
 2086TIP3    H227674   6.378   0.343   4.941  2.6433  2.2071 -0.4977
 2087TIP3   OH227675   2.269   3.364  13.221 -1.1953  0.2415  0.0382
 2087TIP3    H127676   2.183   3.344  13.183 -1.2641 -0.3967  0.5069
 2087TIP3    H227677   2.249   3.413  13.300 -1.0333  2.0134 -0.9770
 2088TIP3   OH227678   2.787   5.457  13.031  0.2662 -0.3158  0.0063
 2088TIP3    H127679   2.726   5.478  13.102 -1.2782  0.2668 -1.4249
 2088TIP3    H227680   2.861   5.517  13.044 -1.3075  1.8621 -0.4722
 2089TIP3   OH227681   5.048   5.661   6.628 -0.0547  0.1237  0.2720
 2089TIP3    H127682   5.022   5.748   6.659 -0.3777 -0.8034  2.9034
 2089TIP3    H227683   5.113   5.631   6.692  1.1284 -1.0270 -1.3894
 2090TIP3   OH227684   1.299   1.269   2.597  0.1428  0.1345 -0.7332
 2090TIP3    H127685   1.294   1.362   2.575  0.7173  0.7231  1.4265
 2090TIP3    H227686   1.209   1.238   2.591  0.2159  0.1874 -3.7402
 2091TIP3   OH227687   4.737   1.138  15.897 -0.2041 -0.1483 -0.2324
 2091TIP3    H127688   4.673   1.204  15.870  0.8055  1.3768  0.9309
 2091TIP3    H227689   4.689   1.083  15.959 -0.5585  0.6405  0.2078
 2092TIP3   OH227690   4.768   0.359  16.050 -0.2146 -0.5891  0.9532
 2092TIP3    H127691   4.825   0.405  16.111 -1.6580 -1.2916  2.9623
 2092TIP3    H227692   4.681   0.397  16.066 -0.8558 -1.7295  0.3127
 2093TIP3   OH227693   3.923   1.316   0.067  0.6003 -0.5893  0.2419
 2093TIP3    H127694   3.995   1.290   0.010 -0.1317  0.1277 -1.0462
 2093TIP3    H227695   3.865   1.240   0.068 -1.0841  0.5278 -2.7858
 2094TIP3   OH227696   3.157   4.433  11.386 -0.2727  0.1465 -0.2055
 2094TIP3    H127697   3.179   4.475  11.302  1.3781  0.8680  0.5359
 2094TIP3    H227698   3.242   4.416  11.427 -1.0554  0.1098  1.4771
 2095TIP3   OH227699   6.221   2.630  16.301 -0.3655 -0.0124 -0.2102
 2095TIP3    H127700   6.203   2.547  16.346 -0.6929 -0.1541 -0.5976
 2095TIP3    H227701   6.154   2.690  16.335 -0.3117  0.0141 -0.1500
 2096TIP3   OH227702   4.981   5.536  14.132 -0.1915  0.0448 -0.5549
 2096TIP3    H127703   4.977   5.501  14.221 -1.1889 -0.0913 -0.6426
 2096TIP3    H227704   5.052   5.488  14.090  0.9378  0.7673  0.4337
 2097TIP3   OH227705   1.898   6.046   5.295 -0.3822  0.2817  0.4524
 2097TIP3    H127706   1.835   6.037   5.366  1.1313 -0.3267  1.7660
 2097TIP3    H227707   1.861   6.113   5.237 -0.8619  2.0232  2.6693
 2098TIP3   OH227708   0.096   1.094   2.836  0.4279 -0.2188  0.1033
 2098TIP3    H127709   0.180   1.068   2.873  0.2828 -0.4733  0.2602
 2098TIP3    H227710   0.084   1.185   2.863  1.0416  0.0868 -0.6265
 2099TIP3   OH227711   3.179   3.693  11.178  0.0234  0.2095 -0.1289
 2099TIP3    H127712   3.190   3.687  11.083  1.3137  2.0064 -0.1334
 2099TIP3    H227713   3.240   3.627  11.212  0.7547  0.6719 -0.5178
 2100TIP3   OH227714   4.014   2.688  15.045 -0.0677  0.5770  0.1224
 2100TIP3    H127715   4.022   2.700  15.139 -0.3323 -0.3615  0.2758
 2100TIP3    H227716   3.941   2.744  15.019  0.3679  1.2791  0.3672
 2101TIP3   OH227717   6.053   2.262   2.548 -0.1349  0.0406 -0.2352
 2101TIP3    H127718   5.966   2.229   2.525 -0.7606  2.1660 -1.1164
 2101TIP3    H227719   6.065   2.235   2.639 -2.5754  1.3744  0.5627
 2102TIP3   OH227720   2.398   4.156  14.814 -0.3170  0.2754  0.0646
 2102TIP3    H127721   2.345   4.151  14.893  0.7472 -0.0978  0.7887
 2102TIP3    H227722   2.345   4.114  14.746 -1.2147  0.5334  0.5957
 2103TIP3   OH227723   6.240   1.257  15.784 -0.4134  0.8704 -0.4725
 2103TIP3    H127724   6.254   1.257  15.690 -1.9613 -3.3660 -0.9079
 2103TIP3    H227725   6.327   1.272  15.821  1.1252 -1.6763 -2.6927
 2104TIP3   OH227726   4.229   6.325   0.488 -0.1974  0.2102 -0.7109
 2104TIP3    H127727   4.145   6.301   0.527  0.4579 -0.2551  0.4496
 2104TIP3    H227728   4.217   6.416   0.460 -1.2085  0.0222 -0.9209
 2105TIP3   OH227729   4.702   4.927  14.274  0.6861 -0.1456  0.3168
 2105TIP3    H127730   4.777   4.905  14.219  0.9734  0.9417  0.2648
 2105TIP3    H227731   4.704   4.863  14.345  1.4009 -0.3907  0.0747
 2106TIP3   OH227732   2.029   4.645   1.861 -0.0515 -0.2569 -0.2555
 2106TIP3    H127733   1.991   4.725   1.825  0.6225  0.6471  0.9746
 2106TIP3    H227734   2.122   4.652   1.843  0.4969  0.7749  2.5352
 2107TIP3   OH227735   1.947   1.402   5.317  0.0990 -0.6261 -0.0093
 2107TIP3    H127736   2.036   1.403   5.352 -0.1445  1.3198  0.6553
 2107TIP3    H227737   1.958   1.377   5.225  1.1370 -1.9625  0.4357
 2108TIP3   OH227738   6.759   4.380  16.966 -0.0198 -0.6264 -0.1818
 2108TIP3    H127739   6.713   4.316  16.912 -0.4842 -1.6221  1.3496
 2108TIP3    H227740   6.840   4.336  16.992  0.8692  0.3553 -1.1393
 2109TIP3   OH227741   6.676   4.903  14.956  0.4806  0.2609  0.2399
 2109TIP3    H127742   6.767   4.912  14.985  0.8384  1.6390 -1.2012
 2109TIP3    H227743   6.625   4.951  15.022  0.7266 -0.8255  1.2508
 2110TIP3   OH227744   0.859   3.904   1.652 -0.2193  0.1659 -0.1219
 2110TIP3    H127745   0.854   3.905   1.748  1.4516 -2.3195  0.0829
 2110TIP3    H227746   0.952   3.893   1.633 -0.6668 -0.8023 -1.9657
 2111TIP3   OH227747   4.224   1.671   2.614  0.0218  0.0125  0.1507
 2111TIP3    H127748   4.153   1.679   2.676 -2.4780 -2.3349 -2.1414
 2111TIP3    H227749   4.241   1.577   2.608  1.8080  0.3479 -1.0157
 2112TIP3   OH227750   5.610   3.318   3.442  0.1112 -0.1408 -0.4124
 2112TIP3    H127751   5.647   3.388   3.497  0.8071 -0.8028 -0.0096
 2112TIP3    H227752   5.659   3.323   3.360 -1.2011  1.1076 -1.1743
 2113TIP3   OH227753   1.478   6.394  16.339 -0.2880  0.3369  0.4950
 2113TIP3    H127754   1.454   6.487  16.342  0.6018  0.5925 -0.0791
 2113TIP3    H227755   1.402   6.349  16.376 -0.4859  1.3365  1.3532
 2114TIP3   OH227756   0.070   0.982   3.146 -0.1595 -0.6720  0.1023
 2114TIP3    H127757   0.022   1.060   3.117 -1.1920 -1.8491 -1.5478
 2114TIP3    H227758   0.143   0.975   3.085 -1.0232 -1.8707 -0.8637
 2115TIP3   OH227759   2.727   1.044   4.146 -0.9005  0.0420 -0.1129
 2115TIP3    H127760   2.739   0.995   4.064 -1.3273 -1.8677  0.9111
 2115TIP3    H227761   2.792   1.006   4.206 -0.6921  1.3132  0.5106
 2116TIP3   OH227762   4.061   3.148   2.820 -0.1729 -0.0929 -0.2339
 2116TIP3    H127763   4.085   3.146   2.913  0.8080  0.8445 -0.4392
 2116TIP3    H227764   3.987   3.208   2.816 -2.7037 -2.9629  0.3999
 2117TIP3   OH227765   3.388   4.137   1.365  0.1224 -0.1996 -1.0765
 2117TIP3    H127766   3.358   4.066   1.309  1.0875 -0.9588 -0.6533
 2117TIP3    H227767   3.478   4.113   1.389  0.0522  0.5641  0.0420
 2118TIP3   OH227768   0.716   2.738  13.588 -0.4914  0.5882 -0.2499
 2118TIP3    H127769   0.648   2.784  13.540 -1.3744  0.5594  0.9342
 2118TIP3    H227770   0.742   2.667  13.530 -2.6650 -0.4256 -0.0585
 2119TIP3   OH227771   3.569   3.317   4.590 -0.0059  0.1646 -0.7516
 2119TIP3    H127772   3.633   3.266   4.539 -1.0013 -1.7691 -0.1668
 2119TIP3    H227773   3.485   3.293   4.552 -0.8386 -1.7032  1.9682
 2120TIP3   OH227774   3.052   3.373   2.861  0.2052 -0.1794  0.0815
 2120TIP3    H127775   2.992   3.447   2.859 -0.7115 -0.8739  0.6416
 2120TIP3    H227776   3.136   3.410   2.888 -0.4659  0.5253  1.2713
 2121TIP3   OH227777   1.644   4.656  11.699  0.1887  0.1073  0.3182
 2121TIP3    H127778   1.551   4.656  11.721  0.0157  0.0428 -0.3975
 2121TIP3    H227779   1.684   4.598  11.763 -0.2638  0.1505  0.6429
 2122TIP3   OH227780   3.808   4.694   4.088  0.0258 -0.4220 -0.0727
 2122TIP3    H127781   3.867   4.632   4.045  0.6432 -0.2722  0.5554
 2122TIP3    H227782   3.864   4.763   4.121 -0.2942 -0.9787  1.7744
 2123TIP3   OH227783   0.989   5.829  11.115 -0.2622 -0.2581  0.7237
 2123TIP3    H127784   1.084   5.826  11.101 -0.5711 -1.9438 -1.4734
 2123TIP3    H227785   0.953   5.857  11.031 -1.7258  1.3935  1.8126
 2124TIP3   OH227786   1.925   2.021  11.318 -0.4967 -0.0550  0.0730
 2124TIP3    H127787   1.890   2.108  11.302  0.6410  0.4345  0.1497
 2124TIP3    H227788   1.978   2.002  11.241 -0.6362 -0.6255  0.1132
 2125TIP3   OH227789   4.174   2.026  12.664  0.1114 -0.6636  0.1628
 2125TIP3    H127790   4.159   2.111  12.705 -0.7180 -0.5773 -0.3028
 2125TIP3    H227791   4.258   1.996  12.700 -0.2557 -0.2766  1.3657
 2126TIP3   OH227792   0.598   2.683   3.964  0.2165  0.7108 -0.5477
 2126TIP3    H127793   0.657   2.756   3.942  0.1513  0.5541 -1.2478
 2126TIP3    H227794   0.574   2.699   4.056  1.5991  0.6068 -0.1479
 2127TIP3   OH227795   5.079   4.571   5.915  0.1061  0.1037 -0.8168
 2127TIP3    H127796   5.136   4.549   5.989  0.0163  1.6797 -0.2397
 2127TIP3    H227797   5.134   4.622   5.856 -0.1700 -0.0674 -1.2231
 2128TIP3   OH227798   1.221   1.628   3.509 -0.8115  0.3003  0.0593
 2128TIP3    H127799   1.304   1.666   3.537  0.6076 -0.7539 -2.4068
 2128TIP3    H227800   1.185   1.692   3.447 -0.9997 -0.0102 -0.1572
 2129TIP3   OH227801   3.430   1.414  12.448  0.1790 -0.5000  0.0748
 2129TIP3    H127802   3.358   1.456  12.400  1.4260  1.4920 -0.1788
 2129TIP3    H227803   3.444   1.469  12.525  0.4134 -1.7595  0.9679
 2130TIP3   OH227804   2.339   5.150   1.188  0.3223  0.0624  0.0194
 2130TIP3    H127805   2.332   5.177   1.097  1.5052 -1.1859 -0.4793
 2130TIP3    H227806   2.281   5.075   1.196 -0.2460  0.5329  0.4773
 2131TIP3   OH227807   1.622   3.148   2.902  0.3646  0.4507  0.0143
 2131TIP3    H127808   1.535   3.124   2.934  0.2514 -0.4525 -0.9271
 2131TIP3    H227809   1.674   3.162   2.982 -0.2788 -0.3725  0.5883
 2132TIP3   OH227810   4.437   1.854   0.534 -0.2193  0.2992  0.0583
 2132TIP3    H127811   4.437   1.852   0.439 -0.2567 -1.9914  0.0627
 2132TIP3    H227812   4.371   1.789   0.560  0.3964  0.2566  1.6360
 2133TIP3   OH227813   1.367   4.454  12.967  0.1499  0.3011 -0.5040
 2133TIP3    H127814   1.350   4.453  12.872  2.0330  2.9828 -0.9883
 2133TIP3    H227815   1.461   4.435  12.974 -0.1047 -0.5246  0.9129
 2134TIP3   OH227816   4.105   1.180  10.754 -0.3729 -0.1121 -0.0507
 2134TIP3    H127817   4.015   1.147  10.748 -0.9905  0.9859  2.0817
 2134TIP3    H227818   4.110   1.249  10.689 -1.0106 -0.2893 -0.2951
 2135TIP3   OH227819   0.273   1.562  13.061 -0.3205 -0.5545  0.4123
 2135TIP3    H127820   0.220   1.543  13.139 -2.7606  1.7112 -0.5608
 2135TIP3    H227821   0.347   1.612  13.095 -0.5865 -0.8254  1.4379
 2136TIP3   OH227822   0.514   5.833  17.248  0.2368 -0.1267  0.2044
 2136TIP3    H127823   0.469   5.789  17.176 -1.0228  1.0583  0.2328
 2136TIP3    H227824   0.446   5.849  17.313  0.7448  1.3499  0.4158
 2137TIP3   OH227825   1.779   3.351  13.543  0.3188 -0.0249  0.0862
 2137TIP3    H127826   1.826   3.304  13.612  1.7473  0.4653 -0.5243
 2137TIP3    H227827   1.760   3.285  13.477 -0.5548 -0.3788  0.6714
 2138TIP3   OH227828   0.409   4.385   1.094 -0.0341  0.2454 -0.4294
 2138TIP3    H127829   0.444   4.392   1.006  2.4735 -1.6904  0.2766
 2138TIP3    H227830   0.483   4.409   1.151 -0.6032 -1.4335  1.1260
 2139TIP3   OH227831   2.205   3.027  14.671  0.4077  0.0157 -0.2204
 2139TIP3    H127832   2.254   3.036  14.753 -0.8921 -0.2862  0.6119
 2139TIP3    H227833   2.208   2.933  14.652 -0.7599 -0.1678  0.4302
 2140TIP3   OH227834   2.206   2.534   3.133  1.3217  0.1536 -0.1213
 2140TIP3    H127835   2.182   2.539   3.041  0.7350  2.1469  0.0904
 2140TIP3    H227836   2.156   2.460   3.168  1.1504 -0.2859 -1.2706
 2141TIP3   OH227837   3.022   3.110  14.885  0.6293  0.0945  0.1868
 2141TIP3    H127838   3.041   3.092  14.977  0.1325 -3.2421 -0.2394
 2141TIP3    H227839   3.108   3.117  14.843  1.0835 -3.6989  0.1425
 2142TIP3   OH227840   3.364   0.513  14.025 -0.1964 -0.3659 -0.6284
 2142TIP3    H127841   3.406   0.574  13.963  2.1408  0.8447  1.9218
 2142TIP3    H227842   3.384   0.427  13.989  3.3440  0.1966 -0.4298
 2143TIP3   OH227843   3.522   5.166   5.120 -0.1044 -0.5682 -0.3596
 2143TIP3    H127844   3.438   5.199   5.089  0.3701  2.4648  1.1996
 2143TIP3    H227845   3.506   5.074   5.140 -3.7910  0.3625  1.9996
 2144TIP3   OH227846   6.003   0.174  11.180  0.3509 -0.2506  0.4172
 2144TIP3    H127847   5.925   0.198  11.130 -0.0030  1.2967  1.6528
 2144TIP3    H227848   6.060   0.251  11.174  0.4525 -0.1744  2.0694
 2145TIP3   OH227849   4.035   5.437  13.051 -0.2339 -0.1799 -0.3093
 2145TIP3    H127850   4.069   5.363  13.000  0.8630  0.4545 -0.5472
 2145TIP3    H227851   3.940   5.427  13.048 -0.1316 -2.5454  1.1053
 2146TIP3   OH227852   6.217   4.168   1.723 -0.2425 -0.6103 -0.1743
 2146TIP3    H127853   6.242   4.078   1.702  2.3304  0.3989 -1.8628
 2146TIP3    H227854   6.210   4.169   1.819  1.0387 -2.2922 -0.0250
 2147TIP3   OH227855   0.431   5.142   1.775 -0.6402  0.2244 -0.5649
 2147TIP3    H127856   0.338   5.153   1.758 -1.3817 -0.0043  2.7152
 2147TIP3    H227857   0.452   5.055   1.738 -1.8447  0.0289 -0.8140
 2148TIP3   OH227858   5.595   3.630  13.942 -0.4513  0.2235  0.8281
 2148TIP3    H127859   5.684   3.616  13.908 -1.0773 -1.9436 -0.1229
 2148TIP3    H227860   5.603   3.614  14.036  0.1924  0.1204  0.7618
 2149TIP3   OH227861   1.444   5.670   6.021 -0.4660 -0.3027  0.2709
 2149TIP3    H127862   1.378   5.634   6.080  1.4572 -0.7662  2.2777
 2149TIP3    H227863   1.484   5.742   6.071  1.8039 -1.2585 -0.0450
 2150TIP3   OH227864   5.937   3.600   2.119 -0.9715  0.0433 -0.0392
 2150TIP3    H127865   5.933   3.694   2.138 -1.1423  0.0148  0.0659
 2150TIP3    H227866   5.870   3.587   2.051 -1.0788 -0.0362  0.0823
 2151TIP3   OH227867   5.456   5.067   0.899  0.3262 -0.2605 -0.2306
 2151TIP3    H127868   5.434   4.974   0.895  0.1433 -0.1878 -1.1606
 2151TIP3    H227869   5.485   5.081   0.989  0.5399 -1.2590 -0.1313
 2152TIP3   OH227870   1.341   4.325  15.715 -0.2761 -0.5908 -0.9474
 2152TIP3    H127871   1.416   4.316  15.773 -0.2689 -0.4149 -0.9282
 2152TIP3    H227872   1.351   4.412  15.676 -1.9379  0.6368  1.1544
 2153TIP3   OH227873   4.435   3.660  10.681  0.3490 -0.6644 -0.3309
 2153TIP3    H127874   4.443   3.730  10.746  1.7423 -1.1397  0.0397
 2153TIP3    H227875   4.411   3.705  10.600 -1.3323 -0.0558  0.4593
 2154TIP3   OH227876   0.879   4.468   2.573 -0.0149  0.0837  0.2225
 2154TIP3    H127877   0.825   4.396   2.606  0.3569  0.0358  0.7367
 2154TIP3    H227878   0.861   4.540   2.634  0.5131  0.0612  0.4055
 2155TIP3   OH227879   4.448   3.979   4.024  0.1496  0.2547  0.2149
 2155TIP3    H127880   4.481   3.930   3.948  0.1108  0.4625  0.0621
 2155TIP3    H227881   4.362   3.941   4.042 -0.5409  1.2627 -0.8449
 2156TIP3   OH227882   4.248   0.123   4.340 -0.2582  0.4794  0.5288
 2156TIP3    H127883   4.167   0.130   4.390 -0.8275 -1.9423  0.1160
 2156TIP3    H227884   4.283   0.037   4.364  1.3704  0.8148 -0.4872
 2157TIP3   OH227885   3.444   2.628  15.269 -0.4300 -0.1079 -0.3155
 2157TIP3    H127886   3.389   2.686  15.322  1.3022  0.6596  0.7260
 2157TIP3    H227887   3.457   2.550  15.324 -0.4197 -0.2560 -0.5261
 2158TIP3   OH227888   6.146   1.283   5.553  0.2821  0.4719  0.4639
 2158TIP3    H127889   6.172   1.191   5.556  0.7108  0.5461 -0.5071
 2158TIP3    H227890   6.192   1.323   5.627  0.6856  0.0480  0.4496
 2159TIP3   OH227891   0.393   4.794  15.763 -1.0641 -0.2396 -0.6128
 2159TIP3    H127892   0.298   4.804  15.770 -0.8751  0.5765  1.6311
 2159TIP3    H227893   0.415   4.728  15.830 -0.0816 -0.7832 -1.4402
 2160TIP3   OH227894   3.302   5.617   1.957  0.0873  0.4954  0.1172
 2160TIP3    H127895   3.259   5.537   1.927  0.5794  0.6340 -1.0148
 2160TIP3    H227896   3.357   5.589   2.030 -0.7623  0.0507  0.6019
 2161TIP3   OH227897   3.196   2.920  13.055  0.1169  0.5169 -0.4576
 2161TIP3    H127898   3.223   2.898  12.965 -2.4996  1.8760 -1.6922
 2161TIP3    H227899   3.273   2.963  13.093  0.8770  1.1387 -2.5445
 2162TIP3   OH227900   2.782   0.892  11.160 -0.0005 -0.6719  0.4650
 2162TIP3    H127901   2.812   0.801  11.160  1.4611 -0.2215  0.9520
 2162TIP3    H227902   2.819   0.929  11.080 -0.1025 -0.3608  0.5611
 2163TIP3   OH227903   5.069   3.294   0.022 -0.0245 -0.1334 -0.9348
 2163TIP3    H127904   4.999   3.233  -0.002 -0.0776 -0.9818  1.2200
 2163TIP3    H227905   5.100   3.329  -0.062 -1.4726 -1.4590 -2.0731
 2164TIP3   OH227906   2.598   6.534   0.382  0.1176 -0.0198 -0.4673
 2164TIP3    H127907   2.561   6.449   0.355  2.5931 -1.0919 -0.7634
 2164TIP3    H227908   2.539   6.599   0.343  0.0008 -1.5765 -3.1799
 2165TIP3   OH227909   1.462   4.724  12.818  0.3047  0.8127 -0.6951
 2165TIP3    H127910   1.388   4.782  12.799  1.3138  2.1889 -0.5623
 2165TIP3    H227911   1.485   4.687  12.733 -2.1758 -1.7937 -0.4007
 2166TIP3   OH227912   3.271   6.644  11.494  0.0013 -0.3464 -0.0988
 2166TIP3    H127913   3.233   6.627  11.580 -0.4933  0.3743 -0.1627
 2166TIP3    H227914   3.262   6.561  11.447 -0.7569 -0.4200  0.1639
 2167TIP3   OH227915   4.012   0.690  11.579  0.4001 -0.4287  0.7742
 2167TIP3    H127916   4.011   0.676  11.484 -0.5241 -2.6474  1.0488
 2167TIP3    H227917   4.104   0.707  11.599  0.9657 -1.9875 -0.2938
 2168TIP3   OH227918   6.626   4.971   2.384 -0.2282 -0.6312 -0.1345
 2168TIP3    H127919   6.634   5.046   2.325 -1.5545  1.4606  2.1342
 2168TIP3    H227920   6.547   4.925   2.356 -0.8996  0.3992  0.0144
 2169TIP3   OH227921   5.781   2.254   3.255  0.5482 -0.2901 -0.1089
 2169TIP3    H127922   5.731   2.181   3.293 -0.0171  0.8771  1.5031
 2169TIP3    H227923   5.717   2.325   3.246  0.9733 -0.1137 -2.1310
 2170TIP3   OH227924   0.061   2.971   4.722 -0.0768 -0.1826  0.0601
 2170TIP3    H127925  -0.033   2.964   4.705 -0.2092  0.8197  0.3426
 2170TIP3    H227926   0.070   2.958   4.816 -0.0277  0.4952  0.1564
 2171TIP3   OH227927   5.480   2.143   0.052  0.3000  0.0943 -0.0465
 2171TIP3    H127928   5.510   2.208  -0.012  0.7199 -0.1430 -0.0894
 2171TIP3    H227929   5.560   2.104   0.087  0.0760  0.1947  0.5989
 2172TIP3   OH227930   0.620   1.369   3.867  0.0534  0.0696 -0.2876
 2172TIP3    H127931   0.529   1.360   3.841 -0.9617  2.2925  2.1131
 2172TIP3    H227932   0.659   1.426   3.801 -0.7312  0.4648 -0.4153
 2173TIP3   OH227933   0.982   2.277   2.494  0.2359 -0.0074  0.2756
 2173TIP3    H127934   1.044   2.295   2.423  1.2208 -1.6758  0.6510
 2173TIP3    H227935   0.969   2.362   2.536 -0.9000  1.1804 -2.2482
 2174TIP3   OH227936   2.902   3.391   4.035 -0.0023  0.3773 -0.5426
 2174TIP3    H127937   2.820   3.403   4.082  0.5127  0.9872  0.2233
 2174TIP3    H227938   2.877   3.389   3.943 -1.0823 -1.3217 -0.2430
 2175TIP3   OH227939   4.307   1.579  14.665 -0.4902 -0.3185 -0.0825
 2175TIP3    H127940   4.242   1.547  14.727  0.2150 -1.2040  0.2158
 2175TIP3    H227941   4.376   1.513  14.666  0.8886  1.0678  0.3470
 2176TIP3   OH227942   5.959   5.376  13.945  0.1048  0.4523  0.1371
 2176TIP3    H127943   5.892   5.321  13.986  2.3182 -2.0153  0.7243
 2176TIP3    H227944   5.971   5.337  13.858  0.9609  0.6392  0.1623
 2177TIP3   OH227945   1.556   0.648   5.332  0.1183 -0.3565 -0.0433
 2177TIP3    H127946   1.527   0.561   5.361  1.2423 -0.3660  1.1282
 2177TIP3    H227947   1.495   0.670   5.261 -2.9161 -0.2486  2.3719
 2178TIP3   OH227948   0.618   1.524  13.105 -0.4287 -0.2402  0.4377
 2178TIP3    H127949   0.676   1.544  13.031 -1.6733 -0.0147 -0.5187
 2178TIP3    H227950   0.561   1.600  13.112 -3.7914 -2.2762 -1.8270
 2179TIP3   OH227951   6.329   5.244  16.823  0.0551  0.4005 -0.2173
 2179TIP3    H127952   6.262   5.196  16.774  0.0330 -0.1996  0.3938
 2179TIP3    H227953   6.410   5.226  16.775 -0.4359  2.6830 -2.1121
 2180TIP3   OH227954   0.792   4.993  11.946  0.8772 -0.0924 -0.5959
 2180TIP3    H127955   0.764   4.906  11.976 -2.1950  1.6101  2.0190
 2180TIP3    H227956   0.724   5.022  11.886  0.6348  1.3701  0.3347
 2181TIP3   OH227957   6.637   1.800   1.383 -0.3520 -0.2711  0.0142
 2181TIP3    H127958   6.647   1.836   1.471  0.3953  0.0818 -0.2052
 2181TIP3    H227959   6.727   1.794   1.350 -0.6269 -0.4332 -0.7072
 2182TIP3   OH227960   0.911   1.671   5.343  0.3049 -0.3514 -0.3224
 2182TIP3    H127961   0.965   1.714   5.409  1.7253 -2.8860  0.3122
 2182TIP3    H227962   0.821   1.689   5.370  0.8621  0.3096  1.1783
 2183TIP3   OH227963   5.595   2.708  12.495 -0.5902  0.1576  0.0427
 2183TIP3    H127964   5.633   2.620  12.493  1.2723  0.9077 -1.9024
 2183TIP3    H227965   5.501   2.694  12.506 -0.1434 -1.9486  1.8513
 2184TIP3   OH227966   2.296   1.292  12.350 -0.5899 -0.3587 -0.1440
 2184TIP3    H127967   2.240   1.369  12.341 -1.2300 -0.7823  0.1069
 2184TIP3    H227968   2.295   1.251  12.263 -0.6172 -0.3279 -0.1587
 2185TIP3   OH227969   4.808   1.169   0.462  0.4078  0.3391  0.1397
 2185TIP3    H127970   4.877   1.108   0.488  0.4774  1.2630  2.2946
 2185TIP3    H227971   4.841   1.255   0.486 -0.7564  0.9807 -0.4690
 2186TIP3   OH227972   4.686   5.443  15.361  0.0864 -0.1566  0.4139
 2186TIP3    H127973   4.763   5.444  15.418 -1.0679 -1.8959  2.1581
 2186TIP3    H227974   4.634   5.369  15.393 -0.5327 -1.4625 -3.1076
 2187TIP3   OH227975   5.423   4.524  16.351 -0.5263 -0.5123  0.1270
 2187TIP3    H127976   5.391   4.439  16.380  0.8011 -1.0199  0.1758
 2187TIP3    H227977   5.404   4.526  16.257  0.9600 -1.6254 -0.2387
 2188TIP3   OH227978   4.829   2.489  15.274 -0.1184 -0.3910  0.2597
 2188TIP3    H127979   4.762   2.468  15.209  0.3292 -2.0686  0.2721
 2188TIP3    H227980   4.813   2.580  15.297 -2.1220 -0.6036 -0.0594
 2189TIP3   OH227981   5.170   5.356  12.657 -0.3875  0.1556  0.2859
 2189TIP3    H127982   5.078   5.376  12.638  0.0284  0.8424 -1.1466
 2189TIP3    H227983   5.198   5.426  12.717 -0.5758  0.4447  0.0395
 2190TIP3   OH227984   0.588   2.959   4.229 -0.4078 -0.2320  0.4301
 2190TIP3    H127985   0.659   2.930   4.287 -1.0147  0.8370  1.7729
 2190TIP3    H227986   0.616   3.045   4.199  1.4736 -1.9945 -3.6788
 2191TIP3   OH227987   5.107   1.390  15.154  0.4062  0.2721  0.6256
 2191TIP3    H127988   5.082   1.482  15.156 -0.3132  0.3956 -3.9770
 2191TIP3    H227989   5.196   1.389  15.120  0.1971 -0.7462  0.0570
 2192TIP3   OH227990   4.469   5.200   5.980  0.1795  0.2539 -0.7934
 2192TIP3    H127991   4.452   5.149   6.059  1.0471  1.4277  0.1953
 2192TIP3    H227992   4.478   5.135   5.910  0.3661 -0.8749  0.2570
 2193TIP3   OH227993   1.118   4.382   6.491  0.0749 -0.1410 -0.1383
 2193TIP3    H127994   1.174   4.312   6.525  0.2613  0.0402 -0.0722
 2193TIP3    H227995   1.106   4.441   6.565 -0.7387 -0.5134  0.0312
 2194TIP3   OH227996   0.790   1.609  17.155 -1.0390  0.7643 -1.0694
 2194TIP3    H127997   0.870   1.642  17.197 -0.9652  0.0670 -0.6550
 2194TIP3    H227998   0.751   1.551  17.220 -1.2112  0.1022 -1.7562
 2195TIP3   OH227999   2.462   5.938  13.661 -0.0847 -0.1125 -0.4720
 2195TIP3    H128000   2.504   6.011  13.615 -1.6813  3.3253  2.9468
 2195TIP3    H228001   2.393   5.908  13.602 -1.7379  3.7248 -0.7514
 2196TIP3   OH228002   5.788   1.089   5.570 -0.2071  0.0458  0.2051
 2196TIP3    H128003   5.766   0.996   5.570 -0.1164 -0.0038 -1.3816
 2196TIP3    H228004   5.880   1.093   5.596  0.2681 -0.4763 -1.2902
 2197TIP3   OH228005   0.186   2.019   1.708  0.0490  0.5743 -0.7288
 2197TIP3    H128006   0.163   2.048   1.796 -0.0027 -0.1606 -0.4949
 2197TIP3    H228007   0.257   1.956   1.721 -0.0740  0.3344 -1.1957
 2198TIP3   OH228008   4.118   2.912   0.966 -0.3519  0.3860  0.1133
 2198TIP3    H128009   4.085   2.911   1.056 -2.2058 -0.9274 -0.5328
 2198TIP3    H228010   4.044   2.942   0.913  1.2626  3.0033 -0.8449
 2199TIP3   OH228011   6.391   3.154   4.922  0.1286 -0.0006  0.2657
 2199TIP3    H128012   6.323   3.219   4.905 -0.7811 -1.3043 -1.3066
 2199TIP3    H228013   6.466   3.185   4.871  0.2610  0.6742  0.8517
 2200TIP3   OH228014   2.531   5.194  11.641 -0.3964 -0.3394  0.2103
 2200TIP3    H128015   2.626   5.205  11.639 -0.6192  2.6036  1.1019
 2200TIP3    H228016   2.515   5.133  11.713  0.7823  0.1270  0.8968
 2201TIP3   OH228017   4.619   4.338  14.570 -0.3056  0.3723  0.3498
 2201TIP3    H128018   4.546   4.353  14.511 -0.6691  0.5871  0.8495
 2201TIP3    H228019   4.579   4.315  14.653  0.1184  2.4476  1.2000
 2202TIP3   OH228020   0.005   4.898   0.861  0.3589  0.6190  0.1793
 2202TIP3    H128021  -0.028   4.879   0.948  1.9845 -1.4686  0.4195
 2202TIP3    H228022  -0.056   4.962   0.825 -0.7198  1.0280  2.5757
 2203TIP3   OH228023   0.605   3.763   4.614 -0.3336 -0.0846 -0.1528
 2203TIP3    H128024   0.604   3.687   4.672 -0.1231 -0.2811 -0.4018
 2203TIP3    H228025   0.616   3.726   4.526 -1.1024  0.1781 -0.3696
 2204TIP3   OH228026   5.779   4.333   4.072 -0.0008 -0.0170 -0.1187
 2204TIP3    H128027   5.731   4.400   4.023 -0.6997 -1.5095 -1.5623
 2204TIP3    H228028   5.716   4.262   4.084  0.9449 -0.7539  0.6866
 2205TIP3   OH228029   2.146   2.328   2.394 -0.6356  0.1820  0.2594
 2205TIP3    H128030   2.103   2.319   2.479 -2.2955 -2.2877 -0.7450
 2205TIP3    H228031   2.239   2.318   2.413 -0.9390  0.1363  1.8233
 2206TIP3   OH228032   4.989   6.628  12.824  0.6360  0.4667  0.2321
 2206TIP3    H128033   4.976   6.561  12.891  1.6710  0.8918  0.8782
 2206TIP3    H228034   4.985   6.581  12.741  0.2912 -0.2126  0.6261
 2207TIP3   OH228035   4.957   5.667  11.335 -0.2378  0.2175  0.2555
 2207TIP3    H128036   4.990   5.753  11.362 -1.4388  0.6087  0.5327
 2207TIP3    H228037   4.969   5.666  11.240  1.1405  0.0769  0.4020
 2208TIP3   OH228038   0.631   1.851  13.480  0.4079 -0.0381 -0.3084
 2208TIP3    H128039   0.542   1.820  13.468  0.9430 -1.8975  0.1581
 2208TIP3    H228040   0.629   1.898  13.564  0.0102 -0.7018  0.0598
 2209TIP3   OH228041   4.440   3.443  11.884  1.1197  0.0880  0.2070
 2209TIP3    H128042   4.478   3.358  11.908  2.9412  0.4351 -1.2047
 2209TIP3    H228043   4.430   3.438  11.789 -0.8932  0.6631  0.3597
 2210TIP3   OH228044   1.455   3.296   3.128 -0.1912 -0.6232 -0.2914
 2210TIP3    H128045   1.386   3.273   3.191 -1.0849 -1.2388 -1.4502
 2210TIP3    H228046   1.511   3.356   3.175 -1.0101 -0.8269  0.9997
 2211TIP3   OH228047   4.667   0.260  10.989 -0.6872  0.5449  0.8051
 2211TIP3    H128048   4.642   0.349  10.965  2.4143  1.2781 -0.1102
 2211TIP3    H228049   4.596   0.205  10.955 -1.6242  2.4716 -0.5021
 2212TIP3   OH228050   4.387   0.875  11.379 -0.3677  0.1859 -0.0907
 2212TIP3    H128051   4.363   0.850  11.289 -2.3987 -0.2154  0.5071
 2212TIP3    H228052   4.332   0.951  11.397 -1.1126 -0.6371  1.2894
 2213TIP3   OH228053   1.247   2.883  14.864 -0.5243 -0.6644  0.5136
 2213TIP3    H128054   1.342   2.883  14.855 -0.5761  0.1927 -0.1534
 2213TIP3    H228055   1.221   2.793  14.844  0.0586 -0.6375 -0.4261
 2214TIP3   OH228056   3.087   1.368  15.097  0.5769 -0.1500 -0.4024
 2214TIP3    H128057   3.159   1.305  15.093  1.1886  0.5841 -2.4389
 2214TIP3    H228058   3.008   1.314  15.083  0.5721 -1.0409  2.4250
 2215TIP3   OH228059   4.163   3.731  16.459  0.0028  0.3691  0.4227
 2215TIP3    H128060   4.136   3.821  16.472  0.0195  0.3405  0.6477
 2215TIP3    H228061   4.142   3.686  16.541  1.7136  0.5738  1.0220
 2216TIP3   OH228062   5.112   4.928   0.697 -0.1159 -0.3110  0.1159
 2216TIP3    H128063   5.092   4.941   0.605 -2.3497  0.0081  0.5917
 2216TIP3    H228064   5.092   5.012   0.738 -1.8485 -1.2137  1.2586
 2217TIP3   OH228065   3.729   3.779  17.035  0.1617 -0.2380  0.3338
 2217TIP3    H128066   3.799   3.831  16.995  0.8252  0.6692  2.5175
 2217TIP3    H228067   3.669   3.760  16.963  2.2680 -0.4357 -1.4622
 2218TIP3   OH228068   0.696   1.875   4.690 -0.3536  0.7092  0.6737
 2218TIP3    H128069   0.668   1.824   4.766  0.2634  1.4123  1.3754
 2218TIP3    H228070   0.791   1.869   4.690 -0.3136  1.2919  0.3512
 2219TIP3   OH228071   1.981   3.685  14.234 -0.2432  0.3404  0.1786
 2219TIP3    H128072   2.002   3.638  14.314 -0.9893  0.9755  0.7641
 2219TIP3    H228073   2.056   3.744  14.220  0.6979 -0.9819 -0.5656
 2220TIP3   OH228074   5.684   4.653   0.846  0.2126  0.2883 -0.0566
 2220TIP3    H128075   5.698   4.582   0.910  0.6881  0.1725 -0.2804
 2220TIP3    H228076   5.642   4.610   0.772 -0.3433  0.4237  0.1781
 2221TIP3   OH228077   2.506   1.744  12.348 -0.1185 -0.0064 -0.1406
 2221TIP3    H128078   2.462   1.716  12.428  1.1714  0.8323  0.9103
 2221TIP3    H228079   2.449   1.715  12.277 -0.9032 -1.4777  1.0481
 2222TIP3   OH228080   6.149   3.184   5.839 -0.7066  0.7799  0.4408
 2222TIP3    H128081   6.108   3.113   5.887 -1.2646  0.0334 -1.0766
 2222TIP3    H228082   6.240   3.156   5.828 -0.8754  0.3966  0.0228
 2223TIP3   OH228083   5.156   1.784   2.389 -0.2379  0.1166  0.4103
 2223TIP3    H128084   5.091   1.805   2.457 -0.4705 -0.1585  0.2734
 2223TIP3    H228085   5.104   1.759   2.313  0.0100  1.1784 -0.1209
 2224TIP3   OH228086   1.181   5.810   3.681  0.0581  0.1719 -0.0805
 2224TIP3    H128087   1.221   5.836   3.598  2.3132  0.1541  0.9200
 2224TIP3    H228088   1.243   5.840   3.748 -0.6892 -1.5839  1.4887
 2225TIP3   OH228089   2.816   3.989   1.449 -0.6685 -0.1298 -0.2135
 2225TIP3    H128090   2.843   3.993   1.357  0.9020 -0.5045  0.2057
 2225TIP3    H228091   2.867   4.058   1.492  2.1978 -2.8667  1.1806
 2226TIP3   OH228092   5.687   2.945   4.603 -0.1580 -0.1269  0.4506
 2226TIP3    H128093   5.686   2.921   4.510 -0.8774  2.3466 -0.2753
 2226TIP3    H228094   5.594   2.959   4.625  0.1764  2.7948  0.4333
 2227TIP3   OH228095   5.419   0.725  15.630 -0.2687  0.5068 -0.2714
 2227TIP3    H128096   5.478   0.756  15.699  0.2143 -0.6481 -0.1424
 2227TIP3    H228097   5.351   0.677  15.677 -0.8823  1.1401 -0.4861
 2228TIP3   OH228098   1.485   0.707  11.796 -0.0570 -0.0548 -0.1126
 2228TIP3    H128099   1.395   0.674  11.794  0.4140 -1.3575 -1.4272
 2228TIP3    H228100   1.514   0.703  11.705  1.0137  1.3051  0.1423
 2229TIP3   OH228101   1.627   6.634  10.756  0.3346  0.0125  0.1763
 2229TIP3    H128102   1.659   6.719  10.727  0.7706 -0.4998 -0.8948
 2229TIP3    H228103   1.704   6.592  10.796  0.2721 -0.1121  0.1674
 2230TIP3   OH228104   6.046   6.668   3.308  0.6414 -0.3959 -0.2922
 2230TIP3    H128105   5.992   6.684   3.385  0.5147 -1.0363 -0.2448
 2230TIP3    H228106   6.005   6.594   3.263  2.2896 -1.9113  0.5456
 2231TIP3   OH228107   4.536   5.767  12.929 -0.0503 -0.2028  0.5459
 2231TIP3    H128108   4.552   5.704  12.859  1.3547  1.1524 -0.4234
 2231TIP3    H228109   4.515   5.714  13.005  4.6051 -2.1903  0.7798
 2232TIP3   OH228110   1.942   0.439   0.671  0.1282 -0.0229 -0.3087
 2232TIP3    H128111   2.036   0.445   0.658  0.4011 -0.3395  1.2347
 2232TIP3    H228112   1.919   0.350   0.642  1.0028 -1.3431  2.6715
 2233TIP3   OH228113   5.376   5.269  11.289  0.0920  0.3535 -0.3995
 2233TIP3    H128114   5.468   5.241  11.286 -0.0541 -0.1324 -0.3717
 2233TIP3    H228115   5.358   5.296  11.199 -0.1427 -0.8895 -0.7518
 2234TIP3   OH228116   3.427   5.845  12.654 -0.5233 -0.4557  0.2829
 2234TIP3    H128117   3.485   5.881  12.721 -0.3728  1.1736 -0.6602
 2234TIP3    H228118   3.486   5.813  12.586 -0.6957 -1.1064  0.4322
 2235TIP3   OH228119   4.255   0.892  16.478  0.4723 -0.5700 -0.1679
 2235TIP3    H128120   4.197   0.816  16.468 -1.2944  0.6722  0.0254
 2235TIP3    H228121   4.288   0.885  16.567 -0.8374 -0.3753  0.3593
 2236TIP3   OH228122   2.860   2.583  12.439  0.4248 -0.7889  0.1995
 2236TIP3    H128123   2.765   2.590  12.426  0.2567 -1.4970  0.9300
 2236TIP3    H228124   2.877   2.489  12.433  1.3287 -0.5507 -1.4491
 2237TIP3   OH228125   4.610   1.599   2.366 -0.2020 -0.0627 -0.5293
 2237TIP3    H128126   4.591   1.525   2.424  1.4987 -0.7588 -0.7997
 2237TIP3    H228127   4.542   1.664   2.386  0.8238  0.1338  2.9334
 2238TIP3   OH228128   0.348   4.708   1.009  0.0875 -0.0384 -0.2829
 2238TIP3    H128129   0.326   4.794   1.044 -0.2443 -0.8057  1.4776
 2238TIP3    H228130   0.360   4.723   0.915 -2.2830  1.5177 -0.4216
 2239TIP3   OH228131   5.497   1.206  11.100  0.5940 -0.3879  0.5729
 2239TIP3    H128132   5.559   1.227  11.029 -0.4506  1.0441  0.0326
 2239TIP3    H228133   5.468   1.292  11.132 -1.5488 -0.9989  0.4073
 2240TIP3   OH228134   6.000   2.395   4.511  0.5520 -0.2965  0.1724
 2240TIP3    H128135   5.972   2.487   4.507  1.2808 -0.0745 -0.2159
 2240TIP3    H228136   6.012   2.370   4.419  0.9462 -0.5846  0.2978
 2241TIP3   OH228137   2.005   4.823   2.071  0.1056 -0.5794 -0.0252
 2241TIP3    H128138   1.995   4.908   2.029  0.8578 -0.7221 -0.5104
 2241TIP3    H228139   2.005   4.760   1.998  2.0945 -0.7780  0.0948
 2242TIP3   OH228140   3.569   1.110  15.490  0.4408 -0.4444  0.3182
 2242TIP3    H128141   3.563   1.058  15.570 -1.0644 -1.3281 -0.3268
 2242TIP3    H228142   3.546   1.199  15.518 -1.8422 -1.0583  0.6240
 2243TIP3   OH228143   2.879   1.284   3.424  0.6220 -0.1125 -0.5015
 2243TIP3    H128144   2.966   1.279   3.461  0.3102  0.6067  0.3586
 2243TIP3    H228145   2.852   1.375   3.436 -0.9055 -0.6901  0.7920
 2244TIP3   OH228146   4.060   5.807  13.656  0.0915  0.5035  0.5137
 2244TIP3    H128147   4.058   5.713  13.676 -0.8560  0.0927 -1.3324
 2244TIP3    H228148   3.972   5.826  13.625  0.9614  1.4281 -1.5353
 2245TIP3   OH228149   4.219   6.508  12.200 -0.3027  0.2498 -0.2556
 2245TIP3    H128150   4.270   6.427  12.198 -0.6353  0.0479 -0.8267
 2245TIP3    H228151   4.180   6.509  12.288  0.6362  0.3831  0.1663
 2246TIP3   OH228152   6.664   5.769   0.602  0.0708 -0.5251 -0.1154
 2246TIP3    H128153   6.570   5.788   0.611 -0.2224 -1.7442 -0.5097
 2246TIP3    H228154   6.683   5.708   0.673  1.0186  1.1735  1.1629
 2247TIP3   OH228155   4.788   1.690  11.201  0.4542 -0.0729  0.0753
 2247TIP3    H128156   4.828   1.603  11.203  1.3542  0.3398  0.1564
 2247TIP3    H228157   4.788   1.714  11.108  2.7558  0.9888  0.2968
 2248TIP3   OH228158   1.403   0.014   2.523  0.0610  0.2579 -0.1156
 2248TIP3    H128159   1.411  -0.046   2.597 -0.0988 -0.0262 -0.3275
 2248TIP3    H228160   1.389  -0.043   2.447  0.8606  0.5048 -0.4660
 2249TIP3   OH228161   3.907   4.821   3.715  0.1071  0.2740 -0.0471
 2249TIP3    H128162   3.892   4.911   3.743 -3.4089 -0.4322  0.8617
 2249TIP3    H228163   3.855   4.811   3.636  1.5187 -0.6567 -0.9006
 2250TIP3   OH228164   2.119   6.315  12.494  0.6409 -0.1643 -0.4582
 2250TIP3    H128165   2.148   6.380  12.558  2.1524 -0.9136 -0.3322
 2250TIP3    H228166   2.031   6.291  12.522  1.2505 -0.4691  1.3778
 2251TIP3   OH228167   0.003   3.671   4.315 -0.1620  0.7728 -0.2539
 2251TIP3    H128168   0.019   3.591   4.365 -0.7155  2.7387  3.3880
 2251TIP3    H228169   0.082   3.724   4.329 -0.6358  1.6794 -0.9398
 2252TIP3   OH228170   1.233   1.018  11.371  0.6149 -0.0784 -0.1347
 2252TIP3    H128171   1.320   0.984  11.349  0.2957 -0.7140 -0.4476
 2252TIP3    H228172   1.179   0.997  11.295 -0.2324 -1.2955  0.7668
 2253TIP3   OH228173   5.555   4.725   5.928 -0.3407  0.2341 -0.0470
 2253TIP3    H128174   5.586   4.757   6.013  0.1779 -0.7513  0.1563
 2253TIP3    H228175   5.551   4.630   5.939 -2.5585  0.2410 -0.3818
 2254TIP3   OH228176   0.951   2.944   1.364  0.8242  0.1375  0.3588
 2254TIP3    H128177   0.857   2.943   1.346  0.8765 -1.5380  0.0468
 2254TIP3    H228178   0.973   2.852   1.379  2.3092  0.5782  1.0080
 2255TIP3   OH228179   3.501   5.017   6.579 -0.0730  0.0001  0.3218
 2255TIP3    H128180   3.433   5.082   6.556 -1.8398 -0.9770  2.4269
 2255TIP3    H228181   3.469   4.935   6.542  1.4355  0.0052 -1.0900
 2256TIP3   OH228182   1.435   3.569  16.387  0.3986 -0.2717 -0.1094
 2256TIP3    H128183   1.414   3.613  16.305  0.7071 -0.5960 -0.3656
 2256TIP3    H228184   1.372   3.604  16.450  0.0095 -0.1955 -0.5365
 2257TIP3   OH228185   3.567   5.417   4.660  0.6900 -0.1083 -0.0059
 2257TIP3    H128186   3.499   5.361   4.625  0.2604 -0.0641  0.7332
 2257TIP3    H228187   3.636   5.417   4.593 -1.1408  2.0482 -2.0737
 2258TIP3   OH228188   5.203   4.989  11.043 -0.1309  0.4307 -0.1354
 2258TIP3    H128189   5.223   4.957  10.955 -1.3167  0.0452 -0.2926
 2258TIP3    H228190   5.275   4.959  11.097  0.4493  0.3894 -0.9184
 2259TIP3   OH228191   6.713   4.147  16.115 -0.1540 -0.1900  0.3968
 2259TIP3    H128192   6.636   4.194  16.147 -1.1456 -0.8945 -0.8797
 2259TIP3    H228193   6.777   4.215  16.095 -0.9062  0.4942  0.3010
 2260TIP3   OH228194   5.750   6.470   3.476  0.6065  0.5867  0.0988
 2260TIP3    H128195   5.683   6.418   3.431 -0.2611  0.9841  0.8895
 2260TIP3    H228196   5.829   6.460   3.423  0.1572 -0.6364 -0.3548
 2261TIP3   OH228197   0.299   5.086  13.116 -0.0439 -0.0520 -0.1280
 2261TIP3    H128198   0.274   5.014  13.057  0.8113 -0.2452 -0.2741
 2261TIP3    H228199   0.384   5.059  13.151  0.7830  1.3455 -0.9529
 2262TIP3   OH228200   0.876   5.671   6.409 -0.2103 -0.3714 -0.0859
 2262TIP3    H128201   0.957   5.716   6.437 -0.3923  1.0656 -1.7241
 2262TIP3    H228202   0.902   5.622   6.331 -0.6646 -0.8619  0.0705
 2263TIP3   OH228203   1.785   3.426  10.955  0.0770  0.2603 -0.0225
 2263TIP3    H128204   1.871   3.467  10.948  0.0283  0.1108 -2.2977
 2263TIP3    H228205   1.803   3.332  10.944 -0.2440  0.0781  0.9426
 2264TIP3   OH228206   6.244   5.917   3.183 -0.6589  0.5126  0.0655
 2264TIP3    H128207   6.221   5.824   3.179 -2.4288  0.8953  0.4539
 2264TIP3    H228208   6.269   5.939   3.093  0.1400 -0.4158  0.0450
 2265TIP3   OH228209   3.948   2.083  14.908  0.5600  0.3616 -0.2626
 2265TIP3    H128210   3.912   1.995  14.922 -0.2514  0.4920 -1.3979
 2265TIP3    H228211   4.015   2.093  14.976 -0.8781 -0.2754  1.3202
 2266TIP3   OH228212   5.640   0.671  12.550 -0.4017  0.0776  0.1583
 2266TIP3    H128213   5.598   0.630  12.474  0.3471 -0.1602 -0.1331
 2266TIP3    H228214   5.631   0.605  12.620 -1.1182  0.3099  0.2979
 2267TIP3   OH228215   5.533   1.277   1.189 -0.0217  0.3040 -0.1717
 2267TIP3    H128216   5.529   1.184   1.166 -0.8001  0.8078 -2.3090
 2267TIP3    H228217   5.458   1.290   1.248 -0.5576 -0.2188 -0.7219
 2268TIP3   OH228218   0.811   3.206   5.477 -0.0633 -0.1317  0.5239
 2268TIP3    H128219   0.747   3.136   5.469  0.3107 -0.4212 -0.0498
 2268TIP3    H228220   0.870   3.178   5.547  0.4208 -0.6767 -0.0857
 2269TIP3   OH228221   0.160   5.156   5.317 -0.1559  0.5688  0.5690
 2269TIP3    H128222   0.144   5.249   5.334 -0.9164  0.4806  0.3474
 2269TIP3    H228223   0.247   5.140   5.354  1.9576  2.3581 -3.0209
 2270TIP3   OH228224   5.155   3.830  15.053  0.1864  0.4097  0.3001
 2270TIP3    H128225   5.131   3.877  14.974  0.1135 -0.0490  0.0487
 2270TIP3    H228226   5.105   3.873  15.123  0.7602  1.2526  0.2137
 2271TIP3   OH228227   4.818   4.723  10.683  0.8445 -0.1407  0.0287
 2271TIP3    H128228   4.770   4.656  10.635  1.4844 -0.5956  0.0089
 2271TIP3    H228229   4.885   4.753  10.622  1.3374 -0.3606  0.4601
 2272TIP3   OH228230   5.155   2.399  12.051  0.2171 -0.5176 -0.1741
 2272TIP3    H128231   5.185   2.448  11.975  0.8091  1.4402  1.2312
 2272TIP3    H228232   5.083   2.450  12.086  0.1003 -1.2596  0.7095
 2273TIP3   OH228233   6.205   2.988   1.302 -0.6295 -0.2143 -0.1633
 2273TIP3    H128234   6.212   3.083   1.306  0.9495 -0.2991 -0.2169
 2273TIP3    H228235   6.284   2.956   1.345 -0.2950 -1.4741 -1.6087
 2274TIP3   OH228236   0.157   3.140   5.378 -0.3633 -0.3336  0.2365
 2274TIP3    H128237   0.190   3.161   5.465  0.4239  0.4163 -0.2251
 2274TIP3    H228238   0.104   3.062   5.391 -0.5475 -0.0304  1.4414
 2275TIP3   OH228239   1.435   2.649   5.272 -0.2159  0.1579 -0.6125
 2275TIP3    H128240   1.528   2.668   5.280 -0.4953  0.9908  0.9131
 2275TIP3    H228241   1.429   2.554   5.280  0.5328  0.0379 -1.3028
 2276TIP3   OH228242   2.700   2.918  12.353  0.5716 -0.1514  0.4269
 2276TIP3    H128243   2.713   2.825  12.336  1.6323  0.3161 -1.5536
 2276TIP3    H228244   2.656   2.951  12.275  0.6499  1.0914  0.8933
 2277TIP3   OH228245   6.559   2.636  11.579 -0.1080  0.0291  0.3403
 2277TIP3    H128246   6.649   2.603  11.576  0.2526  0.9995 -1.8570
 2277TIP3    H228247   6.553   2.695  11.504 -1.7398  2.2569  2.0850
 2278TIP3   OH228248   1.700   3.175   2.422 -0.5599  0.5439 -0.0894
 2278TIP3    H128249   1.684   3.114   2.349 -1.0283  1.0999 -0.4598
 2278TIP3    H228250   1.752   3.245   2.384 -1.1281  1.0290  0.0088
 2279TIP3   OH228251   1.245   5.789   5.576  0.4242  0.0562  0.1263
 2279TIP3    H128252   1.150   5.798   5.567  0.4842  0.9027  0.2362
 2279TIP3    H228253   1.257   5.714   5.634 -0.2619  1.3850  2.0882
 2280TIP3   OH228254   6.049   2.388   1.408 -0.0183 -0.0031  0.1017
 2280TIP3    H128255   6.030   2.308   1.359 -0.3683 -0.9175  1.6617
 2280TIP3    H228256   6.145   2.389   1.414 -0.0340 -0.5406  0.4558
 2281TIP3   OH228257   5.925   1.236  10.924 -0.9159 -0.0483 -0.1679
 2281TIP3    H128258   5.864   1.169  10.955  0.1056 -0.8957  0.0734
 2281TIP3    H228259   5.927   1.225  10.829 -3.2152  1.8320 -0.5452
 2282TIP3   OH228260   3.157   3.665  16.952 -0.4457 -0.3405 -0.1754
 2282TIP3    H128261   3.131   3.756  16.937 -1.3137 -0.5712 -0.1101
 2282TIP3    H228262   3.082   3.626  16.997 -0.2014 -1.1715 -0.4799
 2283TIP3   OH228263   3.419   4.733  11.483 -0.6375  0.2563 -0.5076
 2283TIP3    H128264   3.404   4.715  11.390 -0.5965 -2.6119 -0.0416
 2283TIP3    H228265   3.484   4.668  11.509  1.0543  2.4616  1.0593
 2284TIP3   OH228266   4.613   4.992   1.149 -0.0674  0.5292  0.0862
 2284TIP3    H128267   4.635   4.966   1.059 -1.1225  2.6069 -0.8360
 2284TIP3    H228268   4.545   5.059   1.139 -0.2796  0.7573  2.4591
 2285TIP3   OH228269   0.736   6.018   3.169 -0.5550  0.2036  0.1660
 2285TIP3    H128270   0.727   6.109   3.140 -2.3752  0.2979  0.8434
 2285TIP3    H228271   0.660   5.974   3.131  0.1246 -0.9653  0.1269
 2286TIP3   OH228272   5.362   3.860   3.295  0.4865 -0.0521  0.2377
 2286TIP3    H128273   5.422   3.934   3.295 -0.5374  0.7977 -0.3818
 2286TIP3    H228274   5.418   3.784   3.311  1.4227  0.9388  2.0179
 2287TIP3   OH228275   5.248   1.967  15.011  0.1240 -0.5716  0.2299
 2287TIP3    H128276   5.242   1.979  14.916  1.1225 -0.4345  0.1641
 2287TIP3    H228277   5.343   1.962  15.028 -0.0588 -1.3313  1.1276
 2288TIP3   OH228278   5.550   3.317   5.958 -0.4660 -0.0933  0.1000
 2288TIP3    H128279   5.552   3.221   5.954  1.2019 -0.0760 -0.3479
 2288TIP3    H228280   5.499   3.336   6.037  0.6729 -1.4112  1.2232
 2289TIP3   OH228281   0.197   1.006  13.024  0.1122  0.1449 -0.5264
 2289TIP3    H128282   0.292   1.015  13.023  0.1734 -0.4089 -0.0572
 2289TIP3    H228283   0.165   1.094  13.003  0.7148 -0.0664 -2.4720
 2290TIP3   OH228284   6.676   0.246   2.970 -0.5817  0.3344  0.1181
 2290TIP3    H128285   6.697   0.290   3.052 -0.7261 -0.0729  0.3711
 2290TIP3    H228286   6.684   0.153   2.989 -1.9416  0.1860  0.0388
 2291TIP3   OH228287   1.893   1.171  13.255 -0.0110 -0.2523  0.7181
 2291TIP3    H128288   1.922   1.081  13.243  0.4481  0.0542 -0.5818
 2291TIP3    H228289   1.802   1.172  13.224 -0.6667 -0.6554  2.4831
 2292TIP3   OH228290   6.547   1.409   4.220 -0.1303 -0.3111 -0.6354
 2292TIP3    H128291   6.506   1.494   4.236 -0.4334 -0.5346 -0.2076
 2292TIP3    H228292   6.486   1.346   4.258 -0.0611 -0.7419 -1.2364
 2293TIP3   OH228293   6.096   5.899   2.883 -0.0290 -0.3957 -0.2829
 2293TIP3    H128294   6.191   5.885   2.890 -0.2578 -1.1617  2.8785
 2293TIP3    H228295   6.060   5.812   2.867 -0.2387 -0.1598 -1.1316
 2294TIP3   OH228296   5.565   1.391  10.330 -0.0335  0.1108 -0.5228
 2294TIP3    H128297   5.636   1.455  10.317  1.3193 -1.0894  0.6790
 2294TIP3    H228298   5.610   1.307  10.340 -1.5253 -0.5086  1.6007
 2295TIP3   OH228299   2.180   5.704   1.444 -0.1404 -0.0539 -0.0639
 2295TIP3    H128300   2.170   5.631   1.383  1.7649 -0.2031 -0.2581
 2295TIP3    H228301   2.195   5.664   1.529 -1.1648  0.1472  0.2253
 2296TIP3   OH228302   1.025   1.314  15.089 -0.0531 -0.3059 -0.0568
 2296TIP3    H128303   0.998   1.314  15.182 -0.6263  0.5001 -0.2057
 2296TIP3    H228304   1.034   1.222  15.067  1.9098 -0.4926  1.3043
 2297TIP3   OH228305   1.607   6.691  13.952  0.0864 -0.7193  0.6324
 2297TIP3    H128306   1.665   6.628  13.909  0.6931  1.5809 -2.2465
 2297TIP3    H228307   1.525   6.643  13.963  0.8749 -2.3904 -0.3259
 2298TIP3   OH228308   2.836   5.375  14.801  0.1042  0.5046 -0.3311
 2298TIP3    H128309   2.913   5.427  14.780  0.4224  0.9486  1.7707
 2298TIP3    H228310   2.865   5.316  14.870 -1.1635 -0.0804 -0.2736
 2299TIP3   OH228311   6.293   3.456   3.137 -0.7035  0.3607 -0.4215
 2299TIP3    H128312   6.224   3.398   3.170 -1.5291  0.9551 -1.0848
 2299TIP3    H228313   6.255   3.543   3.140 -0.0527  0.6729 -0.9946
 2300TIP3   OH228314   6.042   3.202  11.975  0.9835  0.4722  0.3373
 2300TIP3    H128315   6.087   3.247  11.904 -0.1788 -1.4229 -1.7135
 2300TIP3    H228316   5.988   3.270  12.016  1.3593  1.5147 -0.8417
 2301TIP3   OH228317   4.766   6.777   1.910 -0.4258  0.2805 -0.4150
 2301TIP3    H128318   4.809   6.832   1.845  1.4019  0.4738  0.8998
 2301TIP3    H228319   4.835   6.721   1.944 -1.5498 -0.4972  0.6574
 2302TIP3   OH228320   3.131   4.200  16.616  0.3730 -0.1172  0.2012
 2302TIP3    H128321   3.206   4.245  16.653  0.3591 -0.3106  0.4683
 2302TIP3    H228322   3.166   4.117  16.583  0.2913 -0.1737  0.2557
 2303TIP3   OH228323   5.271   5.687  13.920  0.8253 -0.2214 -0.0829
 2303TIP3    H128324   5.242   5.616  13.862  3.1413 -0.6136 -0.8696
 2303TIP3    H228325   5.327   5.742  13.864 -0.6975  2.1238  0.5808
 2304TIP3   OH228326   3.814   5.516  11.649  0.6193 -0.0086  0.5764
 2304TIP3    H128327   3.897   5.518  11.602  0.5432  0.6055  0.4599
 2304TIP3    H228328   3.803   5.425  11.675  0.3843 -0.4924 -1.0859
 2305TIP3   OH228329   3.756   1.202  14.103  0.3787 -0.0667 -0.0557
 2305TIP3    H128330   3.688   1.186  14.169 -0.1485 -2.0746 -1.0125
 2305TIP3    H228331   3.717   1.266  14.043  0.8665  1.7926  1.4836
 2306TIP3   OH228332   4.492   3.642   4.627  0.6006  0.0156 -0.0009
 2306TIP3    H128333   4.463   3.728   4.657  0.4603  0.0069 -0.1084
 2306TIP3    H228334   4.426   3.616   4.563  0.4093 -0.3578  0.3422
 2307TIP3   OH228335   3.181   2.662  16.593 -0.0414 -0.0050 -0.4885
 2307TIP3    H128336   3.139   2.587  16.635 -1.7685  1.8643  1.3413
 2307TIP3    H228337   3.253   2.686  16.652  1.2375 -0.8524 -1.6509
 2308TIP3   OH228338   4.371   1.952   4.482 -0.3827 -0.5562 -0.2602
 2308TIP3    H128339   4.307   1.971   4.413 -0.3320 -0.7203 -0.3551
 2308TIP3    H228340   4.352   2.015   4.551 -2.2365 -2.1665  0.7678
 2309TIP3   OH228341   0.598   3.076  12.588 -0.2475  0.2470 -0.4331
 2309TIP3    H128342   0.616   3.022  12.665 -2.7400 -0.7374 -0.4562
 2309TIP3    H228343   0.539   3.144  12.619  0.3465  1.0819 -1.0772
 2310TIP3   OH228344   5.299   0.060   6.158  0.0573  0.1035 -0.8916
 2310TIP3    H128345   5.307  -0.033   6.138  1.2767 -0.0683  0.3238
 2310TIP3    H228346   5.384   0.098   6.135 -0.1119  0.7495 -0.4842
 2311TIP3   OH228347   1.480   4.923  14.933  0.0697  0.1252  0.0643
 2311TIP3    H128348   1.522   5.009  14.938 -0.7003  0.6482 -1.5989
 2311TIP3    H228349   1.394   4.941  14.895 -0.3062 -1.3304  0.1725
 2312TIP3   OH228350   4.963   0.519   3.675  0.1232 -0.4866  0.2942
 2312TIP3    H128351   4.898   0.450   3.688  0.5414 -1.0417 -0.5144
 2312TIP3    H228352   4.948   0.580   3.748 -1.8612 -0.1616 -0.3253
 2313TIP3   OH228353   6.543   2.087  13.111  0.0997  0.2087  0.3985
 2313TIP3    H128354   6.509   2.048  13.030  1.1927  1.4723 -0.7258
 2313TIP3    H228355   6.563   2.012  13.167  2.3680 -0.9544 -1.7503
 2314TIP3   OH228356   2.776   4.344   4.091  0.4183 -0.8033 -0.1712
 2314TIP3    H128357   2.701   4.373   4.039  0.8971  0.8434  0.0100
 2314TIP3    H228358   2.792   4.415   4.153  1.9871 -1.2108 -0.0639
 2315TIP3   OH228359   4.788   1.857   2.593 -0.1606 -0.2634 -0.1494
 2315TIP3    H128360   4.846   1.851   2.517  1.3756 -0.4219  0.9816
 2315TIP3    H228361   4.822   1.933   2.642 -1.6427  0.3426 -0.0269
 2316TIP3   OH228362   6.313   6.114   0.233 -0.0981  0.4329 -0.4219
 2316TIP3    H128363   6.371   6.173   0.185  0.1467 -0.1787 -0.8912
 2316TIP3    H228364   6.356   6.102   0.317  0.4852 -0.0554 -0.7858
 2317TIP3   OH228365   5.771   3.276   5.696 -0.0497 -0.4569  0.3856
 2317TIP3    H128366   5.684   3.244   5.674 -0.0485  0.2371 -0.7389
 2317TIP3    H228367   5.761   3.372   5.699  0.6853 -0.3622  0.1290
 2318TIP3   OH228368   3.976   0.049  15.713  0.2037  0.5046 -0.1949
 2318TIP3    H128369   4.048   0.100  15.748  1.1695  0.9103 -2.5757
 2318TIP3    H228370   4.000  -0.042  15.731 -0.7384  0.7399  2.6172
 2319TIP3   OH228371   3.091   1.923   2.808 -0.0236 -0.1587 -0.2453
 2319TIP3    H128372   3.088   1.939   2.902  0.1564  1.0626 -0.4307
 2319TIP3    H228373   3.111   1.830   2.800 -1.3318 -0.5757  0.9236
 2320TIP3   OH228374   2.023   1.379   3.498  0.3569  0.0294  0.3434
 2320TIP3    H128375   1.950   1.425   3.540  1.5037  2.0155  0.3427
 2320TIP3    H228376   2.070   1.448   3.451  0.8929 -1.5928 -1.6504
 2321TIP3   OH228377   3.444   0.799   0.469  0.3278  0.2776  0.3578
 2321TIP3    H128378   3.395   0.871   0.508 -1.2978 -1.0669  0.9407
 2321TIP3    H228379   3.459   0.826   0.378 -1.9088  0.6027  0.0320
 2322TIP3   OH228380   2.373   3.060  14.913  0.2448  0.1790  0.5915
 2322TIP3    H128381   2.423   2.985  14.947 -0.5322  0.2004  1.8663
 2322TIP3    H228382   2.439   3.127  14.896  0.9015 -0.6300 -0.1188
 2323TIP3   OH228383   5.779   5.120   3.453 -0.0851 -0.5231 -0.1985
 2323TIP3    H128384   5.778   5.214   3.469  0.7108 -0.5584  0.0813
 2323TIP3    H228385   5.810   5.082   3.536 -2.3530 -1.1958  0.4203
 2324TIP3   OH228386   2.966   0.564  14.679  0.0742  0.1273 -0.1527
 2324TIP3    H128387   2.958   0.650  14.719 -3.1326  0.8596 -1.9815
 2324TIP3    H228388   2.965   0.581  14.585 -0.0133 -1.8416 -0.5460
 2325TIP3   OH228389   4.486   2.535   2.158 -0.5126 -0.1410  1.0468
 2325TIP3    H128390   4.452   2.508   2.243  0.7583 -1.2738  1.2182
 2325TIP3    H228391   4.534   2.459   2.125 -0.4442  0.4860 -0.4112
 2326TIP3   OH228392   2.159   5.435   1.625  0.2059  0.6190  0.4294
 2326TIP3    H128393   2.119   5.392   1.549 -1.3207  0.0191  1.5155
 2326TIP3    H228394   2.247   5.396   1.631 -0.3080 -0.6594  0.0204
 2327TIP3   OH228395   6.116   4.858   1.119  0.2968 -0.2517  0.0791
 2327TIP3    H128396   6.106   4.763   1.128  2.2702 -0.4334  0.6607
 2327TIP3    H228397   6.026   4.891   1.117 -0.4685 -2.2101 -1.1773
 2328TIP3   OH228398   6.659   2.326  11.610  0.0419  0.2698 -0.2911
 2328TIP3    H128399   6.597   2.253  11.614 -0.1724  0.4784  0.2913
 2328TIP3    H228400   6.667   2.346  11.517  1.0328 -1.2961 -0.5810
 2329TIP3   OH228401   0.793   0.873  16.994 -0.0753  0.4055 -0.4262
 2329TIP3    H128402   0.715   0.821  16.977 -0.8722  1.3161  0.3250
 2329TIP3    H228403   0.816   0.911  16.910 -2.0847  2.3229 -0.1870
 2330TIP3   OH228404   4.559   5.829  16.354 -0.2351 -0.0188 -0.0122
 2330TIP3    H128405   4.537   5.894  16.422 -1.2614 -0.9303  0.5614
 2330TIP3    H228406   4.654   5.819  16.361 -0.0495  1.4548 -0.1541
 2331TIP3   OH228407   2.712   3.057  13.442  0.1284 -0.5377  0.5623
 2331TIP3    H128408   2.738   3.112  13.367 -0.9482  1.5214  1.5950
 2331TIP3    H228409   2.794   3.015  13.470  1.1741  1.0731  0.1041
 2332TIP3   OH228410   6.143   2.955   3.694 -0.3043 -0.0593  0.4288
 2332TIP3    H128411   6.075   3.023   3.691  0.0670  0.3059  0.1513
 2332TIP3    H228412   6.225   3.004   3.694 -0.0448 -0.4612  2.0825
 2333TIP3   OH228413   5.934   0.443   3.823  0.0081  0.7343 -0.2977
 2333TIP3    H128414   5.973   0.387   3.890  0.3572 -0.2988 -1.3327
 2333TIP3    H228415   5.840   0.426   3.830  0.0020  0.9233  0.1681
 2334TIP3   OH228416   2.113   2.606  15.557  0.1658  0.6428 -1.0347
 2334TIP3    H128417   2.065   2.575  15.480 -0.4947 -0.7884 -0.0746
 2334TIP3    H228418   2.197   2.635  15.522 -0.7371  1.6383 -2.5244
 2335TIP3   OH228419   3.083   2.756  14.071  0.0704  0.2435 -0.4837
 2335TIP3    H128420   3.030   2.687  14.111  0.2174 -0.0016 -0.7119
 2335TIP3    H228421   3.020   2.814  14.028 -0.0922  0.5052  0.0847
 2336TIP3   OH228422   6.165   4.429   1.590 -0.0366  0.0338  0.1533
 2336TIP3    H128423   6.078   4.439   1.631  1.5769  0.2121  4.0018
 2336TIP3    H228424   6.201   4.350   1.631  2.7369  1.6897  1.1668
 2337TIP3   OH228425   1.897   5.798  14.739  0.2375  0.4871  0.0185
 2337TIP3    H128426   1.933   5.719  14.781  1.1410  0.4394 -0.8126
 2337TIP3    H228427   1.907   5.867  14.805  0.3981  0.1283  0.3718
 2338TIP3   OH228428   1.340   3.011  10.788  0.0580  0.2829 -0.3092
 2338TIP3    H128429   1.379   3.041  10.706 -2.1746 -0.4341 -1.7276
 2338TIP3    H228430   1.260   3.063  10.797 -1.7624 -2.2348 -0.7166
 2339TIP3   OH228431   6.328   5.497   2.089  0.2436 -1.2401  0.4527
 2339TIP3    H128432   6.350   5.548   2.167  0.9082  0.7664 -0.9752
 2339TIP3    H228433   6.235   5.516   2.074  0.7952  0.7834 -0.8423
 2340TIP3   OH228434   3.851   2.899  11.656  0.3737  0.3025 -0.2997
 2340TIP3    H128435   3.819   2.813  11.684 -1.7208  1.7767  2.2235
 2340TIP3    H228436   3.786   2.930  11.593  0.2155  0.6932  0.0486
 2341TIP3   OH228437   0.386   1.593   3.194  0.5295  0.3237 -0.6311
 2341TIP3    H128438   0.389   1.540   3.273 -1.3112  2.7650  1.2038
 2341TIP3    H228439   0.459   1.654   3.203 -0.4372  1.4406 -0.1241
 2342TIP3   OH228440   3.669   3.675  11.928  0.1551 -0.2343  0.8459
 2342TIP3    H128441   3.740   3.656  11.990 -0.8640  0.6698  2.3607
 2342TIP3    H228442   3.612   3.735  11.975 -1.4336 -0.6409 -0.4783
 2343TIP3   OH228443   1.838   2.597  14.241  0.0931 -0.0252 -0.1456
 2343TIP3    H128444   1.854   2.507  14.270  0.6503 -0.1527 -0.8088
 2343TIP3    H228445   1.760   2.625  14.290  2.4660  0.7584  3.5578
 2344TIP3   OH228446   4.759   5.909   3.948  0.6060 -0.2484  0.2548
 2344TIP3    H128447   4.703   5.985   3.935  1.7110  0.8793  1.8342
 2344TIP3    H228448   4.848   5.943   3.949  1.4060 -1.9933 -2.0775
 2345TIP3   OH228449   0.074   1.360   3.347  0.0908  0.7325  0.3151
 2345TIP3    H128450   0.103   1.401   3.265  1.9168 -1.1422 -0.0682
 2345TIP3    H228451   0.067   1.432   3.409 -1.3433  2.2123 -1.4432
 2346TIP3   OH228452   3.673   3.486  14.277 -0.1783 -0.1893 -0.2205
 2346TIP3    H128453   3.695   3.437  14.357  0.4390  0.2893 -0.0886
 2346TIP3    H228454   3.720   3.441  14.207 -0.2861 -0.2833 -0.2335
 2347TIP3   OH228455   6.442   1.781   3.501  0.3424  0.5611 -0.1084
 2347TIP3    H128456   6.403   1.850   3.555 -0.1051 -0.2514  0.6466
 2347TIP3    H228457   6.464   1.712   3.564 -0.9840 -0.7880 -1.0381
 2348TIP3   OH228458   1.657   4.055   3.240 -0.4483 -0.0541 -0.2091
 2348TIP3    H128459   1.645   4.136   3.191 -1.5883 -0.2749 -0.3227
 2348TIP3    H228460   1.740   4.067   3.286 -0.7991  1.3337  0.1057
 2349TIP3   OH228461   4.005   2.614   2.048 -0.2753  0.3700 -0.5371
 2349TIP3    H128462   4.094   2.639   2.023 -0.4072  0.1218 -1.2774
 2349TIP3    H228463   3.981   2.546   1.985 -0.5509 -0.4133  0.3944
 2350TIP3   OH228464   5.933   2.856   0.721 -0.1919 -0.3593  0.2084
 2350TIP3    H128465   6.013   2.865   0.670 -0.3889 -1.0299 -0.2224
 2350TIP3    H228466   5.943   2.773   0.768 -0.2585 -0.0217  0.8371
 2351TIP3   OH228467   6.438   4.868   0.388  0.5598 -0.0266 -0.7012
 2351TIP3    H128468   6.519   4.912   0.360 -0.8131  2.1366 -1.5185
 2351TIP3    H228469   6.423   4.899   0.477 -0.2403  1.0019 -1.1655
 2352TIP3   OH228470   4.813   0.352  13.837  0.1540  0.5676  0.1056
 2352TIP3    H128471   4.783   0.277  13.786 -0.2777 -0.1821  1.4432
 2352TIP3    H228472   4.739   0.412  13.838  0.3703  0.8697 -0.6335
 2353TIP3   OH228473   5.138   0.927   2.579  0.0634  0.0707  0.3100
 2353TIP3    H128474   5.047   0.949   2.597 -0.5985 -2.1059 -0.0928
 2353TIP3    H228475   5.158   0.856   2.641  0.6663 -1.1533 -1.2210
 2354TIP3   OH228476   4.926   2.882  14.329 -0.1713  0.0893  0.1931
 2354TIP3    H128477   4.853   2.889  14.390 -1.0074 -0.9623 -0.6400
 2354TIP3    H228478   4.887   2.849  14.248  0.9604  1.1257 -0.8221
 2355TIP3   OH228479   4.137   3.559  16.975  0.4108  0.6297 -0.6147
 2355TIP3    H128480   4.087   3.480  16.994  1.1243 -0.0463 -1.4612
 2355TIP3    H228481   4.223   3.543  17.014  0.4641  1.1166 -0.5287
 2356TIP3   OH228482   2.349   0.622  15.368  0.0354 -0.1310 -0.3395
 2356TIP3    H128483   2.351   0.603  15.274 -0.4923 -3.2561  0.1883
 2356TIP3    H228484   2.325   0.539  15.409 -0.0442  1.2128  2.5715
 2357TIP3   OH228485   3.513   6.768  11.518  0.0941  0.2940 -0.2393
 2357TIP3    H128486   3.426   6.728  11.509 -1.2302  1.9406  3.3282
 2357TIP3    H228487   3.514   6.838  11.453 -1.8137  1.0308  0.4583
 2358TIP3   OH228488   3.199   5.286   1.433 -0.5205  0.0996 -0.1286
 2358TIP3    H128489   3.261   5.237   1.486 -0.6477 -0.4825 -0.4965
 2358TIP3    H228490   3.188   5.369   1.478 -1.3838 -0.7446  1.3098
 2359TIP3   OH228491   5.372   1.355   4.440  0.0567  0.0720  0.0806
 2359TIP3    H128492   5.439   1.318   4.498  1.3972 -0.2927 -1.6064
 2359TIP3    H228493   5.290   1.317   4.470  0.6375  0.2012  1.9548
 2360TIP3   OH228494   6.276   2.869  11.701  0.4802  0.1686 -0.0278
 2360TIP3    H128495   6.259   2.778  11.722 -0.3207  0.1716 -0.6087
 2360TIP3    H228496   6.341   2.867  11.630 -0.3385 -0.0012 -0.7955
 2361TIP3   OH228497   0.537   1.451   6.269 -0.5951 -0.2762  0.2427
 2361TIP3    H128498   0.539   1.537   6.312  0.7260 -0.2231  0.1067
 2361TIP3    H228499   0.448   1.419   6.284 -1.4149  1.4915 -0.4314
 2362TIP3   OH228500   2.058   4.084  15.911  0.2097 -0.0841  0.4970
 2362TIP3    H128501   1.997   4.105  15.841  0.4239 -0.2833  0.2461
 2362TIP3    H228502   2.009   4.025  15.968  0.2991 -0.5657  0.0797
 2363TIP3   OH228503   4.472   0.902   2.043 -0.3849  0.3104  0.3827
 2363TIP3    H128504   4.494   0.836   2.110  0.6220  1.0393  0.7951
 2363TIP3    H228505   4.508   0.867   1.962 -0.5093  0.0048  0.4577
 2364TIP3   OH228506   5.874   5.684   0.006  0.0799 -0.0892  0.2862
 2364TIP3    H128507   5.901   5.741   0.078  1.9266 -2.1482  1.3744
 2364TIP3    H228508   5.920   5.601   0.023 -3.7920 -2.6073 -0.1292
 2365TIP3   OH228509   5.898   4.266   5.457  0.4602  0.2277  0.2009
 2365TIP3    H128510   5.897   4.173   5.481 -0.9072 -0.0148 -0.6940
 2365TIP3    H228511   5.935   4.310   5.533 -1.1250 -0.7802  1.6304
 2366TIP3   OH228512   2.125   1.754  11.403  0.0892  1.1739 -0.0835
 2366TIP3    H128513   2.177   1.708  11.337  0.4092  0.4691  0.6301
 2366TIP3    H228514   2.132   1.698  11.481 -1.1818  1.4222  0.2253
 2367TIP3   OH228515   3.523   0.987   2.679  0.2214  0.6483  0.0235
 2367TIP3    H128516   3.566   0.919   2.730 -0.5107 -0.3269 -0.6127
 2367TIP3    H228517   3.468   1.033   2.743 -0.2693 -0.2094  0.2457
 2368TIP3   OH228518   1.824   1.892   0.348 -0.1325 -0.0769  0.8331
 2368TIP3    H128519   1.764   1.866   0.418  0.4539 -1.0262  1.0052
 2368TIP3    H228520   1.848   1.809   0.306  0.2282  0.3974  0.0902
 2369TIP3   OH228521   5.714   2.305   0.324  0.2892  0.1986  0.3725
 2369TIP3    H128522   5.704   2.280   0.232  0.6767 -0.2450  0.4450
 2369TIP3    H228523   5.625   2.324   0.354  0.2834  1.5791 -0.4280
 2370TIP3   OH228524   3.767   5.662  13.872 -0.2030 -0.3382  0.2894
 2370TIP3    H128525   3.694   5.655  13.934  0.1339  0.1363  0.7497
 2370TIP3    H228526   3.812   5.743  13.897  0.0418 -0.2362 -0.4663
 2371TIP3   OH228527   0.766   6.178  14.278  0.1187  0.0162  0.1830
 2371TIP3    H128528   0.834   6.112  14.262  2.3500  2.3294 -0.6850
 2371TIP3    H228529   0.796   6.225  14.355 -0.5727  0.9960 -0.1281
 2372TIP3   OH228530   6.764   4.695  10.554  0.7206 -0.0571  0.7760
 2372TIP3    H128531   6.774   4.790  10.546  1.1217 -0.0649  1.1368
 2372TIP3    H228532   6.795   4.675  10.642 -0.3548 -0.3952  1.1015
 2373TIP3   OH228533   2.212   3.406   5.679 -0.7429  0.2783  0.5399
 2373TIP3    H128534   2.164   3.351   5.617  0.7135 -0.3481 -0.0688
 2373TIP3    H228535   2.212   3.493   5.639 -0.6662  0.0992  0.1525
 2374TIP3   OH228536   3.904   6.651  10.822 -0.2061 -0.1622  0.7859
 2374TIP3    H128537   3.809   6.663  10.827 -0.1472  1.1319 -0.4977
 2374TIP3    H228538   3.918   6.596  10.745  0.0073 -2.3169  2.2730
 2375TIP3   OH228539   2.976   4.594  16.882  0.3623  0.2372 -0.6104
 2375TIP3    H128540   2.932   4.631  16.958  0.4364  0.3848 -0.6382
 2375TIP3    H228541   2.946   4.648  16.809  2.3173  1.8027 -0.3378
 2376TIP3   OH228542   4.815   3.016  12.159  0.3982  0.1683  0.5659
 2376TIP3    H128543   4.893   3.071  12.158  0.5352  0.0201 -1.4085
 2376TIP3    H228544   4.746   3.072  12.195  1.1096  0.7273  1.0829
 2377TIP3   OH228545   0.427   3.390  12.415 -0.3071 -0.4712  0.1665
 2377TIP3    H128546   0.370   3.319  12.386  0.3738 -0.5742 -0.9859
 2377TIP3    H228547   0.515   3.355  12.407  0.0815  0.7186 -1.1034
 2378TIP3   OH228548   1.380   0.068   5.809 -0.1258 -0.3024 -0.6428
 2378TIP3    H128549   1.413  -0.019   5.786 -0.3538 -0.6943  0.4547
 2378TIP3    H228550   1.308   0.052   5.870  0.9877  0.6775  1.0214
 2379TIP3   OH228551   1.339   6.639  14.927 -0.4114 -0.5806 -0.3376
 2379TIP3    H128552   1.301   6.725  14.943 -1.9645 -1.3058  0.0917
 2379TIP3    H228553   1.320   6.621  14.835 -2.5804 -1.5767  0.2422
 2380TIP3   OH228554   3.888   0.577  14.157 -0.3026  0.2074 -0.0061
 2380TIP3    H128555   3.854   0.493  14.188  0.1237 -0.2040 -0.6240
 2380TIP3    H228556   3.821   0.641  14.181 -1.3508 -0.5276 -0.8566
 2381TIP3   OH228557   5.670   3.056  12.704  0.1282 -0.1151  0.0034
 2381TIP3    H128558   5.581   3.047  12.736  0.2501  0.0780  0.4104
 2381TIP3    H228559   5.722   3.071  12.783  0.5325 -0.3186 -0.2227
 2382TIP3   OH228560   0.048   2.954   2.971 -0.9930 -0.4997 -0.3729
 2382TIP3    H128561   0.023   2.908   3.051 -0.9229 -1.1892 -0.7373
 2382TIP3    H228562   0.144   2.953   2.972 -0.9737  0.6606  0.1869
 2383TIP3   OH228563   3.826   0.818   0.586  0.3520 -0.4606 -0.0496
 2383TIP3    H128564   3.915   0.853   0.580 -0.3593  1.7997  1.1067
 2383TIP3    H228565   3.780   0.860   0.513  0.5330 -2.8839 -1.6594
 2384TIP3   OH228566   4.853   3.572   5.661  0.1952 -0.0413 -0.4863
 2384TIP3    H128567   4.826   3.587   5.752 -0.9918 -1.0052 -0.6587
 2384TIP3    H228568   4.810   3.491   5.636 -0.0111  0.5357 -2.1251
 2385TIP3   OH228569   6.539   6.329   4.703 -0.3827 -0.7343  0.1852
 2385TIP3    H128570   6.627   6.297   4.722 -0.0501  0.3037  0.4653
 2385TIP3    H228571   6.483   6.282   4.765  0.3630  0.6757  2.0434
 2386TIP3   OH228572   3.979   4.473   1.627  0.0874  0.0556 -0.1940
 2386TIP3    H128573   3.990   4.565   1.650 -1.9773  0.7142 -1.6221
 2386TIP3    H228574   4.046   4.428   1.679  2.1702  2.4810 -0.5585
 2387TIP3   OH228575   5.458   0.119  13.826 -0.1344  0.1611  0.0231
 2387TIP3    H128576   5.468   0.166  13.743 -1.1638  0.1540 -0.1187
 2387TIP3    H228577   5.511   0.040  13.815  0.9446  0.8736 -0.0456
 2388TIP3   OH228578   5.011   2.180  12.022 -0.3055  0.6985 -0.2707
 2388TIP3    H128579   4.962   2.197  11.941 -2.2759  1.8840  1.0711
 2388TIP3    H228580   5.064   2.258  12.035  2.7313 -0.8878 -2.1125
 2389TIP3   OH228581   0.641   5.310   3.230 -0.0426 -0.1605  0.4428
 2389TIP3    H128582   0.697   5.336   3.304 -0.8673  0.0946  0.9941
 2389TIP3    H228583   0.567   5.266   3.271 -0.3347 -0.3347 -0.2646
 2390TIP3   OH228584   5.046   3.826   0.879 -0.3329  0.0304  0.2886
 2390TIP3    H128585   4.987   3.810   0.805 -0.1466  1.7096 -0.2743
 2390TIP3    H228586   4.990   3.860   0.948 -0.0497  2.2239 -0.4516
 2391TIP3   OH228587   5.926   1.838  15.885  0.0966 -0.0746  0.2964
 2391TIP3    H128588   5.875   1.857  15.964 -0.6895  1.4699 -0.5318
 2391TIP3    H228589   5.861   1.803  15.823  0.0623  1.5683 -0.6471
 2392TIP3   OH228590   6.253   3.046   3.092 -0.2913 -0.5367 -0.0860
 2392TIP3    H128591   6.195   3.088   3.155  0.4311 -2.4796  1.9994
 2392TIP3    H228592   6.335   3.096   3.097 -0.4561 -0.2694 -0.0260
 2393TIP3   OH228593   1.967   5.249   0.717  0.3374 -0.6167  0.5520
 2393TIP3    H128594   1.893   5.309   0.719  0.0907 -0.6475 -2.6656
 2393TIP3    H228595   1.955   5.194   0.795 -1.8035  0.7145  1.2633
 2394TIP3   OH228596   1.580   3.674   5.304  0.5137 -1.0407  0.6732
 2394TIP3    H128597   1.485   3.677   5.292  0.3782 -3.2730  0.8619
 2394TIP3    H228598   1.595   3.714   5.389 -0.2001 -0.2398  0.4359
 2395TIP3   OH228599   1.927   3.642  13.768  0.1016  0.5127 -0.5817
 2395TIP3    H128600   1.867   3.655  13.842 -0.1600  1.9310 -1.0151
 2395TIP3    H228601   1.994   3.583  13.802  0.6327  2.0363  1.1964
 2396TIP3   OH228602   4.404   4.945   2.807 -0.1611 -0.1696 -0.1610
 2396TIP3    H128603   4.422   4.998   2.730  0.4584 -1.7096 -1.1170
 2396TIP3    H228604   4.403   5.008   2.879  0.4110  1.1495 -1.2505
 2397TIP3   OH228605   1.046   2.572  14.159 -0.4705  0.1641  0.1493
 2397TIP3    H128606   1.051   2.489  14.206 -1.1440  0.0294 -0.0150
 2397TIP3    H228607   1.072   2.551  14.070 -0.2594  0.2102  0.1987
 2398TIP3   OH228608   0.846   0.695   2.232  0.5930  0.1132  0.2938
 2398TIP3    H128609   0.776   0.720   2.292 -0.0758 -1.3734  0.1660
 2398TIP3    H228610   0.817   0.613   2.193  2.2577 -0.3726 -0.0229
 2399TIP3   OH228611   2.881   5.728  15.297  0.2667 -0.2695 -0.5321
 2399TIP3    H128612   2.815   5.781  15.341 -0.2156 -0.9911 -0.3704
 2399TIP3    H228613   2.964   5.772  15.317 -0.1221  0.4123 -0.3998
 2400TIP3   OH228614   0.360   3.973   5.432 -0.3397 -0.2224 -0.2880
 2400TIP3    H128615   0.293   4.001   5.369 -1.2053 -2.5754 -0.5541
 2400TIP3    H228616   0.354   4.036   5.503 -0.6362  1.4389 -1.7284
 2401TIP3   OH228617   0.771   1.385   2.263  0.3711  0.1629  0.0440
 2401TIP3    H128618   0.822   1.465   2.272  0.0022  0.2084  2.0573
 2401TIP3    H228619   0.836   1.315   2.259  0.6458  0.4317 -0.2628
 2402TIP3   OH228620   0.937   2.582  15.219 -0.9792 -0.3344  0.2691
 2402TIP3    H128621   0.925   2.561  15.312  0.4631 -0.6297  0.4105
 2402TIP3    H228622   0.853   2.559  15.178 -1.9290  0.5880  1.6174
 2403TIP3   OH228623   3.292   4.353  14.001  0.1768  0.1273 -0.3437
 2403TIP3    H128624   3.297   4.273  13.950 -1.7788  0.6101 -1.4004
 2403TIP3    H228625   3.384   4.380  14.014  0.8408 -2.0405 -0.2693
 2404TIP3   OH228626   0.624   2.667   0.219 -0.5265 -0.3508 -0.0579
 2404TIP3    H128627   0.576   2.725   0.159  0.0547 -0.6246 -0.8017
 2404TIP3    H228628   0.613   2.580   0.182 -0.3830 -0.5581  0.3847
 2405TIP3   OH228629   5.267   6.034   5.707  0.0448 -0.3484  0.3884
 2405TIP3    H128630   5.203   6.045   5.636  0.6475 -1.4525 -0.3535
 2405TIP3    H228631   5.307   6.121   5.717 -1.2202  0.2356  0.5353
 2406TIP3   OH228632   5.795   3.590   4.419 -0.1632 -0.0678 -0.4573
 2406TIP3    H128633   5.866   3.652   4.435 -0.2000 -0.0333 -0.4256
 2406TIP3    H228634   5.788   3.584   4.324  0.2178 -0.4564 -0.4650
 2407TIP3   OH228635   6.766   6.616  12.397 -0.4850  0.2900 -0.6119
 2407TIP3    H128636   6.756   6.675  12.472 -0.7119  0.8048 -1.0369
 2407TIP3    H228637   6.858   6.590  12.400 -0.3132  0.8711 -0.5628
 2408TIP3   OH228638   5.397   4.975  14.971  0.5638  0.4606 -0.5106
 2408TIP3    H128639   5.404   5.024  15.053  0.5215 -0.1723 -0.1223
 2408TIP3    H228640   5.332   4.907  14.988  0.0968  0.7039 -1.2682
 2409TIP3   OH228641   3.655   0.109   5.058 -0.2273  0.3638  0.3989
 2409TIP3    H128642   3.701   0.055   5.122  1.3095 -0.4865 -1.3194
 2409TIP3    H228643   3.671   0.199   5.087 -1.0335 -0.0076  2.1177
 2410TIP3   OH228644   4.579   0.154  16.576 -0.2443 -0.0304  0.1191
 2410TIP3    H128645   4.528   0.079  16.547  1.3200 -1.0569 -0.1063
 2410TIP3    H228646   4.525   0.195  16.644 -1.6490 -0.6437 -0.5905
 2411TIP3   OH228647   3.022   2.083  13.998 -0.3208  0.6988 -0.1380
 2411TIP3    H128648   2.929   2.099  13.984 -0.2224  1.1220 -0.3221
 2411TIP3    H228649   3.067   2.150  13.946  0.1229 -0.6299 -1.5389
 2412TIP3   OH228650   0.286   2.372  11.629 -0.1722 -0.6522  0.2156
 2412TIP3    H128651   0.258   2.329  11.710  0.3717 -2.0979 -0.3279
 2412TIP3    H228652   0.241   2.456  11.629 -0.2626 -0.6691  1.9670
 2413TIP3   OH228653   1.549   2.191  11.598  0.3650 -0.3053 -0.1085
 2413TIP3    H128654   1.606   2.252  11.550 -0.0508  0.0703 -0.1272
 2413TIP3    H228655   1.479   2.170  11.537 -0.2283  0.2614  0.3576
 2414TIP3   OH228656   0.561   2.916   6.150 -0.0691 -0.0541 -0.0138
 2414TIP3    H128657   0.608   2.986   6.194 -1.9367  0.7748  0.7788
 2414TIP3    H228658   0.520   2.867   6.222 -0.5684 -0.6233 -0.6805
 2415TIP3   OH228659   3.036   3.606   3.406  0.1611  0.4112 -0.7259
 2415TIP3    H128660   3.070   3.662   3.476  0.8187 -1.4084  0.4651
 2415TIP3    H228661   2.968   3.554   3.448  1.2432 -1.4129 -1.1345
 2416TIP3   OH228662   4.342   2.712   2.009 -0.3872 -0.5131 -0.2824
 2416TIP3    H128663   4.309   2.786   2.060  1.6664  0.4738 -0.3030
 2416TIP3    H228664   4.385   2.655   2.073  1.6821  0.4367 -0.7568
 2417TIP3   OH228665   5.879   3.589  11.164 -0.1967  0.0154 -0.7208
 2417TIP3    H128666   5.853   3.606  11.073 -0.8605  0.5451 -0.4387
 2417TIP3    H228667   5.862   3.671  11.210 -0.6541 -0.5019  0.0597
 2418TIP3   OH228668   0.557   0.222   2.220 -0.1709 -0.4501  0.4994
 2418TIP3    H128669   0.623   0.163   2.256  0.5836 -0.7849 -1.3089
 2418TIP3    H228670   0.477   0.198   2.266  0.6302 -1.1151  1.6241
 2419TIP3   OH228671   0.821   4.242   5.383 -0.3818 -0.2009  0.2958
 2419TIP3    H128672   0.914   4.231   5.403 -0.2517 -0.0304 -0.1892
 2419TIP3    H228673   0.778   4.248   5.468  0.2554  1.3144  0.5463
 2420TIP3   OH228674   1.014   6.353  13.080 -0.2180  0.5357 -0.4478
 2420TIP3    H128675   1.108   6.369  13.076 -0.2418  1.3616  1.2413
 2420TIP3    H228676   0.979   6.428  13.129 -1.6238 -0.2169 -0.2370
 2421TIP3   OH228677   5.473   4.908   1.885 -0.6067  0.3129  0.2528
 2421TIP3    H128678   5.560   4.894   1.922 -0.2263 -1.3976 -1.1898
 2421TIP3    H228679   5.489   4.951   1.801 -1.3775  2.7135  1.2212
 2422TIP3   OH228680   6.687   4.412  11.444 -0.2250 -0.1861 -0.1275
 2422TIP3    H128681   6.738   4.492  11.428 -0.6166  0.4471  1.6299
 2422TIP3    H228682   6.745   4.357  11.497 -0.9453  0.0861  0.9610
 2423TIP3   OH228683   2.527   4.691  13.154 -0.5054  0.3837  0.1676
 2423TIP3    H128684   2.589   4.710  13.083 -1.2078 -0.0683 -0.5791
 2423TIP3    H228685   2.551   4.752  13.223  1.9703 -0.9653  0.6084
 2424TIP3   OH228686   3.509   6.627  14.902  0.0300  0.4290  0.2458
 2424TIP3    H128687   3.508   6.573  14.981 -0.6551  0.5830  0.3450
 2424TIP3    H228688   3.582   6.593  14.850  1.3168  1.1419  1.5127
 2425TIP3   OH228689   4.701   6.454   2.922 -0.4170  0.0054 -0.3498
 2425TIP3    H128690   4.745   6.374   2.893  0.7489  0.2524  0.6463
 2425TIP3    H228691   4.619   6.455   2.874  0.2291 -0.9923 -1.5329
 2426TIP3   OH228692   5.618   5.552   1.777  0.5330 -0.2530 -0.0923
 2426TIP3    H128693   5.555   5.522   1.842  2.9142 -1.7269  1.7179
 2426TIP3    H228694   5.631   5.477   1.719  1.9785 -0.7001  0.7429
 2427TIP3   OH228695   4.834   4.643   2.904  0.0353 -0.2273 -0.5040
 2427TIP3    H128696   4.756   4.696   2.918 -0.5893 -1.4344  0.7624
 2427TIP3    H228697   4.844   4.640   2.809 -1.1420  0.3673 -0.6681
 2428TIP3   OH228698   2.111   1.692   0.394 -0.3024  0.0475  0.3240
 2428TIP3    H128699   2.045   1.629   0.367  0.4193  0.1809 -1.9059
 2428TIP3    H228700   2.185   1.638   0.422  0.2431 -0.1582 -1.4001
 2429TIP3   OH228701   4.539   3.545   5.460  0.3833  0.1231  0.0276
 2429TIP3    H128702   4.623   3.581   5.431  0.1372  1.3221  0.7327
 2429TIP3    H228703   4.487   3.622   5.483 -0.8731 -0.6123 -0.2760
 2430TIP3   OH228704   3.136   2.358   4.660 -0.1470 -0.5788 -0.6220
 2430TIP3    H128705   3.223   2.354   4.699 -0.1850 -3.1726 -0.6401
 2430TIP3    H228706   3.150   2.400   4.575  0.8105  0.3155 -0.0489
 2431TIP3   OH228707   3.411   2.067   1.806 -0.0047  1.1295 -0.1027
 2431TIP3    H128708   3.433   2.148   1.760  1.6158  0.2106 -1.0506
 2431TIP3    H228709   3.485   2.051   1.863  0.7843 -0.8057 -1.5659
 2432TIP3   OH228710   6.431   3.866   0.687  0.5442  0.2876  0.1048
 2432TIP3    H128711   6.452   3.940   0.629  1.8682 -0.1455  0.0070
 2432TIP3    H228712   6.340   3.883   0.714  0.0060  0.7119 -1.7590
 2433TIP3   OH228713   4.504   4.691   1.045  0.4164 -0.2221 -0.1830
 2433TIP3    H128714   4.518   4.699   0.950 -2.1106 -0.8365 -0.6954
 2433TIP3    H228715   4.424   4.742   1.061  0.5982 -0.4454  1.5554
 2434TIP3   OH228716   6.505   1.198   5.429  0.1164  0.2517 -0.3168
 2434TIP3    H128717   6.445   1.130   5.460  0.4190  0.0737 -0.1094
 2434TIP3    H228718   6.448   1.267   5.396 -0.1989 -0.0546 -0.4276
 2435TIP3   OH228719   3.930   2.964   3.728 -0.5147  0.0335 -0.4422
 2435TIP3    H128720   4.010   3.011   3.752 -0.4999  0.7845 -1.8696
 2435TIP3    H228721   3.860   3.029   3.737 -1.0371 -0.6556  0.9463
 2436TIP3   OH228722   5.114   2.358  17.235  0.3431 -0.6754 -0.6959
 2436TIP3    H128723   5.075   2.326  17.317 -0.2487 -0.9644 -1.0811
 2436TIP3    H228724   5.106   2.453  17.240  0.0697 -0.7050 -0.5314
 2437TIP3   OH228725   3.319   3.046   5.625  0.1610  0.0028  0.1331
 2437TIP3    H128726   3.353   3.051   5.714 -0.0338 -0.8502  0.2680
 2437TIP3    H228727   3.277   2.959   5.621  1.0643 -0.3964 -1.1042
 2438TIP3   OH228728   3.222   1.303  14.079  0.6367 -0.6661 -0.6421
 2438TIP3    H128729   3.142   1.312  14.027  0.2955  0.3020  0.0248
 2438TIP3    H228730   3.209   1.362  14.153  2.6575  0.7658 -1.3636
 2439TIP3   OH228731   5.343   1.667   2.587 -0.4867 -0.3612  0.0676
 2439TIP3    H128732   5.305   1.737   2.535  0.5679  0.6129  0.5562
 2439TIP3    H228733   5.273   1.640   2.646 -0.9350  0.2057 -0.1934
 2440TIP3   OH228734   2.168   5.513  13.118  0.5120  0.2251  0.4134
 2440TIP3    H128735   2.224   5.529  13.042 -0.8331  0.6409 -0.5217
 2440TIP3    H228736   2.101   5.581  13.113 -0.2477 -0.4332  1.3373
 2441TIP3   OH228737   3.010   0.978   6.236  0.4422 -1.1621 -0.1228
 2441TIP3    H128738   2.987   1.037   6.308 -1.2535  0.8548 -2.1740
 2441TIP3    H228739   3.102   0.999   6.217  0.1325  0.1965 -0.2301
 2442TIP3   OH228740   5.214   5.136   2.892 -0.1143  0.2344  0.1481
 2442TIP3    H128741   5.285   5.106   2.949 -0.1623 -0.4738 -0.1646
 2442TIP3    H228742   5.229   5.230   2.884  0.5446  0.1609  0.4219
 2443TIP3   OH228743   1.532   6.521   0.001  0.4103 -0.4009 -0.5320
 2443TIP3    H128744   1.598   6.547  -0.063  0.4476 -0.6701 -0.6082
 2443TIP3    H228745   1.465   6.588  -0.005  0.5375 -0.2848 -0.6708
 2444TIP3   OH228746   4.614   1.522  13.347  0.3975 -0.3086 -0.4384
 2444TIP3    H128747   4.661   1.467  13.410 -1.4834 -1.1554  0.3260
 2444TIP3    H228748   4.620   1.610  13.383 -0.9469 -0.8309  1.1862
 2445TIP3   OH228749   1.753   6.515   5.357  0.3925  0.0501  0.6042
 2445TIP3    H128750   1.709   6.487   5.437 -0.4709  0.1753  0.1780
 2445TIP3    H228751   1.719   6.603   5.340 -0.7593 -0.6270 -0.8352
 2446TIP3   OH228752   1.744   5.824   3.292 -0.8321 -0.4575 -0.1549
 2446TIP3    H128753   1.763   5.780   3.375 -1.6602 -0.2098  0.1741
 2446TIP3    H228754   1.762   5.758   3.225 -2.8869 -1.6310  0.3767
 2447TIP3   OH228755   6.328   0.810   5.245  0.3553  0.2386 -0.4460
 2447TIP3    H128756   6.330   0.847   5.157  0.8151 -1.8159 -1.3535
 2447TIP3    H228757   6.242   0.837   5.280 -1.6836 -2.2138 -3.0888
 2448TIP3   OH228758   2.546   2.857  16.901 -0.1542  0.0120  0.2144
 2448TIP3    H128759   2.495   2.831  16.977 -2.6019  0.7427 -1.0650
 2448TIP3    H228760   2.575   2.946  16.920  2.0798 -0.9206  1.5791
 2449TIP3   OH228761   3.651   1.505  12.178  0.2613  0.5995  0.5119
 2449TIP3    H128762   3.655   1.426  12.124  1.4579  0.2606  1.0551
 2449TIP3    H228763   3.574   1.551  12.147  0.0154 -0.3725 -0.3934
 2450TIP3   OH228764   4.132   4.575  16.797  0.7915  0.1092 -0.3899
 2450TIP3    H128765   4.218   4.572  16.755  0.5260 -1.2205 -0.8788
 2450TIP3    H228766   4.095   4.488  16.782 -0.5890  0.6214 -0.0747
 2451TIP3   OH228767   5.887   4.107  16.308  0.2642  0.5635  0.7792
 2451TIP3    H128768   5.929   4.116  16.222 -0.0226  0.3166  0.6092
 2451TIP3    H228769   5.859   4.196  16.330 -0.3579  0.5066  0.2519
 2452TIP3   OH228770   2.160   1.215  14.711 -0.1592  0.2168  0.0787
 2452TIP3    H128771   2.100   1.236  14.640  0.0003 -2.0685 -0.8180
 2452TIP3    H228772   2.109   1.228  14.791 -0.8406  1.2893 -0.5220
 2453TIP3   OH228773   0.324   3.165   2.480 -0.1762 -0.3989  0.3116
 2453TIP3    H128774   0.367   3.082   2.500 -0.8289 -0.6059  0.8790
 2453TIP3    H228775   0.236   3.156   2.516  0.5282  1.5443  2.7657
 2454TIP3   OH228776   6.251   2.757   2.324 -0.5159 -0.8672 -0.3843
 2454TIP3    H128777   6.236   2.667   2.298 -2.7302 -0.4429 -0.7840
 2454TIP3    H228778   6.221   2.762   2.415 -2.1098 -0.1801 -0.9148
 2455TIP3   OH228779   4.638   6.317   3.647  0.2364 -0.6495  0.0403
 2455TIP3    H128780   4.649   6.337   3.554 -0.2399  0.8596  0.2937
 2455TIP3    H228781   4.552   6.350   3.669 -0.3521 -2.4625  0.6775
 2456TIP3   OH228782   0.615   3.552   1.879  0.4767  0.4263 -0.0320
 2456TIP3    H128783   0.524   3.522   1.883  0.3667  0.8513  0.7705
 2456TIP3    H228784   0.655   3.520   1.960  1.2213 -0.2924 -0.6583
 2457TIP3   OH228785   5.775   1.960   4.789  0.4428 -0.0538 -0.1211
 2457TIP3    H128786   5.724   1.966   4.870  1.2015  0.6282  0.3156
 2457TIP3    H228787   5.711   1.977   4.720 -0.7167 -2.8269  0.1267
 2458TIP3   OH228788   3.646   2.718  16.894  0.2373 -0.4394 -0.0300
 2458TIP3    H128789   3.721   2.777  16.898  0.5866 -0.8508 -0.3278
 2458TIP3    H228790   3.569   2.775  16.897  0.5673 -0.0010  0.0601
 2459TIP3   OH228791   2.000   2.551  12.683 -0.3101  0.5167  0.0784
 2459TIP3    H128792   2.035   2.604  12.754  0.5534 -0.0678  0.1089
 2459TIP3    H228793   1.927   2.504  12.723 -2.5519  3.2535 -0.5007
 2460TIP3   OH228794   5.563   6.350   1.411  0.1634 -0.0778  0.3571
 2460TIP3    H128795   5.470   6.329   1.418  0.1709 -0.7291 -1.1012
 2460TIP3    H228796   5.607   6.265   1.420  0.6014  0.1756  0.6578
 2461TIP3   OH228797   5.220   4.671  17.174  0.0363 -0.4107  0.1364
 2461TIP3    H128798   5.195   4.760  17.152 -0.4106 -0.2869  1.1171
 2461TIP3    H228799   5.294   4.680  17.234  0.4313 -0.7220 -0.2922
 2462TIP3   OH228800   5.838   6.409  10.982  0.1393 -0.4111 -0.1864
 2462TIP3    H128801   5.801   6.495  10.966  1.5798  0.1486 -0.6650
 2462TIP3    H228802   5.801   6.353  10.914  1.5579  0.5654 -1.8384
 2463TIP3   OH228803   1.578   5.590  15.139 -0.0895  0.1276  0.1895
 2463TIP3    H128804   1.560   5.539  15.218  1.3454  1.7316  1.6233
 2463TIP3    H228805   1.496   5.588  15.090 -0.4643 -2.4655  0.7578
 2464TIP3   OH228806   3.188   1.858  12.409  0.1909  0.1859 -0.2761
 2464TIP3    H128807   3.148   1.829  12.327  0.8597 -1.2119 -0.1386
 2464TIP3    H228808   3.121   1.842  12.475 -0.2214  0.9882 -0.4874
 2465TIP3   OH228809   1.894   4.007   4.835 -0.0064  0.2565  0.0606
 2465TIP3    H128810   1.975   3.964   4.810 -0.7499 -2.2164  1.6077
 2465TIP3    H228811   1.825   3.952   4.797 -1.0051  1.6796 -0.2814
 2466TIP3   OH228812   5.446   6.356   1.717 -0.2034  0.2156  0.0390
 2466TIP3    H128813   5.417   6.271   1.751 -0.8750  0.6255  0.5052
 2466TIP3    H228814   5.478   6.337   1.629 -2.3343 -0.2019 -0.7091
 2467TIP3   OH228815   0.655   6.415  13.395 -0.2836 -0.1167 -0.4193
 2467TIP3    H128816   0.657   6.324  13.364  1.6529  0.7809 -3.3280
 2467TIP3    H228817   0.562   6.433  13.409 -0.7345 -2.4493  0.0464
 2468TIP3   OH228818   3.700   0.734   5.940  0.2962 -0.5049 -0.4643
 2468TIP3    H128819   3.746   0.817   5.955 -0.3370 -0.3175  0.6044
 2468TIP3    H228820   3.768   0.668   5.943  0.9880  0.0436 -2.4990
 2469TIP3   OH228821   1.646   5.306   4.717 -0.5365  0.3799 -0.0061
 2469TIP3    H128822   1.633   5.236   4.653 -1.8612 -0.5197  1.1670
 2469TIP3    H228823   1.674   5.381   4.666  2.6867 -1.4198 -1.1708
 2470TIP3   OH228824   2.503   1.413  14.509  0.9330 -0.0358  0.2054
 2470TIP3    H128825   2.580   1.436  14.561  0.1273  1.7848  0.7014
 2470TIP3    H228826   2.538   1.392  14.423  1.9320  2.8620 -0.2250
 2471TIP3   OH228827   0.122   2.560  14.552 -0.2837  0.5251  0.1752
 2471TIP3    H128828   0.093   2.641  14.511  0.9411  0.1530 -1.5389
 2471TIP3    H228829   0.114   2.577  14.646 -4.0917  1.0891 -0.0843
 2472TIP3   OH228830   3.803   3.805  15.704  0.7220 -0.6011  0.6594
 2472TIP3    H128831   3.833   3.825  15.615 -2.1896  2.6266  0.1950
 2472TIP3    H228832   3.851   3.864  15.761 -0.2717  0.2505  0.6514
 2473TIP3   OH228833   1.569   5.664  12.306 -0.6536 -0.0206  0.2898
 2473TIP3    H128834   1.503   5.726  12.335 -2.5359 -2.2782  1.1946
 2473TIP3    H228835   1.627   5.653  12.381 -0.8155  0.0534  0.4265
 2474TIP3   OH228836   1.077   2.929   1.054  0.0132 -0.3146 -0.2487
 2474TIP3    H128837   1.063   2.974   1.137 -2.1734 -0.1077 -0.6682
 2474TIP3    H228838   1.047   2.991   0.987  0.2202 -1.0775 -1.0752
 2475TIP3   OH228839   4.446   2.293   0.964  0.4544 -0.5114  0.4651
 2475TIP3    H128840   4.467   2.321   0.875  1.3867 -1.2472  0.4396
 2475TIP3    H228841   4.497   2.213   0.976  0.5059 -0.3004  1.7413
 2476TIP3   OH228842   1.899   4.278  14.937 -0.5568 -0.0351 -0.1176
 2476TIP3    H128843   1.987   4.301  14.966 -1.2355  0.7872  1.4649
 2476TIP3    H228844   1.900   4.183  14.928  0.9295  0.1010 -1.7961
 2477TIP3   OH228845   3.892   1.889   3.131  0.4017 -0.2438 -0.0738
 2477TIP3    H128846   3.964   1.864   3.188  2.1785 -0.3283 -2.2161
 2477TIP3    H228847   3.877   1.982   3.150 -3.1466 -1.3711  4.6262
 2478TIP3   OH228848   6.557   4.686   3.671 -0.5676 -1.0009 -0.4873
 2478TIP3    H128849   6.600   4.635   3.740  0.0406 -0.5273 -0.5057
 2478TIP3    H228850   6.587   4.775   3.686 -0.8264 -0.8149 -1.0647
 2479TIP3   OH228851   3.760   2.987   0.501 -0.3902  0.0552  0.2079
 2479TIP3    H128852   3.787   2.914   0.556  0.1552  0.4109  0.4168
 2479TIP3    H228853   3.766   2.953   0.412 -2.4201 -0.9086  0.3809
 2480TIP3   OH228854   3.005   4.671   2.017 -0.4470 -0.2170 -0.0622
 2480TIP3    H128855   3.068   4.612   2.059  0.7713  0.8534 -0.2986
 2480TIP3    H228856   2.965   4.719   2.090 -0.8669 -0.7645  0.0765
 2481TIP3   OH228857   0.916   6.462  17.157 -0.1581  0.1544  0.4665
 2481TIP3    H128858   0.890   6.380  17.200  0.5051 -1.7438 -2.4992
 2481TIP3    H228859   0.838   6.516  17.159 -1.1368 -1.2183  0.9714
 2482TIP3   OH228860   2.901   0.062   6.346  0.1827  0.1092 -0.4366
 2482TIP3    H128861   2.996   0.051   6.340  0.5350  2.0254  0.7588
 2482TIP3    H228862   2.890   0.146   6.390 -2.0819 -0.4501  0.1586
 2483TIP3   OH228863   5.300   5.453  13.058  0.0115 -0.3648 -0.3083
 2483TIP3    H128864   5.336   5.439  12.970 -0.1119 -1.2225 -0.2369
 2483TIP3    H228865   5.218   5.499  13.043  0.3443  0.1429 -0.5920
 2484TIP3   OH228866   5.314   5.816   5.468  0.1444  0.0987  0.3439
 2484TIP3    H128867   5.256   5.779   5.402 -0.3169 -2.1480  1.9050
 2484TIP3    H228868   5.281   5.905   5.482 -0.8216  0.0145 -1.1458
 2485TIP3   OH228869   0.284   1.997  15.593 -0.2893  0.3078 -0.1732
 2485TIP3    H128870   0.249   1.936  15.528 -0.2337 -1.1854  1.1439
 2485TIP3    H228871   0.220   1.995  15.664  1.9491 -1.9467  1.9825
 2486TIP3   OH228872   5.495   6.462  12.162  0.0678  0.2065 -0.7853
 2486TIP3    H128873   5.590   6.459  12.171  0.0112  0.1518 -0.1670
 2486TIP3    H228874   5.476   6.404  12.088  0.4040 -1.0115  0.0448
 2487TIP3   OH228875   1.848   6.009  16.678 -0.6127  0.3848  0.4795
 2487TIP3    H128876   1.847   6.028  16.584  0.7604 -4.7078 -0.8407
 2487TIP3    H228877   1.940   6.015  16.703 -0.4344 -1.8671  0.5010
 2488TIP3   OH228878   5.573   2.649  13.847 -0.5413 -0.2981 -0.7004
 2488TIP3    H128879   5.580   2.646  13.942  0.8389  2.5857 -0.6006
 2488TIP3    H228880   5.621   2.572  13.817 -0.4595 -0.9168  0.9368
 2489TIP3   OH228881   5.163   5.138  12.870 -0.1504  0.4199 -0.0585
 2489TIP3    H128882   5.215   5.062  12.842 -1.8490 -1.3214  1.1701
 2489TIP3    H228883   5.169   5.200  12.798  1.2501 -0.9234 -1.1663
 2490TIP3   OH228884   4.905   4.981   5.453  0.3433 -0.1585 -0.4131
 2490TIP3    H128885   4.910   5.054   5.391  0.4673  0.4894  0.3471
 2490TIP3    H228886   4.847   4.918   5.411 -0.0977  0.5601 -0.9003
 2491TIP3   OH228887   0.817   4.459  14.678 -0.5308 -0.1415  0.2045
 2491TIP3    H128888   0.886   4.498  14.623  0.0126 -0.8137  0.4008
 2491TIP3    H228889   0.822   4.508  14.760  1.4225 -1.7767  1.1609
 2492TIP3   OH228890   4.062   3.609   1.500  0.4627 -0.1844 -0.4272
 2492TIP3    H128891   4.124   3.612   1.573 -0.0712  0.4176  0.0107
 2492TIP3    H228892   4.101   3.667   1.434  1.2225 -1.1603 -0.8603
 2493TIP3   OH228893   4.454   0.270  13.747 -0.0065  0.3676 -0.6923
 2493TIP3    H128894   4.468   0.181  13.716 -0.4699 -0.1510  0.5265
 2493TIP3    H228895   4.503   0.276  13.829 -0.1043  1.1867 -0.6792
 2494TIP3   OH228896   4.492   4.956  16.063 -0.6184 -0.4143  0.1183
 2494TIP3    H128897   4.452   5.039  16.038  0.6747  0.1478 -0.2028
 2494TIP3    H228898   4.571   4.981  16.111 -0.9109 -1.4796  1.2036
 2495TIP3   OH228899   5.242   4.818   3.343 -0.4429 -0.1013  0.3555
 2495TIP3    H128900   5.242   4.839   3.249  0.9649 -0.3292  0.2970
 2495TIP3    H228901   5.159   4.854   3.375  0.5850  3.1613 -0.2959
 2496TIP3   OH228902   5.251   6.124   3.643  0.0659  0.0382 -0.0790
 2496TIP3    H128903   5.199   6.055   3.602  0.0018  0.3062 -0.4548
 2496TIP3    H228904   5.231   6.203   3.592 -0.8915  0.6387  1.1838
 2497TIP3   OH228905   0.161   1.131  14.932 -0.1692 -0.4391  0.0399
 2497TIP3    H128906   0.241   1.078  14.934  1.8481  2.3685 -0.3398
 2497TIP3    H228907   0.143   1.142  14.838 -0.8282 -0.7784  0.1217
 2498TIP3   OH228908   0.383   1.016  16.831  0.4119  0.5285  0.3538
 2498TIP3    H128909   0.388   1.098  16.880  0.7768  1.4265 -1.1220
 2498TIP3    H228910   0.290   0.993  16.833 -0.1938  2.4648 -1.4524
 2499TIP3   OH228911   2.744   3.598  13.695  0.3259 -0.8625  0.0146
 2499TIP3    H128912   2.780   3.663  13.635  1.4376 -1.0474  0.4508
 2499TIP3    H228913   2.649   3.611  13.691  0.4552 -0.0894 -0.8742
 2500TIP3   OH228914   6.128   0.670  16.066 -0.0030 -0.2181  0.2277
 2500TIP3    H128915   6.183   0.622  16.004 -0.9978 -1.9838  0.6576
 2500TIP3    H228916   6.039   0.657  16.034 -0.3568  0.7566  0.7832
 2501TIP3   OH228917   1.660   0.602   1.271 -0.1444  0.2942  0.6268
 2501TIP3    H128918   1.660   0.553   1.188 -0.8490 -0.8471  1.2873
 2501TIP3    H228919   1.600   0.675   1.256 -1.8130 -1.0009  0.7367
 2502TIP3   OH228920   3.676   5.137  17.105  0.0067 -0.3285 -0.1729
 2502TIP3    H128921   3.611   5.190  17.152  0.6654  0.9857 -0.6682
 2502TIP3    H228922   3.717   5.083  17.172 -0.2510  0.2707  0.4803
 2503TIP3   OH228923   4.413   0.374   4.669 -0.0769  0.0221  0.4896
 2503TIP3    H128924   4.320   0.393   4.680 -0.2005 -1.5849  3.0375
 2503TIP3    H228925   4.447   0.371   4.759  2.2692 -0.2824 -0.3490
 2504TIP3   OH228926   2.231   5.751  14.965 -0.3358  0.3766 -0.0211
 2504TIP3    H128927   2.158   5.705  14.923 -0.2104  0.1511  0.0071
 2504TIP3    H228928   2.309   5.717  14.920 -0.0623 -1.0207  1.4246
 2505TIP3   OH228929   6.691   6.045  12.364  0.3158  0.0629  0.2585
 2505TIP3    H128930   6.618   6.081  12.414 -0.2474  1.6897 -1.6388
 2505TIP3    H228931   6.740   6.121  12.334  1.1632 -0.8939 -0.8786
 2506TIP3   OH228932   2.069   6.466   1.724 -0.0972  0.1017 -0.2897
 2506TIP3    H128933   2.114   6.386   1.751 -1.0270  0.1999  1.7542
 2506TIP3    H228934   2.034   6.446   1.637 -0.3819 -1.7726  0.2042
 2507TIP3   OH228935   2.769   1.728   0.819 -0.2854  0.3896 -0.3947
 2507TIP3    H128936   2.674   1.738   0.816 -0.1615  3.1548  1.4812
 2507TIP3    H228937   2.798   1.752   0.731 -1.2347  0.2358 -0.7656
 2508TIP3   OH228938   3.249   4.750  16.285 -0.0340  0.4543 -0.5022
 2508TIP3    H128939   3.285   4.699  16.213 -2.0413  0.8651 -1.8747
 2508TIP3    H228940   3.183   4.693  16.324 -1.2910  1.4240 -1.1373
 2509TIP3   OH228941   4.542   2.380  13.557 -0.4465 -0.5001  0.0405
 2509TIP3    H128942   4.510   2.464  13.525 -0.9979 -0.6388  0.2159
 2509TIP3    H228943   4.463   2.327  13.569 -0.1875 -0.7025  0.8958
 2510TIP3   OH228944   3.606   6.013  14.484  0.0840  0.0259  0.4562
 2510TIP3    H128945   3.553   6.089  14.459 -0.1496 -0.4031 -0.4039
 2510TIP3    H228946   3.561   5.977  14.561 -0.7675 -0.2094 -0.1405
 2511TIP3   OH228947   2.549   1.382  16.316  0.0286  0.1819  0.4815
 2511TIP3    H128948   2.624   1.348  16.269 -0.8457 -0.7855 -0.2495
 2511TIP3    H228949   2.551   1.339  16.401  0.6709  0.6761  0.7225
 2512TIP3   OH228950   6.765   3.264  13.687  0.6873 -0.3525  0.6196
 2512TIP3    H128951   6.680   3.304  13.704  1.9314  2.2419  1.2605
 2512TIP3    H228952   6.783   3.211  13.765  0.1873  0.0694  1.0305
 2513TIP3   OH228953   6.341   4.895   5.252 -0.5539 -0.3852  0.0291
 2513TIP3    H128954   6.337   4.852   5.167  0.6529 -1.3994  0.4392
 2513TIP3    H228955   6.425   4.866   5.289 -0.4142  1.1274  0.9848
 2514TIP3   OH228956   2.649   0.058   5.576  0.0664  0.0472 -0.0448
 2514TIP3    H128957   2.717  -0.009   5.570  0.7248  0.5065  1.8082
 2514TIP3    H228958   2.696   0.139   5.596 -0.8410  0.8357 -0.9724
 2515TIP3   OH228959   5.274   5.471   3.957  0.4854 -0.3868 -0.0607
 2515TIP3    H128960   5.252   5.452   4.049  0.6808 -2.1496 -0.3409
 2515TIP3    H228961   5.205   5.427   3.907  0.8004 -0.0744 -0.7729
 2516TIP3   OH228962   1.302   0.643  10.581  0.1560 -0.6718 -0.0089
 2516TIP3    H128963   1.278   0.664  10.672  0.5030  2.1304 -0.4573
 2516TIP3    H228964   1.221   0.659  10.531  0.1063 -1.7086 -0.2797
 2517TIP3   OH228965   2.790   5.918  17.109 -0.4996 -0.0020 -0.0359
 2517TIP3    H128966   2.851   5.849  17.133 -0.7742  0.2582  1.5410
 2517TIP3    H228967   2.750   5.889  17.028  0.0681 -1.2513  0.1233
 2518TIP3   OH228968   3.808   1.351  11.193  0.0433 -0.9621  0.0831
 2518TIP3    H128969   3.885   1.369  11.247 -0.3036  1.4646 -0.0935
 2518TIP3    H228970   3.742   1.412  11.225 -0.8029 -0.8349 -1.7706
 2519TIP3   OH228971   2.447   6.675   5.455  0.5765 -0.3162 -0.6826
 2519TIP3    H128972   2.502   6.736   5.503 -1.5362  1.1536  0.0257
 2519TIP3    H228973   2.428   6.605   5.517  1.4333 -0.7000 -0.8505
 2520TIP3   OH228974   3.161   6.425   1.845 -0.2910  0.6378 -0.5692
 2520TIP3    H128975   3.083   6.376   1.818 -1.4708  3.0248 -1.7909
 2520TIP3    H228976   3.159   6.423   1.940 -2.1391  0.9965 -0.5572
 2521TIP3   OH228977   3.574   2.052   6.349  0.0607 -0.3816  0.0529
 2521TIP3    H128978   3.545   1.973   6.304  0.8236 -0.4288 -0.3642
 2521TIP3    H228979   3.668   2.042   6.358 -0.0376 -0.2559  1.4454
 2522TIP3   OH228980   5.800   3.477  15.041 -0.0448 -0.1456 -0.3990
 2522TIP3    H128981   5.841   3.551  15.085  0.5651 -0.9238  0.3862
 2522TIP3    H228982   5.748   3.516  14.971 -0.5599  1.0901  0.6328
 2523TIP3   OH228983   6.623   3.126   2.888  0.3735 -0.0472  0.1036
 2523TIP3    H128984   6.699   3.074   2.915  1.2984  0.5165 -1.3302
 2523TIP3    H228985   6.616   3.194   2.955  1.0127 -0.2117  0.3471
 2524TIP3   OH228986   6.597   0.056   2.449  0.3348 -0.2052  0.0174
 2524TIP3    H128987   6.642   0.108   2.383  1.5061  0.2595  1.1414
 2524TIP3    H228988   6.535   0.003   2.399  1.1497  0.1556 -1.4430
 2525TIP3   OH228989   4.215   2.742   2.918 -0.1913 -0.5686  0.3302
 2525TIP3    H128990   4.129   2.768   2.885 -0.1390  1.7240  1.7870
 2525TIP3    H228991   4.269   2.732   2.840 -1.0096  1.0328 -0.4881
 2526TIP3   OH228992   6.521   3.854   2.347 -0.3435  0.6208 -0.1873
 2526TIP3    H128993   6.502   3.938   2.306 -1.5718 -0.0619 -1.0978
 2526TIP3    H228994   6.579   3.810   2.285 -0.6947  0.3252 -0.3114
 2527TIP3   OH228995   4.309   3.707  17.329 -0.3139  0.0784  0.2380
 2527TIP3    H128996   4.345   3.641  17.271 -0.1328  0.1265  0.2973
 2527TIP3    H228997   4.220   3.676  17.348 -0.3403  0.0129  0.0153
 2528TIP3   OH228998   2.944   3.916  12.487 -0.3012 -0.4271  0.1796
 2528TIP3    H128999   2.869   3.941  12.434 -0.6164 -0.7546  0.4638
 2528TIP3    H229000   2.947   3.820  12.482  0.7889 -0.3621 -0.7584
 2529TIP3   OH229001   3.226   5.060   0.878 -0.1658 -0.0031 -0.1055
 2529TIP3    H129002   3.248   4.974   0.913 -0.3991 -0.4207 -0.9366
 2529TIP3    H229003   3.295   5.118   0.910 -1.4331  0.1119  2.7303
 2530TIP3   OH229004   1.331   2.603  15.663 -0.1146  0.1007  0.0472
 2530TIP3    H129005   1.359   2.683  15.708  0.3503 -1.2755  2.3954
 2530TIP3    H229006   1.400   2.585  15.599  1.4670 -0.0956  1.7352
 2531TIP3   OH229007   0.680   3.789  15.335  0.4385 -0.2707  0.4088
 2531TIP3    H129008   0.663   3.701  15.368 -1.9878 -0.4945 -1.2303
 2531TIP3    H229009   0.722   3.775  15.250  0.0999  0.1342  0.1718
 2532TIP3   OH229010   5.640   4.016   2.413  0.0961 -0.8414  0.3152
 2532TIP3    H129011   5.594   4.004   2.330  0.1365 -0.3326  0.2199
 2532TIP3    H229012   5.621   3.936   2.462 -1.0077 -0.5807  0.3412
 2533TIP3   OH229013   6.590   1.716   6.503  0.3501 -0.4408  0.4499
 2533TIP3    H129014   6.533   1.746   6.432  0.3295 -0.1889  0.5719
 2533TIP3    H229015   6.629   1.635   6.469 -0.0215 -0.5751  0.3386
 2534TIP3   OH229016   6.752   6.531   5.449 -0.2563 -0.6216 -0.2922
 2534TIP3    H129017   6.817   6.481   5.498  1.2448 -0.2745 -1.8612
 2534TIP3    H229018   6.677   6.471   5.441 -1.1575 -0.2439  3.4654
 2535TIP3   OH229019   3.141   5.434   1.860  0.0870 -0.3567  0.0957
 2535TIP3    H129020   3.113   5.344   1.845  0.9647 -1.1496  2.6107
 2535TIP3    H229021   3.154   5.471   1.773 -1.4921 -2.2561 -1.0010
 2536TIP3   OH229022   1.906   4.166   3.265  0.2145  0.2107  0.8587
 2536TIP3    H129023   1.883   4.253   3.231 -0.0515  0.2656  1.1748
 2536TIP3    H229024   2.001   4.164   3.264  0.2154  0.2228  0.1311
 2537TIP3   OH229025   0.707   1.192  15.304 -0.6204 -0.1467  0.0230
 2537TIP3    H129026   0.653   1.265  15.274  0.9229  0.2048 -2.1052
 2537TIP3    H229027   0.707   1.130  15.230 -1.1294 -1.9075  1.4183
 2538TIP3   OH229028   2.459   0.551   1.437 -0.2985  0.4373 -0.6771
 2538TIP3    H129029   2.526   0.497   1.395 -0.9031  0.4955 -1.7673
 2538TIP3    H229030   2.446   0.625   1.377 -1.1600  0.5484 -0.3794
 2539TIP3   OH229031   0.026   6.213   6.448 -0.0237  0.0968 -0.0262
 2539TIP3    H129032   0.105   6.178   6.408 -0.3882 -1.2547  0.3885
 2539TIP3    H229033  -0.046   6.162   6.410 -0.3049 -2.2217  3.1918
 2540TIP3   OH229034   0.503   6.744  12.126 -0.0870  0.4456 -0.0349
 2540TIP3    H129035   0.547   6.683  12.185 -0.3500 -0.3132 -0.6065
 2540TIP3    H229036   0.452   6.801  12.184 -1.0507 -0.8571  0.4273
 2541TIP3   OH229037   2.770   3.862  14.981  0.0505 -0.3756 -0.1194
 2541TIP3    H129038   2.800   3.785  14.934  1.7071  1.0712 -1.5474
 2541TIP3    H229039   2.802   3.849  15.071  1.0202 -0.9706 -0.5410
 2542TIP3   OH229040   3.311   0.181   5.703 -0.1620  0.1829 -0.4106
 2542TIP3    H129041   3.299   0.241   5.629 -0.5433 -0.1843 -0.6493
 2542TIP3    H229042   3.394   0.137   5.686 -0.6530 -0.5215 -1.0686
 2543TIP3   OH229043   6.322   4.704   0.159  0.3235 -0.5679 -0.3149
 2543TIP3    H129044   6.386   4.685   0.091  0.8035  0.1317 -0.0730
 2543TIP3    H229045   6.373   4.744   0.229 -0.3959  0.0913 -0.1535
 2544TIP3   OH229046   3.290   0.495  14.439 -0.1588  0.0899 -0.7458
 2544TIP3    H129047   3.299   0.560  14.369  0.6291  0.9272  0.1126
 2544TIP3    H229048   3.349   0.424  14.413  1.4276  1.1318 -0.1466
 2545TIP3   OH229049   4.232   4.848   4.019 -0.0461 -0.1809  0.9684
 2545TIP3    H129050   4.244   4.920   3.957  1.2020 -0.7945  0.4680
 2545TIP3    H229051   4.321   4.821   4.042 -0.4386 -2.3685  0.1641
 2546TIP3   OH229052   4.046   5.022   4.767 -0.8066 -0.5303 -0.5029
 2546TIP3    H129053   4.071   5.061   4.851  0.3974 -2.8031  0.2880
 2546TIP3    H229054   3.988   5.086   4.727 -1.3464  0.6798  2.0199
 2547TIP3   OH229055   0.294   4.092  13.033 -0.2551 -0.2783  0.1264
 2547TIP3    H129056   0.365   4.028  13.036 -0.0176 -0.0083  0.2106
 2547TIP3    H229057   0.330   4.167  12.986 -1.1009 -0.9131 -1.6464
 2548TIP3   OH229058   0.492   1.597  14.659  0.5376  0.1993  0.4003
 2548TIP3    H129059   0.565   1.652  14.631  2.3525 -3.2084 -2.5100
 2548TIP3    H229060   0.426   1.608  14.590 -0.8089  1.5580  1.8476
 2549TIP3   OH229061   2.260   6.702  11.594  1.0582 -0.8481  0.2607
 2549TIP3    H129062   2.323   6.630  11.585  2.2938  0.0873  0.9955
 2549TIP3    H229063   2.181   6.661  11.629  2.0626 -1.7106  1.6097
 2550TIP3   OH229064   1.273   6.433  16.606 -0.1721  0.3741  0.4198
 2550TIP3    H129065   1.199   6.374  16.617 -0.7590  0.2405 -3.1544
 2550TIP3    H229066   1.287   6.437  16.512  0.3754  5.2866  0.4575
 2551TIP3   OH229067   0.117   5.886  14.103 -0.3956  0.3045 -0.0132
 2551TIP3    H129068   0.079   5.831  14.172 -2.9143  2.1005  0.1826
 2551TIP3    H229069   0.161   5.957  14.149  0.2416  0.0656 -0.2515
 2552TIP3   OH229070   6.395   2.776  15.025  0.0525 -0.3055 -0.6034
 2552TIP3    H129071   6.324   2.826  14.986 -1.8742 -1.4597  1.2092
 2552TIP3    H229072   6.423   2.828  15.100 -0.6166 -0.9769  0.1326
 2553TIP3   OH229073   2.481   0.144  12.829 -0.9486  0.1596 -0.2902
 2553TIP3    H129074   2.436   0.077  12.881  0.9532  0.0311  1.3300
 2553TIP3    H229075   2.474   0.114  12.739 -0.4715 -2.0734  0.3564
 2554TIP3   OH229076   4.227   6.249  16.336 -0.5523 -0.2185 -0.3774
 2554TIP3    H129077   4.251   6.160  16.309  0.3429 -0.2356  0.4329
 2554TIP3    H229078   4.253   6.304  16.262 -0.0342 -0.4909 -0.3982
 2555TIP3   OH229079   6.177   6.591  15.723 -0.1723 -0.3432  0.1562
 2555TIP3    H129080   6.203   6.521  15.664 -1.7979  0.1184 -1.1856
 2555TIP3    H229081   6.224   6.668  15.692 -0.3930 -0.2770 -0.0133
 2556TIP3   OH229082   4.378   5.229  16.376 -0.4706 -0.1273 -0.2525
 2556TIP3    H129083   4.370   5.134  16.370  0.0166 -0.3944  2.2019
 2556TIP3    H229084   4.472   5.245  16.378 -0.5480  0.2584  0.7247
 2557TIP3   OH229085   3.711   1.751   1.782  0.2018  0.3182 -0.1099
 2557TIP3    H129086   3.773   1.697   1.733  0.2821 -0.1630  0.5001
 2557TIP3    H229087   3.626   1.709   1.767  0.2413  0.1109  0.2381
 2558TIP3   OH229088   1.343   0.184   1.552 -0.3855 -0.1735 -0.5797
 2558TIP3    H129089   1.419   0.203   1.607  1.5371 -0.1069 -3.0690
 2558TIP3    H229090   1.268   0.186   1.612  1.0571  3.5391  1.3938
 2559TIP3   OH229091   0.518   3.731  14.678 -0.5144  0.1380  0.5898
 2559TIP3    H129092   0.450   3.684  14.726 -0.8894  1.3022  1.2480
 2559TIP3    H229093   0.580   3.759  14.745 -0.2127  0.4405  0.1913
 2560TIP3   OH229094   3.471   2.969   3.501 -0.4570 -0.2150  0.0058
 2560TIP3    H129095   3.459   3.006   3.589 -1.9990  1.0415 -0.6708
 2560TIP3    H229096   3.545   3.017   3.464 -0.6371  0.1963  0.1666
 2561TIP3   OH229097   6.434   1.467  16.184  0.2347  0.1061  0.0199
 2561TIP3    H129098   6.469   1.421  16.108  0.4331  0.8009 -0.3133
 2561TIP3    H229099   6.495   1.539  16.199 -0.5915  0.8344 -0.0582
 2562TIP3   OH229100   6.147   3.122  15.741 -0.4242  0.0128 -0.4875
 2562TIP3    H129101   6.147   3.212  15.706 -1.1300 -0.5675 -2.0793
 2562TIP3    H229102   6.239   3.102  15.756 -0.0970  0.3785 -1.8698
 2563TIP3   OH229103   1.724   6.159   1.186  0.3922  0.1420 -0.2377
 2563TIP3    H129104   1.711   6.200   1.101 -1.6157  0.7329  0.2924
 2563TIP3    H229105   1.811   6.120   1.181  0.4469  0.4169 -2.4403
 2564TIP3   OH229106   3.791   1.798   0.693 -0.4779 -0.0823 -1.0948
 2564TIP3    H129107   3.839   1.744   0.756 -0.5005 -1.1308 -1.9427
 2564TIP3    H229108   3.803   1.888   0.724 -0.1027 -0.5351  0.1315
 2565TIP3   OH229109   5.075   2.617  14.318 -0.1213  0.8385  0.1051
 2565TIP3    H129110   5.033   2.697  14.349  0.1059  0.5667  1.1569
 2565TIP3    H229111   5.012   2.579  14.256 -0.5316  1.4775  0.1262
 2566TIP3   OH229112   1.213   0.411   2.769  0.5331  0.3940 -0.4870
 2566TIP3    H129113   1.305   0.385   2.767  0.5519  0.4837 -0.8506
 2566TIP3    H229114   1.215   0.506   2.757  0.3915  0.3883 -0.5575
 2567TIP3   OH229115   2.508   4.391   4.713 -0.0564  0.3677  0.3132
 2567TIP3    H129116   2.527   4.454   4.782 -1.5801  0.6003  0.5618
 2567TIP3    H229117   2.476   4.443   4.640  1.9740  0.1687 -0.7935
 2568TIP3   OH229118   6.530   4.353   1.758 -0.0342  0.2636  0.3775
 2568TIP3    H129119   6.619   4.341   1.791 -0.5239 -0.5584  1.5113
 2568TIP3    H229120   6.540   4.391   1.672  1.5455 -2.1855 -0.6355
 2569TIP3   OH229121   2.692   2.339  15.527  0.0991  0.2325 -0.2608
 2569TIP3    H129122   2.668   2.353  15.619  1.3933 -1.7233  0.4592
 2569TIP3    H229123   2.742   2.418  15.503  1.7774 -0.1931  1.5209
 2570TIP3   OH229124   1.115   4.871   1.979 -0.0110  0.1761  0.0038
 2570TIP3    H129125   1.159   4.873   2.064 -0.2583 -1.5130  0.2215
 2570TIP3    H229126   1.151   4.945   1.930  1.7038 -0.0804  0.8249
 2571TIP3   OH229127   6.179   4.258   5.863  0.1034 -0.3913  0.3026
 2571TIP3    H129128   6.185   4.346   5.826  0.5991 -0.5254  0.0692
 2571TIP3    H229129   6.088   4.251   5.892 -0.3460 -0.3680 -1.0651
 2572TIP3   OH229130   4.094   0.943  13.680 -0.3803 -0.1133 -0.2020
 2572TIP3    H129131   4.159   0.992  13.731 -0.8732  1.3440 -0.9203
 2572TIP3    H229132   4.125   0.852  13.682  0.4194  0.1509  1.4029
 2573TIP3   OH229133   2.197   0.115   5.628 -0.0764  0.4292 -0.0366
 2573TIP3    H129134   2.267   0.181   5.623  0.2189  0.1046 -0.2091
 2573TIP3    H229135   2.238   0.040   5.669 -0.3744  0.2974  0.0192
 2574TIP3   OH229136   2.335   6.557   3.852 -0.1397  0.4126  0.2171
 2574TIP3    H129137   2.263   6.611   3.885  0.6547  2.3697 -1.0750
 2574TIP3    H229138   2.301   6.468   3.855 -3.5803  1.3925 -2.4855
 2575TIP3   OH229139   4.355   2.394  14.371 -0.1726 -0.6285  0.2970
 2575TIP3    H129140   4.439   2.396  14.324 -0.4898 -2.8927 -0.4984
 2575TIP3    H229141   4.289   2.406  14.303 -0.5246  1.0335  0.9066
 2576TIP3   OH229142   5.088   5.028  14.377 -0.3113 -0.3977 -0.5920
 2576TIP3    H129143   5.031   4.995  14.446 -0.0232  0.8641  0.2764
 2576TIP3    H229144   5.173   5.038  14.418  0.0983 -0.5347 -1.3871
 2577TIP3   OH229145   1.725   1.493   1.795 -0.2258  0.2651 -0.7304
 2577TIP3    H129146   1.698   1.570   1.745 -0.8140  0.0688 -0.7276
 2577TIP3    H229147   1.758   1.433   1.729  0.0360  0.4375 -0.7570
 2578TIP3   OH229148   5.325   2.072  10.786 -0.5953 -0.2708 -0.5578
 2578TIP3    H129149   5.331   2.070  10.881  0.5768  3.2964 -0.3978
 2578TIP3    H229150   5.240   2.114  10.769 -0.7440 -0.7803 -1.0822
 2579TIP3   OH229151   1.856   2.385   2.252 -0.1719  0.0923  0.0998
 2579TIP3    H129152   1.785   2.375   2.189  1.3410  2.3154 -2.1288
 2579TIP3    H229153   1.927   2.330   2.219 -0.0469 -0.3417  1.0420
 2580TIP3   OH229154   4.428   0.483  15.762  0.1376  0.1100  0.4361
 2580TIP3    H129155   4.478   0.515  15.837  2.5065 -1.2044 -0.4411
 2580TIP3    H229156   4.364   0.551  15.744 -0.2210  0.6468  3.3541
 2581TIP3   OH229157   4.820   4.179  16.625 -0.2901  0.1125  0.4481
 2581TIP3    H129158   4.779   4.192  16.710  0.3272  0.3672  0.7163
 2581TIP3    H229159   4.911   4.160  16.645 -0.1650  0.0563 -0.1500
 2582TIP3   OH229160   0.376   5.113  14.421 -0.2315 -0.3094 -0.0664
 2582TIP3    H129161   0.368   5.051  14.493  0.5014 -1.4503 -0.9344
 2582TIP3    H229162   0.393   5.197  14.464 -1.0539 -0.7219  1.1230
 2583TIP3   OH229163   4.242   4.177  13.949  0.3178 -0.6266 -0.1824
 2583TIP3    H129164   4.149   4.194  13.964  0.4946  0.7778 -0.5317
 2583TIP3    H229165   4.258   4.093  13.992 -0.6894 -0.0104  1.5033
 2584TIP3   OH229166   3.091   1.076  16.549  0.2718  1.1500  0.5447
 2584TIP3    H129167   3.041   1.098  16.470  1.0647  1.6277  0.1651
 2584TIP3    H229168   3.182   1.085  16.522  0.5485  1.5309  1.5869
 2585TIP3   OH229169   0.408   3.551  17.319  0.0685  1.0448 -0.3154
 2585TIP3    H129170   0.465   3.477  17.299 -0.0515  0.9424 -0.2786
 2585TIP3    H229171   0.468   3.626  17.328  0.3977  0.6136  1.4319
 2586TIP3   OH229172   0.687   3.160   3.505  0.4569 -0.7691 -0.2983
 2586TIP3    H129173   0.690   3.213   3.585 -1.3201 -1.0440  0.0102
 2586TIP3    H229174   0.696   3.070   3.537 -2.2045 -1.0475 -0.0970
 2587TIP3   OH229175   5.753   6.465  12.277  0.3482 -0.4350  0.3144
 2587TIP3    H129176   5.726   6.511  12.357  0.8683  0.5515 -0.0586
 2587TIP3    H229177   5.781   6.535  12.218 -2.5806 -0.8591 -1.7816
 2588TIP3   OH229178   1.398   0.648  16.640  0.6737  0.5489 -0.5946
 2588TIP3    H129179   1.392   0.637  16.545 -2.5624 -2.3672 -0.2501
 2588TIP3    H229180   1.468   0.588  16.667  0.7712  0.4819 -0.9974
 2589TIP3   OH229181   5.065   0.853  16.609  0.2814  0.4072 -0.2593
 2589TIP3    H129182   5.122   0.850  16.686  1.5777 -0.1203 -1.1987
 2589TIP3    H229183   4.990   0.798  16.632  0.9483 -0.2508  0.4131
 2590TIP3   OH229184   5.047   4.232   0.966 -0.2099 -0.2295 -0.5214
 2590TIP3    H129185   4.960   4.272   0.961  0.4539  1.1009 -2.5065
 2590TIP3    H229186   5.099   4.292   1.019 -0.4515 -1.0031  0.6294
 2591TIP3   OH229187   6.694   0.502  17.228 -0.2380  0.0735  0.3072
 2591TIP3    H129188   6.657   0.508  17.140 -2.1732 -0.9760  0.9670
 2591TIP3    H229189   6.664   0.417  17.260  3.2384 -1.1136  0.8057
 2592TIP3   OH229190   3.229   5.693   4.057  0.0417 -0.3369  0.4798
 2592TIP3    H129191   3.305   5.748   4.077 -1.4913  2.0558  0.1383
 2592TIP3    H229192   3.255   5.644   3.979  1.1944  0.5237  0.3009
 2593TIP3   OH229193   5.754   2.739  16.227 -0.1764  0.0611 -0.1978
 2593TIP3    H129194   5.799   2.731  16.143 -0.6613  0.1042 -0.4595
 2593TIP3    H229195   5.726   2.650  16.248  2.3530 -0.4881  1.2652
 2594TIP3   OH229196   3.289   5.690  13.758 -0.2130 -0.2549 -0.0190
 2594TIP3    H129197   3.264   5.651  13.842  1.4689 -0.2847  0.5096
 2594TIP3    H229198   3.287   5.784  13.775  2.1121 -0.2876  0.7238
 2595TIP3   OH229199   6.137   0.316  11.938  0.0532  0.6412  0.1539
 2595TIP3    H129200   6.223   0.315  11.894  0.6117 -0.2490  1.2200
 2595TIP3    H229201   6.089   0.244  11.898  1.0779 -1.1091  1.9048
 2596TIP3   OH229202   3.797   1.449  11.753 -0.1425  0.0923 -0.0978
 2596TIP3    H129203   3.763   1.417  11.669 -2.4174  0.6464  0.5223
 2596TIP3    H229204   3.781   1.543  11.751  0.5351  0.2324  0.6406
 2597TIP3   OH229205   2.076   5.690   0.419 -0.1520 -0.2806  0.5699
 2597TIP3    H129206   2.145   5.664   0.358 -0.5539 -0.5616  0.2256
 2597TIP3    H229207   2.121   5.739   0.488  0.6113 -1.7304  1.1375
 2598TIP3   OH229208   4.605   0.523   0.717 -0.8681  0.3261 -0.0483
 2598TIP3    H129209   4.682   0.541   0.664 -1.1166 -0.7857 -0.8093
 2598TIP3    H229210   4.565   0.609   0.731  1.2239  1.1477  1.5493
 2599TIP3   OH229211   6.407   1.316   2.716  0.9996 -0.1063  0.2838
 2599TIP3    H129212   6.403   1.229   2.678 -0.7835  0.8566 -1.9338
 2599TIP3    H229213   6.500   1.339   2.714  1.2759 -1.2093 -0.9211
 2600TIP3   OH229214   5.800   6.749   2.312 -0.0786  0.6868  0.1120
 2600TIP3    H129215   5.790   6.722   2.403 -4.4754  0.4049 -0.2132
 2600TIP3    H229216   5.755   6.834   2.307 -2.0222 -0.3515 -2.0621
 2601TIP3   OH229217   1.708   6.637  16.716 -0.8345 -0.5059  0.4501
 2601TIP3    H129218   1.663   6.552  16.719  0.1914 -1.1268 -0.5848
 2601TIP3    H229219   1.669   6.688  16.787 -2.0223 -1.5683  0.5941
 2602TIP3   OH229220   4.485   0.956  14.098 -0.2192 -0.4275 -0.0622
 2602TIP3    H129221   4.578   0.971  14.080 -0.2678 -0.1839 -0.1022
 2602TIP3    H229222   4.456   0.899  14.026  0.7449 -3.4956  1.7970
 2603TIP3   OH229223   1.562   6.443   6.896 -0.2137  0.8593  0.1887
 2603TIP3    H129224   1.488   6.451   6.836  0.5712  1.9759 -0.6752
 2603TIP3    H229225   1.554   6.355   6.932 -0.5540  0.0356 -1.7727
 2604TIP3   OH229226   2.282   0.038   6.373 -0.6038 -0.1005 -0.0806
 2604TIP3    H129227   2.276   0.019   6.467 -0.0699  0.4247  0.0642
 2604TIP3    H229228   2.279   0.133   6.367  2.4704  0.0594 -0.3269
 2605TIP3   OH229229   3.182   1.536  16.488  0.2510 -0.1669  0.0078
 2605TIP3    H129230   3.267   1.517  16.447  0.0852  0.4613 -0.6588
 2605TIP3    H229231   3.187   1.629  16.511 -0.2949 -0.0964 -0.1410
 2606TIP3   OH229232   5.228   1.453   1.325  0.3772  0.2201  0.3531
 2606TIP3    H129233   5.144   1.423   1.358  0.7267 -1.0166  0.1610
 2606TIP3    H229234   5.207   1.499   1.243  0.0568 -2.1191 -0.9685
 2607TIP3   OH229235   2.848   5.852  15.760 -0.7218 -0.1140  0.0378
 2607TIP3    H129236   2.882   5.898  15.837 -2.8599  1.3690  0.1990
 2607TIP3    H229237   2.911   5.872  15.691 -1.0602  2.4249  0.3451
 2608TIP3   OH229238   2.206   6.390   2.940  0.0257 -0.2039 -0.1629
 2608TIP3    H129239   2.121   6.356   2.969 -0.4401  1.1628  0.1510
 2608TIP3    H229240   2.246   6.426   3.019  1.5498 -2.0592 -0.0189
 2609TIP3   OH229241   4.834   0.731  13.921  0.2352  0.5558  0.1501
 2609TIP3    H129242   4.812   0.745  13.828 -0.5076  0.1420  0.2569
 2609TIP3    H229243   4.750   0.726  13.965  0.5804  0.3761  0.8019
 2610TIP3   OH229244   5.166   5.185  11.455  0.1098  0.4829 -0.0812
 2610TIP3    H129245   5.101   5.251  11.479 -2.2242 -0.9812 -1.8930
 2610TIP3    H229246   5.219   5.227  11.388  0.7712  1.5271  1.0498
 2611TIP3   OH229247   2.904   5.921   2.361 -0.3653  0.3511 -0.3525
 2611TIP3    H129248   2.956   5.938   2.440  0.2486 -0.6832 -0.5186
 2611TIP3    H229249   2.924   5.995   2.303 -0.7900  1.0927  0.4386
 2612TIP3   OH229250   4.583   2.640  16.286  0.4854  0.4108  0.4036
 2612TIP3    H129251   4.665   2.655  16.238  0.2139  0.5321 -0.0296
 2612TIP3    H229252   4.565   2.724  16.329 -0.2266  0.8769 -0.7698
 2613TIP3   OH229253   0.157   4.109  15.573 -0.3683 -0.0500  0.2898
 2613TIP3    H129254   0.172   4.128  15.480  0.0311 -1.0822  0.1281
 2613TIP3    H229255   0.232   4.148  15.617  0.5944 -1.4303 -0.0664
 2614TIP3   OH229256   4.310   0.074   3.471 -0.5945  0.0401  0.1591
 2614TIP3    H129257   4.280   0.164   3.481  0.6052  0.6112 -1.0032
 2614TIP3    H229258   4.324   0.043   3.560  0.1588  1.4430  0.5574
 2615TIP3   OH229259   3.577   5.012  13.405  0.1666  0.2077 -0.8977
 2615TIP3    H129260   3.546   5.021  13.494  1.7076 -0.6839 -0.2217
 2615TIP3    H229261   3.512   5.057  13.351 -1.5855 -0.5415  0.5076
 2616TIP3   OH229262   2.082   1.519   0.663 -0.0996  0.1233 -0.4926
 2616TIP3    H129263   2.063   1.427   0.643  1.5762 -0.3367 -0.0550
 2616TIP3    H229264   2.161   1.539   0.613 -1.0126  1.6636 -1.4128
 2617TIP3   OH229265   2.480   6.275  16.727  0.3877  0.8468  0.0496
 2617TIP3    H129266   2.401   6.327  16.736  1.0526  1.8860  0.0874
 2617TIP3    H229267   2.551   6.334  16.755  1.4861  0.8798 -2.5635
 2618TIP3   OH229268   1.166   3.682   5.715 -0.2075 -0.1474 -0.0554
 2618TIP3    H129269   1.151   3.619   5.786  0.5363  0.8747  1.0356
 2618TIP3    H229270   1.259   3.702   5.720 -0.7638  2.6595  1.0553
 2619TIP3   OH229271   1.221   0.900   5.437 -0.8843 -0.3132  1.0002
 2619TIP3    H129272   1.306   0.932   5.407 -1.5207  0.8871  0.4042
 2619TIP3    H229273   1.236   0.874   5.528  0.5409 -1.8853  0.3788
 2620TIP3   OH229274   5.295   5.585  15.279  0.2151  0.2862  0.2785
 2620TIP3    H129275   5.301   5.512  15.217  1.8268 -0.0981  0.8221
 2620TIP3    H229276   5.370   5.641  15.256 -0.5174  1.3411  0.4130
 2621TIP3   OH229277   3.363   4.571  15.319 -0.5465  0.5489  0.0822
 2621TIP3    H129278   3.378   4.477  15.324  1.9043  0.9241  1.1600
 2621TIP3    H229279   3.429   4.602  15.257 -0.2691  1.7464  0.9513
 2622TIP3   OH229280   6.002   0.604  11.440  0.0826  0.0719 -0.0980
 2622TIP3    H129281   5.910   0.627  11.455 -1.0756 -3.1181 -1.3664
 2622TIP3    H229282   6.005   0.575  11.349  2.7220  1.3808 -0.5253
 2623TIP3   OH229283   1.950   1.426  14.026 -0.3637  0.4701  0.2741
 2623TIP3    H129284   1.893   1.377  13.967  0.7393 -1.0532  0.3929
 2623TIP3    H229285   2.039   1.405  13.996  0.1925  0.6303  1.7053
 2624TIP3   OH229286   5.717   6.363  16.180  0.1828  0.7030 -0.9710
 2624TIP3    H129287   5.729   6.384  16.088 -1.1043  1.2372 -1.0359
 2624TIP3    H229288   5.632   6.320  16.184  0.1869  0.7641 -0.0238
 2625TIP3   OH229289   1.451   6.095  15.907  0.1828 -0.6208  0.3478
 2625TIP3    H129290   1.431   6.147  15.829  1.0873  1.2482  1.2805
 2625TIP3    H229291   1.546   6.097  15.913  0.1471 -1.1018  1.2473
 2626TIP3   OH229292   2.504   3.074   0.964  0.1157  0.0032 -0.3683
 2626TIP3    H129293   2.565   3.133   1.007  0.5869  0.1824 -1.2477
 2626TIP3    H229294   2.557   3.030   0.896 -0.4787 -0.6230 -0.4429
 2627TIP3   OH229295   6.323   0.148   1.610  0.5844 -0.3684 -0.6820
 2627TIP3    H129296   6.262   0.083   1.573 -0.4142  0.4035 -0.4407
 2627TIP3    H229297   6.295   0.157   1.701 -0.0108  1.1912 -0.9892
 2628TIP3   OH229298   2.009   6.620   6.351  0.0527  0.2794 -0.2853
 2628TIP3    H129299   1.964   6.586   6.273 -0.4234  1.0559 -0.3640
 2628TIP3    H229300   1.954   6.592   6.424 -0.1426  0.5624 -0.3223
 2629TIP3   OH229301   2.374   3.486   0.257 -0.3867 -0.4554 -0.5676
 2629TIP3    H129302   2.392   3.580   0.254  0.3014 -0.5962 -0.9307
 2629TIP3    H229303   2.458   3.445   0.240 -0.8683 -1.1341 -1.3966
 2630TIP3   OH229304   3.003   5.602  12.306 -0.4080  0.4109 -0.3225
 2630TIP3    H129305   3.065   5.641  12.245 -0.9259  1.6379 -0.0941
 2630TIP3    H229306   3.056   5.583  12.384 -0.1581  0.6961 -0.4201
 2631TIP3   OH229307   5.736   4.340  15.880 -0.1871  0.7056 -0.3570
 2631TIP3    H129308   5.680   4.263  15.884  0.4342  0.2939  1.1163
 2631TIP3    H229309   5.682   4.406  15.835 -1.5509  0.0922  0.3101
 2632TIP3   OH229310   1.077   6.516  16.900 -0.2107  0.0888 -0.0678
 2632TIP3    H129311   1.161   6.555  16.927 -0.8759  0.1472  2.0949
 2632TIP3    H229312   1.035   6.490  16.982 -3.1582  1.7294 -0.9365
 2633TIP3   OH229313   5.497   0.896  13.472  0.4357 -0.2533  0.0088
 2633TIP3    H129314   5.402   0.910  13.479  0.4099 -0.4456  0.0411
 2633TIP3    H229315   5.535   0.961  13.532  0.3510  0.2456 -0.4757
 2634TIP3   OH229316   5.267   1.225   2.286  0.0713  0.4122  0.2952
 2634TIP3    H129317   5.186   1.175   2.287 -0.6969  1.5668  2.9250
 2634TIP3    H229318   5.243   1.312   2.318  1.8105  1.8024 -1.8144
 2635TIP3   OH229319   5.592   3.784   2.557  0.2288 -0.2973  0.7860
 2635TIP3    H129320   5.555   3.699   2.533 -2.4710  1.2403 -0.9776
 2635TIP3    H229321   5.539   3.812   2.632 -0.7961  0.9503 -0.3520
 2636TIP3   OH229322   6.117   6.608   0.099  0.0387 -0.8896  0.3450
 2636TIP3    H129323   6.183   6.594   0.166 -0.2790 -1.7581  0.4857
 2636TIP3    H229324   6.084   6.696   0.116 -0.9348 -1.5462  2.1497
 2637TIP3   OH229325   4.069   5.585  10.508  0.2400  0.0467 -0.1594
 2637TIP3    H129326   4.142   5.597  10.568 -0.3195  0.5345  0.4492
 2637TIP3    H229327   4.017   5.514  10.547  1.1558 -1.3623 -1.3802
 2638TIP3   OH229328   5.834   1.783  13.169 -0.1867  0.3379  0.0094
 2638TIP3    H129329   5.854   1.774  13.075 -0.0861  2.3203 -0.1984
 2638TIP3    H229330   5.739   1.780  13.174 -0.1725 -0.4171 -0.0643
 2639TIP3   OH229331   2.298   0.862  15.842 -0.1865  0.0901 -0.1460
 2639TIP3    H129332   2.217   0.834  15.799 -0.0537  0.9947 -1.0036
 2639TIP3    H229333   2.291   0.957  15.849  1.0664  0.2471 -0.7778
 2640TIP3   OH229334   5.246   3.362   5.900  0.6298 -0.7252 -0.0101
 2640TIP3    H129335   5.246   3.422   5.826  0.3230 -0.3257  0.3108
 2640TIP3    H229336   5.270   3.277   5.862 -1.4844 -0.9701 -0.9112
 2641TIP3   OH229337   3.975   2.093  13.459 -0.1998  0.5853  0.6553
 2641TIP3    H129338   3.998   2.184  13.440  0.3288  0.1797 -0.7495
 2641TIP3    H229339   3.919   2.099  13.537  1.6468  1.9102  1.9676
 2642TIP3   OH229340   5.622   6.133  11.596  0.0643 -0.0250 -0.3290
 2642TIP3    H129341   5.707   6.125  11.638 -0.2078  1.4034  0.5795
 2642TIP3    H229342   5.595   6.043  11.576  2.2857 -0.4564 -1.7329
 2643TIP3   OH229343   5.499   1.006  12.586  0.1292  0.4943  0.5822
 2643TIP3    H129344   5.511   0.924  12.635 -0.1819 -0.1794 -0.4549
 2643TIP3    H229345   5.588   1.034  12.565  0.2149  0.0555  0.3501
 2644TIP3   OH229346   5.346   6.131   6.580 -0.0987  0.2490 -0.0025
 2644TIP3    H129347   5.440   6.149   6.568 -0.0306 -1.0004 -2.0378
 2644TIP3    H229348   5.304   6.216   6.571  0.8110  0.7614  0.4146
 2645TIP3   OH229349   0.310   4.922   5.595  0.1380 -0.2831  0.1997
 2645TIP3    H129350   0.214   4.931   5.596 -0.0426 -1.8687 -0.1440
 2645TIP3    H229351   0.338   4.957   5.680 -0.6085  1.2919 -0.1569
 2646TIP3   OH229352   1.689   5.344  12.213  0.4619 -0.0027 -0.3619
 2646TIP3    H129353   1.772   5.349  12.166 -0.1318  0.9255 -1.3727
 2646TIP3    H229354   1.713   5.354  12.305  1.6089 -1.4319 -0.4625
 2647TIP3   OH229355   0.628   2.295   3.537  0.0982  0.0865  0.1100
 2647TIP3    H129356   0.649   2.340   3.619  0.5397 -0.4968  0.3181
 2647TIP3    H229357   0.572   2.222   3.564  0.2628 -0.1176 -0.1072
 2648TIP3   OH229358   4.220   4.493  16.343  0.2966  0.0072 -0.0533
 2648TIP3    H129359   4.157   4.508  16.272  0.5624  0.2931 -0.2278
 2648TIP3    H229360   4.305   4.491  16.300  0.4552  0.1442  0.2568
 2649TIP3   OH229361   3.264   4.620  13.778 -0.3740  0.0580 -0.2115
 2649TIP3    H129362   3.175   4.602  13.810  0.3387 -1.5822  1.0208
 2649TIP3    H229363   3.311   4.651  13.855  0.2709  0.3352 -0.7109
 2650TIP3   OH229364   3.892   0.672  14.524 -0.4485 -0.5070 -0.7111
 2650TIP3    H129365   3.879   0.593  14.471 -0.9774 -0.0663 -1.2548
 2650TIP3    H229366   3.869   0.744  14.465 -4.9643 -0.0874  1.1242
 2651TIP3   OH229367   2.964   6.527   1.637 -0.0616  0.2570 -0.1980
 2651TIP3    H129368   2.879   6.553   1.672 -0.4506  1.0292 -1.6450
 2651TIP3    H229369   2.970   6.433   1.656 -1.3501  0.1376 -0.2802
 2652TIP3   OH229370   6.071   4.938   4.526 -0.2812 -0.4901  0.2887
 2652TIP3    H129371   6.084   5.004   4.594 -2.1046  1.0788 -0.8013
 2652TIP3    H229372   6.140   4.955   4.462 -0.4786  0.0902  0.2274
 2653TIP3   OH229373   0.878   1.156   5.245 -0.6391  0.1943  0.8601
 2653TIP3    H129374   0.883   1.250   5.261 -0.3125  0.0186  1.8619
 2653TIP3    H229375   0.908   1.116   5.327  0.8815 -0.7797 -0.1209
 2654TIP3   OH229376   0.353   3.531  14.794  0.1879 -0.0072 -0.7182
 2654TIP3    H129377   0.362   3.485  14.878 -0.3116 -0.2089 -0.7735
 2654TIP3    H229378   0.267   3.572  14.798 -0.0529 -0.4392 -1.3390
 2655TIP3   OH229379   0.020   5.059  12.494 -0.0400  0.4710 -0.2113
 2655TIP3    H129380   0.060   4.985  12.541  1.3851  1.6240  0.4685
 2655TIP3    H229381   0.078   5.073  12.419 -0.4085  0.7976 -0.4354
 2656TIP3   OH229382   2.040   0.817   2.677 -0.2196 -0.1777 -0.0976
 2656TIP3    H129383   1.981   0.875   2.629 -0.9116 -1.5654 -1.0203
 2656TIP3    H229384   2.128   0.850   2.657 -0.5719  0.2464 -1.0311
 2657TIP3   OH229385   5.343   1.982  13.433  0.0189  0.3011 -0.3213
 2657TIP3    H129386   5.430   1.951  13.407 -0.8394 -0.1839 -2.8806
 2657TIP3    H229387   5.287   1.906  13.424 -0.6534  0.5137  1.6970
 2658TIP3   OH229388   5.278   3.107   2.188  0.2079  0.5235 -0.2734
 2658TIP3    H129389   5.332   3.183   2.210  1.2586  0.6611 -2.8768
 2658TIP3    H229390   5.195   3.144   2.160 -0.2819  0.5005  1.1166
 2659TIP3   OH229391   6.613   4.770   1.095 -0.5514  0.0712 -0.2259
 2659TIP3    H129392   6.569   4.732   1.171  0.9895 -0.6062  0.3711
 2659TIP3    H229393   6.665   4.699   1.058  1.3980  1.2106  0.1632
 2660TIP3   OH229394   1.828   0.018   5.417 -0.3114 -0.4227  0.7129
 2660TIP3    H129395   1.894  -0.051   5.404 -1.8777 -1.9868  0.7859
 2660TIP3    H229396   1.852   0.057   5.501 -0.3312 -2.0127  1.5023
 2661TIP3   OH229397   2.842   2.427   0.223 -0.5676 -0.2814  0.1004
 2661TIP3    H129398   2.755   2.393   0.243  0.1121 -1.3789  1.3864
 2661TIP3    H229399   2.826   2.502   0.166 -2.2624 -1.3238 -0.8905
 2662TIP3   OH229400   0.145   0.808  15.497 -0.7136 -0.0622 -0.7008
 2662TIP3    H129401   0.119   0.716  15.499 -1.7763  0.2255  1.1914
 2662TIP3    H229402   0.133   0.838  15.587  2.8691  1.0908 -0.4570
 2663TIP3   OH229403   0.530   3.961  15.820 -0.2760  0.0165  0.1722
 2663TIP3    H129404   0.554   3.874  15.788  0.6193  0.2878  0.0612
 2663TIP3    H229405   0.583   3.972  15.899 -1.0353  0.1208  0.6749
 2664TIP3   OH229406   1.121   5.093  17.022  0.3657  0.7102 -0.0722
 2664TIP3    H129407   1.176   5.154  16.971  1.0165  0.1259 -0.0832
 2664TIP3    H229408   1.179   5.020  17.043  0.2466  1.1220  1.9044
 2665TIP3   OH229409   5.065   0.050  12.085  0.1452  0.6413 -0.3677
 2665TIP3    H129410   5.047  -0.030  12.134  0.5789  0.2520 -0.8445
 2665TIP3    H229411   5.148   0.034  12.041 -0.0136  1.1660 -0.8700
 2666TIP3   OH229412   2.251   6.514  15.253 -0.2976  0.6350  0.2323
 2666TIP3    H129413   2.314   6.485  15.319  0.6593  1.3080 -0.3704
 2666TIP3    H229414   2.172   6.463  15.272  0.2904  0.0609  1.2381
 2667TIP3   OH229415   1.488   0.443   2.098  0.0466 -0.1941 -0.0067
 2667TIP3    H129416   1.444   0.382   2.040  0.0636 -1.6602  1.4607
 2667TIP3    H229417   1.420   0.471   2.160 -0.3249  2.4196 -1.4656
 2668TIP3   OH229418   0.756   5.293   2.186 -0.2151  0.6373 -0.6937
 2668TIP3    H129419   0.745   5.238   2.109  1.1308  1.2143 -1.3279
 2668TIP3    H229420   0.827   5.252   2.235 -0.5699  0.6838 -0.1313
 2669TIP3   OH229421   0.590   3.014   4.623 -0.2540  0.2228 -0.1388
 2669TIP3    H129422   0.641   3.053   4.552  0.0085 -0.6095 -0.4190
 2669TIP3    H229423   0.592   3.079   4.693  0.0723  0.7578 -0.6337
 2670TIP3   OH229424   6.134   2.463   5.559  0.2438  0.2573  0.0885
 2670TIP3    H129425   6.197   2.391   5.564 -0.5287 -0.4504 -0.1899
 2670TIP3    H229426   6.048   2.421   5.561 -0.2291  1.1789  0.0232
 2671TIP3   OH229427   3.316   2.619  14.588  0.4968  0.7145  0.8182
 2671TIP3    H129428   3.320   2.675  14.511  2.0994 -0.7841 -0.2806
 2671TIP3    H229429   3.264   2.544  14.560  0.6747  0.3855  1.3441
 2672TIP3   OH229430   2.584   2.224  11.462  0.1189  0.5523 -0.0989
 2672TIP3    H129431   2.513   2.179  11.509  0.4424  1.2046  1.0359
 2672TIP3    H229432   2.558   2.219  11.370 -0.6025 -0.6242  0.1441
 2673TIP3   OH229433   4.987   0.798   2.205  0.2453  0.2824 -0.2745
 2673TIP3    H129434   4.936   0.788   2.124  0.4359 -0.9186 -0.2670
 2673TIP3    H229435   4.976   0.714   2.251  0.1980  0.9212  0.9188
 2674TIP3   OH229436   4.976   0.875  14.206 -0.0737 -0.4633  0.0266
 2674TIP3    H129437   4.882   0.889  14.202 -0.3079 -1.9510 -0.1667
 2674TIP3    H229438   5.012   0.932  14.138 -0.8321  0.0176  0.0156
 2675TIP3   OH229439   5.681   2.995   4.990  0.1747  0.3005 -0.2615
 2675TIP3    H129440   5.707   3.010   5.081 -1.8069  1.0897  0.2336
 2675TIP3    H229441   5.762   2.973   4.944  1.0959 -0.9774  1.8612
 2676TIP3   OH229442   6.624   1.197  14.431 -0.6007 -0.5742  0.4645
 2676TIP3    H129443   6.575   1.264  14.478 -1.0349  0.0130 -0.7951
 2676TIP3    H229444   6.559   1.132  14.406 -0.6674 -0.0830 -0.7022
 2677TIP3   OH229445   5.191   4.123   4.806  0.8988 -0.4940  0.0190
 2677TIP3    H129446   5.176   4.217   4.816  2.2996 -0.3982  1.5211
 2677TIP3    H229447   5.141   4.083   4.878  0.2369 -0.9343 -0.6642
 2678TIP3   OH229448   4.238   0.638  13.310  0.3657 -0.1761 -0.2828
 2678TIP3    H129449   4.148   0.666  13.297  0.1881 -0.1939  0.8048
 2678TIP3    H229450   4.283   0.716  13.343 -0.0062 -0.9340  2.2342
 2679TIP3   OH229451   2.505   6.669   0.936  0.6314  0.3353  0.0295
 2679TIP3    H129452   2.479   6.584   0.900  1.3154  1.4059 -3.3472
 2679TIP3    H229453   2.598   6.660   0.957  0.8335  0.3930 -0.8332
 2680TIP3   OH229454   0.973   1.558   2.321  0.0142 -0.1885  0.0059
 2680TIP3    H129455   1.058   1.538   2.358 -0.5821 -1.7514  0.6279
 2680TIP3    H229456   0.941   1.633   2.372 -0.9087 -2.4386  3.0116
 2681TIP3   OH229457   3.520   2.985  15.640  0.0607  0.5124 -0.0154
 2681TIP3    H129458   3.531   3.063  15.694 -0.0910  0.9858 -0.6532
 2681TIP3    H229459   3.605   2.941  15.642  1.2968  2.5092 -2.4245
 2682TIP3   OH229460   4.012   6.182  13.134 -0.2756 -0.0498  0.1928
 2682TIP3    H129461   3.989   6.273  13.115  0.4167  0.0508 -0.1979
 2682TIP3    H229462   4.038   6.182  13.227 -1.9178 -0.1888  0.6752
 2683TIP3   OH229463   0.621   6.582  15.517  0.3312  0.3014 -0.0178
 2683TIP3    H129464   0.634   6.553  15.427  0.2628 -3.0811  0.9414
 2683TIP3    H229465   0.527   6.576  15.532  0.1394  2.3019 -0.0733
 2684TIP3   OH229466   0.037   2.822  11.603  0.1827 -0.0034 -0.1001
 2684TIP3    H129467  -0.034   2.873  11.641 -0.0568  0.4381 -1.1255
 2684TIP3    H229468   0.050   2.750  11.665  2.0278  2.3976  2.5891
 2685TIP3   OH229469   3.424   4.914  14.316 -0.3621  0.0921  0.0160
 2685TIP3    H129470   3.369   4.843  14.281 -0.6235  1.1673 -1.8705
 2685TIP3    H229471   3.454   4.962  14.239 -0.1904  2.0483  1.2263
 2686TIP3   OH229472   2.700   4.552  15.883  0.2481  0.1859  0.3810
 2686TIP3    H129473   2.770   4.496  15.916  0.9233  1.4286  1.0810
 2686TIP3    H229474   2.622   4.495  15.885  1.0408 -0.9372  0.4171
 2687TIP3   OH229475   6.413   0.183  12.324  0.1425  0.1952  0.3977
 2687TIP3    H129476   6.470   0.185  12.401 -0.7588 -0.6849  1.1152
 2687TIP3    H229477   6.378   0.094  12.322 -0.0594  0.2737 -0.8922
 2688TIP3   OH229478   1.903   3.344  14.536 -0.0247 -0.1652 -0.4556
 2688TIP3    H129479   1.817   3.339  14.495  0.3746  2.4637 -1.8846
 2688TIP3    H229480   1.884   3.365  14.628 -0.9848  1.4293 -0.9638
 2689TIP3   OH229481   4.799   6.712  15.512  0.1188  0.3552 -0.1874
 2689TIP3    H129482   4.823   6.693  15.603 -2.5742  0.1050  0.5829
 2689TIP3    H229483   4.776   6.805  15.513  2.1531  0.9133 -1.1855
 2690TIP3   OH229484   4.922   3.519   0.142  0.1668  0.4272 -0.3669
 2690TIP3    H129485   4.873   3.547   0.064  1.2492  0.9895 -0.8722
 2690TIP3    H229486   4.911   3.424   0.144 -1.1064  0.5600 -0.3409
 2691TIP3   OH229487   4.564   5.976  14.867  0.2670  0.1482  0.2443
 2691TIP3    H129488   4.606   5.890  14.864  1.0162  0.5247 -0.1273
 2691TIP3    H229489   4.636   6.037  14.880 -0.1173  0.8389 -0.8081
 2692TIP3   OH229490   4.056   1.461   1.532 -0.2129 -0.2895  0.2259
 2692TIP3    H129491   4.047   1.429   1.622  2.0277 -2.3786 -0.1829
 2692TIP3    H229492   4.014   1.394   1.478  0.3058 -0.1183 -0.4004
 2693TIP3   OH229493   4.073   2.039   5.773  0.0392  0.4838  0.2268
 2693TIP3    H129494   4.023   2.026   5.853 -0.9618  2.0027 -0.1190
 2693TIP3    H229495   4.137   2.106   5.795  0.3152  0.3057 -0.0221
 2694TIP3   OH229496   2.260   4.832  14.205  1.0959  0.7247 -0.5594
 2694TIP3    H129497   2.302   4.799  14.284  1.1210 -1.7551 -1.5198
 2694TIP3    H229498   2.301   4.918  14.190  2.2034  0.5623  1.2295
 2695TIP3   OH229499   3.315   3.508   2.913  0.4094  0.0571 -0.1009
 2695TIP3    H129500   3.349   3.597   2.920 -0.3464  0.3799 -0.4094
 2695TIP3    H229501   3.386   3.458   2.873  0.8715  0.4941  0.1568
 2696TIP3   OH229502   0.378   1.997   4.505  0.3873  0.0165 -0.4063
 2696TIP3    H129503   0.354   1.917   4.552  0.5006  0.9457  1.2722
 2696TIP3    H229504   0.474   1.997   4.504  0.3874  0.0138 -0.6429
 2697TIP3   OH229505   0.546   2.136   4.057 -0.0998 -0.7183  0.2557
 2697TIP3    H129506   0.463   2.089   4.054 -0.3181 -0.3019 -0.5354
 2697TIP3    H229507   0.522   2.228   4.067  0.2771 -0.6305  0.3913
 2698TIP3   OH229508   5.643   0.559   1.874 -0.0307 -0.2225  0.0400
 2698TIP3    H129509   5.553   0.573   1.844 -0.4925 -1.5609  0.7191
 2698TIP3    H229510   5.639   0.576   1.968  0.9747  2.0214 -0.2630
 2699TIP3   OH229511   5.195   6.233  14.573 -0.3662 -0.3459  0.5054
 2699TIP3    H129512   5.229   6.194  14.492  1.1875  0.6479  0.6463
 2699TIP3    H229513   5.205   6.327  14.560 -3.3546  0.0463  0.4775
 2700TIP3   OH229514   5.712   0.001  12.418 -0.2019 -0.4973  0.2848
 2700TIP3    H129515   5.785   0.001  12.356 -0.2305 -1.3652  0.2492
 2700TIP3    H229516   5.754  -0.009  12.504 -0.3582 -2.7495  0.1429
 2701TIP3   OH229517   4.975   5.764   1.547  0.2093 -0.6534 -0.2896
 2701TIP3    H129518   5.010   5.741   1.633  0.4002 -0.8398 -0.4143
 2701TIP3    H229519   4.883   5.783   1.563  0.8831  2.4873  0.4936
 2702TIP3   OH229520   0.820   4.286   5.111 -0.0493 -0.0143  0.2399
 2702TIP3    H129521   0.909   4.254   5.099  0.2411  0.2028  1.6615
 2702TIP3    H229522   0.808   4.291   5.206 -1.6591 -0.2477  0.0820
 2703TIP3   OH229523   5.388   3.221  12.925  0.7061 -0.5480 -0.4784
 2703TIP3    H129524   5.363   3.129  12.931 -0.2440 -0.2073  3.0349
 2703TIP3    H229525   5.308   3.269  12.947  2.1275  0.9273  1.8177
 2704TIP3   OH229526   4.279   6.229  15.846 -0.2374 -0.2673  0.2980
 2704TIP3    H129527   4.220   6.255  15.776  0.9612 -1.1847 -1.1026
 2704TIP3    H229528   4.248   6.142  15.873 -0.9124  0.2277  1.2029
 2705TIP3   OH229529   4.425   2.423  13.098 -0.4586  0.5582  0.1328
 2705TIP3    H129530   4.359   2.391  13.160  0.8344  1.5714  2.1213
 2705TIP3    H229531   4.386   2.503  13.061 -0.6951  0.6861  0.6545
 2706TIP3   OH229532   5.621   3.027  17.272 -0.2804  0.1370  0.3297
 2706TIP3    H129533   5.699   3.052  17.222 -2.2187  0.9714 -2.5372
 2706TIP3    H229534   5.651   2.958  17.331  2.6918  0.7516 -0.3115
 2707TIP3   OH229535   4.605   4.883  14.593  0.7171  0.5202 -0.3593
 2707TIP3    H129536   4.577   4.920  14.677 -0.2365  0.5726 -0.6953
 2707TIP3    H229537   4.538   4.818  14.572  0.3295  1.2990 -1.6258
 2708TIP3   OH229538   0.490   1.304   4.623 -0.4546 -0.2461 -0.0453
 2708TIP3    H129539   0.401   1.305   4.586  0.1031 -1.0259 -1.4765
 2708TIP3    H229540   0.509   1.396   4.640 -0.8196  0.1613 -1.5890
 2709TIP3   OH229541   3.121   1.325  11.659  0.1875  0.5132  0.4583
 2709TIP3    H129542   3.214   1.342  11.648  0.2801 -0.9813 -1.7123
 2709TIP3    H229543   3.078   1.391  11.604 -0.2089  2.3594  2.8331
 2710TIP3   OH229544   6.148   4.550   3.626  0.3732  0.2026  0.2302
 2710TIP3    H129545   6.210   4.514   3.690  2.8028  1.8649 -1.0259
 2710TIP3    H229546   6.201   4.567   3.548 -1.8275  1.1697 -1.1542
 2711TIP3   OH229547   5.277   2.428   2.293  0.2593  0.6405 -1.1657
 2711TIP3    H129548   5.234   2.365   2.234  2.5819 -2.2402 -0.0527
 2711TIP3    H229549   5.230   2.420   2.375 -0.2270  1.3208 -1.3761
 2712TIP3   OH229550   6.419   0.796  12.937 -0.3240  0.3914 -0.3333
 2712TIP3    H129551   6.513   0.784  12.924 -0.1743 -0.4451  1.2151
 2712TIP3    H229552   6.410   0.885  12.971  0.3857 -0.6348  2.9128
 2713TIP3   OH229553   2.179   6.016   2.995  0.4622 -0.1605  0.1187
 2713TIP3    H129554   2.126   6.043   2.920  0.1008  0.7875  0.7121
 2713TIP3    H229555   2.123   6.029   3.071  1.9634  2.2560  0.9370
 2714TIP3   OH229556   6.766   1.542  17.247 -0.1624  0.3112 -0.7834
 2714TIP3    H129557   6.727   1.620  17.287 -1.7303 -0.4203 -0.8002
 2714TIP3    H229558   6.718   1.530  17.165  1.3443  0.3700 -1.7177
 2715TIP3   OH229559   5.138   6.120  11.866 -0.6885 -0.0125  0.7472
 2715TIP3    H129560   5.088   6.110  11.948  0.1792 -2.1058  1.0772
 2715TIP3    H229561   5.227   6.139  11.895 -0.2844 -1.1976  0.3305
 2716TIP3   OH229562   2.721   4.018  12.360  0.5493  0.0099  0.4666
 2716TIP3    H129563   2.726   4.082  12.289  2.0240 -1.1518 -0.5335
 2716TIP3    H229564   2.627   4.004  12.373  0.2163  1.8078  0.2189
 2717TIP3   OH229565   4.571   1.159   2.090  0.2823 -0.0066  0.1389
 2717TIP3    H129566   4.530   1.075   2.068  1.6601 -0.7291  0.1791
 2717TIP3    H229567   4.656   1.156   2.045  1.2155  0.4766  1.7953
 2718TIP3   OH229568   0.759   2.370   3.002 -0.0350 -0.0609 -0.6758
 2718TIP3    H129569   0.668   2.401   3.003  0.0808  0.2915  0.7566
 2718TIP3    H229570   0.755   2.282   3.039  0.3480  0.4601  0.6683
 2719TIP3   OH229571   1.898   0.950   4.604 -0.2150  0.2946  0.5707
 2719TIP3    H129572   1.830   0.946   4.536  0.7940 -0.7960 -0.4161
 2719TIP3    H229573   1.911   1.044   4.619 -2.1790  0.5310  1.0663
 2720TIP3   OH229574   5.756   2.281   4.138  0.2166  0.3961  0.3201
 2720TIP3    H129575   5.701   2.353   4.168 -1.1171  0.2179 -1.5220
 2720TIP3    H229576   5.737   2.273   4.044  2.7119 -0.3134 -0.2073
 2721TIP3   OH229577   2.979   6.704  15.517 -0.2284 -0.3795 -0.1374
 2721TIP3    H129578   2.888   6.723  15.495 -0.6765 -1.1850  0.9225
 2721TIP3    H229579   2.975   6.627  15.573  1.1383 -0.6010 -0.2928
 2722TIP3   OH229580   2.732   2.701  14.668  0.7087  0.0009  0.1509
 2722TIP3    H129581   2.677   2.631  14.704  0.0399  0.2242 -0.4283
 2722TIP3    H229582   2.772   2.661  14.590 -2.2065  1.1893 -2.1336
 2723TIP3   OH229583   1.747   3.160  13.336 -0.4590  0.3168 -0.6730
 2723TIP3    H129584   1.667   3.128  13.293 -0.4687 -0.7245  0.0885
 2723TIP3    H229585   1.804   3.084  13.339 -0.6123  0.2246  1.5126
 2724TIP3   OH229586   6.407   1.935  16.030  0.2217  0.2278 -0.0765
 2724TIP3    H129587   6.338   1.996  16.004  1.2110  0.7411 -1.6175
 2724TIP3    H229588   6.378   1.900  16.114 -3.3030 -1.6721 -1.8765
 2725TIP3   OH229589   0.005   1.308  12.735  0.0411  0.3068 -0.2240
 2725TIP3    H129590  -0.028   1.269  12.655  1.6829  1.1344 -1.3786
 2725TIP3    H229591  -0.067   1.301  12.798 -1.8096  0.8844 -2.1794
 2726TIP3   OH229592   5.478   2.659  10.741  0.3594 -0.5037  0.4408
 2726TIP3    H129593   5.406   2.597  10.733 -0.3131  0.4854 -2.7360
 2726TIP3    H229594   5.556   2.605  10.749 -0.0018 -2.0837 -3.9070
 2727TIP3   OH229595   4.649   1.242   3.976 -0.8880 -0.0287  0.0406
 2727TIP3    H129596   4.555   1.226   3.985 -0.9155 -1.4118 -1.8988
 2727TIP3    H229597   4.682   1.164   3.932  1.3477  0.0554  1.4111
 2728TIP3   OH229598   4.297   0.081   1.291  0.2504  0.8646  0.3139
 2728TIP3    H129599   4.232   0.079   1.221 -0.5480 -1.2404  1.0448
 2728TIP3    H229600   4.302  -0.010   1.321  2.3163  1.2970  1.4043
 2729TIP3   OH229601   2.939   3.672  10.932  0.4278 -0.1356 -0.0778
 2729TIP3    H129602   2.893   3.643  11.010 -1.2877  2.0167 -0.1980
 2729TIP3    H229603   2.970   3.760  10.954  1.3243 -0.1228 -1.2741
 2730TIP3   OH229604   6.001   4.704  11.315  0.3220 -0.0504  0.2805
 2730TIP3    H129605   6.057   4.775  11.284  1.6023 -0.9357  0.4626
 2730TIP3    H229606   5.981   4.726  11.406  1.3325 -0.2743  0.5655
 2731TIP3   OH229607   6.692   1.143  12.530  0.4489  0.1677 -0.5911
 2731TIP3    H129608   6.599   1.159  12.515  0.5270  2.0942  0.6335
 2731TIP3    H229609   6.696   1.056  12.569 -1.0190  0.6830  0.7966
 2732TIP3   OH229610   3.292   2.848   5.246  0.6939  0.1964 -0.3978
 2732TIP3    H129611   3.235   2.778   5.276  0.7808  0.4978  0.5073
 2732TIP3    H229612   3.288   2.844   5.151  1.1098 -1.3775 -0.3779
 2733TIP3   OH229613   5.634   5.254   3.145  0.4099 -0.4384 -0.3911
 2733TIP3    H129614   5.631   5.300   3.229  1.2603  1.6552 -1.4501
 2733TIP3    H229615   5.718   5.207   3.146  1.1743  0.8869 -0.6950
 2734TIP3   OH229616   4.327   0.894  12.238 -0.0813 -0.0635  0.1015
 2734TIP3    H129617   4.262   0.944  12.189 -0.0174 -0.7023 -0.6519
 2734TIP3    H229618   4.309   0.916  12.330 -2.0858 -1.0339 -0.0063
 2735TIP3   OH229619   0.722   4.028  15.452  0.3364 -0.2348 -0.1802
 2735TIP3    H129620   0.695   3.946  15.411 -0.8256 -0.4960  1.0448
 2735TIP3    H229621   0.641   4.077  15.463  0.8230  0.4426  0.4572
 2736TIP3   OH229622   2.205   0.831   6.787 -0.0829 -0.1148 -0.4653
 2736TIP3    H129623   2.179   0.766   6.722  1.1200  0.2390 -1.3275
 2736TIP3    H229624   2.299   0.844   6.773  0.1692  0.1219  1.2130
 2737TIP3   OH229625   2.886   5.461  14.036 -0.1737 -0.4298  0.0702
 2737TIP3    H129626   2.820   5.462  13.967 -1.7792 -0.5622  1.5488
 2737TIP3    H229627   2.851   5.401  14.102  1.7778 -1.0787  0.5967
 2738TIP3   OH229628   3.325   1.176  16.477  0.0219 -0.9086 -0.2168
 2738TIP3    H129629   3.349   1.178  16.384  0.8461 -0.1002 -0.0101
 2738TIP3    H229630   3.403   1.209  16.522 -0.9697  0.3706  0.6270
 2739TIP3   OH229631   1.645   5.696  17.238  0.0311  0.5171 -0.4889
 2739TIP3    H129632   1.664   5.603  17.245  1.6257  0.8545  0.1470
 2739TIP3    H229633   1.641   5.712  17.143 -0.8132 -0.2796 -0.6017
 2740TIP3   OH229634   0.309   1.030  16.010 -0.1131 -0.0337 -0.0724
 2740TIP3    H129635   0.401   1.017  15.987  0.2757  2.0285  0.1277
 2740TIP3    H229636   0.268   1.060  15.929 -0.6066 -0.8459 -0.1329
 2741TIP3   OH229637   1.779   2.831   3.374 -0.1559 -0.2037 -0.4122
 2741TIP3    H129638   1.836   2.768   3.329 -0.9807 -1.3868  0.1187
 2741TIP3    H229639   1.715   2.858   3.308  0.7761  0.8589 -0.9121
 2742TIP3   OH229640   1.016   0.779   0.110 -0.4913  0.1682  0.5949
 2742TIP3    H129641   0.998   0.755   0.019  0.3369  0.2771  0.3965
 2742TIP3    H229642   0.956   0.725   0.161 -1.4366  0.5835 -0.0429
 2743TIP3   OH229643   0.246   3.350   3.826 -0.2059 -0.3306  0.2033
 2743TIP3    H129644   0.200   3.423   3.869 -0.9761 -1.8639  2.1269
 2743TIP3    H229645   0.277   3.387   3.743 -2.3181  1.6272  0.1753
 2744TIP3   OH229646   2.521   4.975   1.293  0.3688  0.3131 -0.2794
 2744TIP3    H129647   2.491   4.977   1.384 -2.4608 -2.0968 -1.0303
 2744TIP3    H229648   2.480   5.052   1.253 -0.0140  0.2861  0.0529
 2745TIP3   OH229649   4.838   0.526   3.398 -0.0345  0.2155  0.1197
 2745TIP3    H129650   4.784   0.546   3.474  1.5117  1.4710  0.9445
 2745TIP3    H229651   4.897   0.457   3.428 -0.3154 -0.2681 -0.3988
 2746TIP3   OH229652   1.146   6.747  15.570 -0.0779 -0.4021  0.1895
 2746TIP3    H129653   1.222   6.699  15.601  0.2301  0.1123  0.2355
 2746TIP3    H229654   1.153   6.746  15.475  2.0637  2.8636  0.1746
 2747TIP3   OH229655   1.113   6.040   4.906  0.2098  0.3453  0.0690
 2747TIP3    H129656   1.100   6.130   4.875 -1.1505 -0.0378 -0.5416
 2747TIP3    H229657   1.025   6.001   4.904  0.6778 -0.8059  0.9441
 2748TIP3   OH229658   4.640   4.328   4.130  0.3616  0.5052 -0.4819
 2748TIP3    H129659   4.552   4.349   4.099  0.4149 -0.1913 -1.1214
 2748TIP3    H229660   4.635   4.338   4.225 -0.5324  0.0141 -0.4717
 2749TIP3   OH229661   4.261   1.164  13.868 -0.3054 -0.0317  0.4486
 2749TIP3    H129662   4.197   1.230  13.895  0.0979  0.1757  0.9125
 2749TIP3    H229663   4.274   1.180  13.775  0.7293  1.3701  0.8050
 2750TIP3   OH229664   6.411   0.552   0.973  0.1708  0.2205 -0.3871
 2750TIP3    H129665   6.388   0.486   0.907  1.5227 -0.4173 -0.2622
 2750TIP3    H229666   6.424   0.501   1.053  1.9563  0.4974 -0.4545
 2751TIP3   OH229667   5.542   5.130  10.617  0.1371  0.0048 -0.3273
 2751TIP3    H129668   5.612   5.153  10.555 -0.7609  1.2101 -0.9344
 2751TIP3    H229669   5.553   5.036  10.631 -0.2608 -0.5587 -3.1456
 2752TIP3   OH229670   2.818   2.712  13.739  0.6515  0.1812 -0.3008
 2752TIP3    H129671   2.744   2.682  13.686  0.8442 -1.0134  0.0818
 2752TIP3    H229672   2.828   2.645  13.807  1.2486  1.0108  0.4413
 2753TIP3   OH229673   3.184   6.486  12.174 -0.2203 -1.0199  0.0672
 2753TIP3    H129674   3.147   6.438  12.100 -1.1162 -0.7516  0.3223
 2753TIP3    H229675   3.260   6.531  12.138 -0.8205 -0.6508 -0.7674
 2754TIP3   OH229676   5.796   5.579  15.299 -0.7842 -0.0494  0.0990
 2754TIP3    H129677   5.864   5.525  15.257 -1.4077 -0.1211 -0.8675
 2754TIP3    H229678   5.845   5.643  15.351 -0.0032 -0.7684  0.2648
 2755TIP3   OH229679   0.316   4.125  11.053  0.1950 -0.3581 -0.2215
 2755TIP3    H129680   0.300   4.082  11.137 -2.3096  0.7347 -0.0422
 2755TIP3    H229681   0.229   4.147  11.021  1.1052 -0.3160 -2.9128
 2756TIP3   OH229682   4.985   2.500   4.304 -0.1881  0.3029 -0.0063
 2756TIP3    H129683   5.042   2.478   4.230  0.3153  1.1856  0.1046
 2756TIP3    H229684   4.927   2.568   4.270 -0.2899  0.3549  0.2719
 2757TIP3   OH229685   1.463   1.674  11.398  0.6446 -0.6002 -0.2362
 2757TIP3    H129686   1.475   1.657  11.305  1.6200 -0.0684 -0.2217
 2757TIP3    H229687   1.371   1.698  11.407  0.9072  0.9818 -1.3463
 2758TIP3   OH229688   4.909   3.309   1.706  0.4642 -0.7273  0.1662
 2758TIP3    H129689   4.972   3.241   1.729  0.9910 -0.3864 -0.2372
 2758TIP3    H229690   4.962   3.377   1.664 -0.2406 -0.6586 -0.6398
 2759TIP3   OH229691   4.164   5.812   5.812 -0.4180 -0.1068  0.3967
 2759TIP3    H129692   4.209   5.819   5.728 -1.2110  0.4666  0.0045
 2759TIP3    H229693   4.232   5.829   5.877  0.4138 -1.4806 -0.0642
 2760TIP3   OH229694   4.423   2.155  16.421  0.1292  0.3997 -0.0279
 2760TIP3    H129695   4.440   2.242  16.386 -0.9363  0.6451  0.0326
 2760TIP3    H229696   4.508   2.124  16.452  0.7908  0.8189 -1.3672
 2761TIP3   OH229697   4.106   0.546   2.834  0.4845  0.0544  0.1953
 2761TIP3    H129698   4.126   0.465   2.786  0.5935 -0.7109  1.4801
 2761TIP3    H229699   4.013   0.559   2.821  0.7184  0.5085 -1.1644
 2762TIP3   OH229700   3.465   2.650  12.180  0.6585  0.3207 -0.1652
 2762TIP3    H129701   3.534   2.591  12.148 -0.7637 -1.5308  0.0467
 2762TIP3    H229702   3.422   2.681  12.101 -0.6138 -1.5000 -0.2493
 2763TIP3   OH229703   3.708   4.376   2.133  0.2898  0.4006 -0.5756
 2763TIP3    H129704   3.726   4.456   2.182  0.0665  0.7514 -1.0503
 2763TIP3    H229705   3.615   4.360   2.146  0.3197  0.2550 -0.5383
 2764TIP3   OH229706   2.148   2.297  16.322 -0.5103 -0.2601 -0.0142
 2764TIP3    H129707   2.056   2.319  16.335 -0.4139  1.1271 -1.3589
 2764TIP3    H229708   2.186   2.298  16.409 -1.3740  1.1415  0.3855
 2765TIP3   OH229709   4.689   0.989   1.570 -0.0323  0.3407 -0.2500
 2765TIP3    H129710   4.687   0.949   1.483 -0.4155  0.3815 -0.2620
 2765TIP3    H229711   4.603   0.971   1.607  0.5582 -0.7862  0.6307
 2766TIP3   OH229712   3.940   1.058  14.624 -0.1674 -0.4239  0.3855
 2766TIP3    H129713   3.971   1.020  14.706 -0.8820 -1.3030  0.2593
 2766TIP3    H229714   3.975   1.001  14.556  1.5928  1.0820 -0.0472
 2767TIP3   OH229715   0.639   2.621  11.072 -0.3140  0.1294 -0.6986
 2767TIP3    H129716   0.686   2.538  11.067  0.6954  0.6719 -0.4970
 2767TIP3    H229717   0.601   2.632  10.985 -0.3133 -0.4596 -0.7760
 2768TIP3   OH229718   6.543   4.897  13.488 -0.1837 -0.1326 -0.0385
 2768TIP3    H129719   6.537   4.885  13.583 -0.8914  0.1403 -0.0431
 2768TIP3    H229720   6.478   4.965  13.468 -0.5371 -0.6796 -0.8005
 2769TIP3   OH229721   4.656   3.315  15.006 -0.3850 -0.1762  0.1587
 2769TIP3    H129722   4.728   3.292  15.063 -1.4444 -0.8268  1.2745
 2769TIP3    H229723   4.646   3.410  15.017 -0.1911 -0.2028  0.5721
 2770TIP3   OH229724   2.272   0.648  16.191  0.2787  0.0178 -0.9702
 2770TIP3    H129725   2.301   0.558  16.178  0.0197  0.1553 -2.8360
 2770TIP3    H229726   2.304   0.695  16.114  0.9179  1.6755  0.2430
 2771TIP3   OH229727   5.623   4.069  14.011  0.5211 -0.1483  0.5102
 2771TIP3    H129728   5.587   4.056  13.923  0.4229 -0.6082  0.6167
 2771TIP3    H229729   5.550   4.104  14.062  0.6536  0.3815  0.3435
 2772TIP3   OH229730   0.469   2.810  13.182  0.2531  0.1778  0.3838
 2772TIP3    H129731   0.508   2.833  13.267  2.2586 -0.0739 -0.4244
 2772TIP3    H229732   0.527   2.743  13.147 -0.8857 -0.1395 -0.9478
 2773TIP3   OH229733   0.773   3.947   0.468  0.2286  0.4937  0.0239
 2773TIP3    H129734   0.695   3.897   0.445  0.9917 -0.4002 -0.7017
 2773TIP3    H229735   0.752   3.987   0.552 -0.9135  0.0685 -0.0399
 2774TIP3   OH229736   3.251   4.722  12.500 -0.3342  0.5218 -1.2636
 2774TIP3    H129737   3.291   4.644  12.536 -0.7140  0.1113 -1.7097
 2774TIP3    H229738   3.219   4.695  12.414 -0.4708  1.1655 -1.4234
 2775TIP3   OH229739   2.745   0.071  14.380 -0.1274 -0.6355  0.6049
 2775TIP3    H129740   2.740   0.158  14.419  1.1118  0.3523 -1.3053
 2775TIP3    H229741   2.694   0.016  14.439 -0.7259  1.3114  2.0172
 2776TIP3   OH229742   3.193   1.274  17.241  0.3450 -0.2688 -0.0310
 2776TIP3    H129743   3.146   1.315  17.314  1.1806  1.4078 -0.3713
 2776TIP3    H229744   3.207   1.345  17.179  0.9472 -1.3375 -1.1682
 2777TIP3   OH229745   2.175   0.935  15.193  0.3997  1.2410 -0.4376
 2777TIP3    H129746   2.229   1.003  15.155  1.7657 -0.5693 -1.9156
 2777TIP3    H229747   2.085   0.968  15.184  0.9399  2.4148 -2.0441
 2778TIP3   OH229748   3.804   5.945  11.559 -0.0162  0.4431 -0.1108
 2778TIP3    H129749   3.773   5.899  11.637  1.6070  0.9035  0.8684
 2778TIP3    H229750   3.877   5.998  11.591  2.2347 -1.0882 -2.3308
 2779TIP3   OH229751   3.662   4.782   2.119 -0.5957  0.8427 -0.4336
 2779TIP3    H129752   3.714   4.817   2.047 -0.2695  0.2250 -0.5127
 2779TIP3    H229753   3.658   4.853   2.183  0.0773  1.0124 -0.5698
 2780TIP3   OH229754   6.503   1.702  15.940  0.4834  0.0146  0.1218
 2780TIP3    H129755   6.559   1.693  16.017 -1.8488  0.3791  1.9511
 2780TIP3    H229756   6.460   1.786  15.952 -1.6680 -0.9662 -0.3710
 2781TIP3   OH229757   5.203   3.937   1.968  0.2242 -0.0418 -0.4476
 2781TIP3    H129758   5.124   3.909   1.921 -0.7026  1.2910  0.2469
 2781TIP3    H229759   5.210   4.030   1.950  0.4505  0.2776  1.1859
 2782TIP3   OH229760   3.639   0.621  14.590  0.0577 -0.1686  0.3730
 2782TIP3    H129761   3.720   0.653  14.552  0.0205  0.8674  1.1369
 2782TIP3    H229762   3.589   0.700  14.613 -1.3682 -0.7729 -0.4916
 2783TIP3   OH229763   5.612   0.463  14.026  0.3124 -0.3611 -0.4138
 2783TIP3    H129764   5.624   0.474  13.932 -1.3519 -3.1550 -1.0662
 2783TIP3    H229765   5.523   0.493  14.043 -0.0998 -1.6658 -0.1372
 2784TIP3   OH229766   1.660   0.129   1.987  0.2270  0.0491  0.2570
 2784TIP3    H129767   1.661   0.049   1.934 -0.6116 -0.1640  0.5566
 2784TIP3    H229768   1.688   0.099   2.074 -0.9412 -0.0903  0.5952
 2785TIP3   OH229769   1.838   1.863   2.311  0.2545  0.3283 -0.3224
 2785TIP3    H129770   1.780   1.878   2.385 -0.1194 -0.3262 -0.4763
 2785TIP3    H229771   1.895   1.940   2.309 -0.4283  0.8484 -0.0106
 2786TIP3   OH229772   3.385   0.573  11.490 -0.0690  0.0399  0.5337
 2786TIP3    H129773   3.454   0.590  11.426 -2.0821  0.4067 -1.6838
 2786TIP3    H229774   3.310   0.625  11.460 -2.0619 -2.0905  1.4543
 2787TIP3   OH229775   3.891   2.736   3.355 -0.0035 -0.4031  0.5131
 2787TIP3    H129776   3.838   2.697   3.286  0.3812 -2.1498  1.1493
 2787TIP3    H229777   3.916   2.662   3.411  0.1113  0.8704  2.2390
 2788TIP3   OH229778   2.938   5.039   5.197  0.1436 -0.0069  0.1199
 2788TIP3    H129779   3.012   5.092   5.226  1.1749 -1.3505  0.0499
 2788TIP3    H229780   2.938   5.049   5.101 -1.8133  2.5536  0.2839
 2789TIP3   OH229781   0.351   5.755  11.531  0.4074 -0.2958  0.2581
 2789TIP3    H129782   0.434   5.771  11.577  0.7727  1.5155 -0.8899
 2789TIP3    H229783   0.369   5.781  11.440 -1.0811 -1.0671 -0.2927
 2790TIP3   OH229784   6.035   4.013  11.564  0.3187  0.0635  0.5910
 2790TIP3    H129785   6.044   3.919  11.549  2.4130  0.3295 -0.3095
 2790TIP3    H229786   6.032   4.051  11.476  0.3169  0.8820  0.9332
 2791TIP3   OH229787   5.092   5.900  13.645 -0.1331  0.0881 -0.2104
 2791TIP3    H129788   5.078   5.817  13.600 -0.6617  0.4686 -0.7560
 2791TIP3    H229789   5.007   5.922  13.682  0.2277 -0.0825  0.7662
 2792TIP3   OH229790   2.995   3.954   5.281  0.0845  0.2688 -0.2085
 2792TIP3    H129791   3.007   3.882   5.218 -1.5169 -0.1200 -0.1346
 2792TIP3    H229792   3.056   4.021   5.253  0.0715 -0.2720 -1.6339
 2793TIP3   OH229793   1.540   3.573  12.674 -0.4022 -0.2230 -0.9874
 2793TIP3    H129794   1.575   3.651  12.716  1.4894 -0.6165 -1.7537
 2793TIP3    H229795   1.536   3.507  12.744  0.1730 -0.0950 -0.8296
 2794TIP3   OH229796   0.046   5.661  15.477  0.3017 -0.0470  0.6119
 2794TIP3    H129797   0.078   5.683  15.389  1.4469 -0.2230  0.9752
 2794TIP3    H229798   0.037   5.566  15.477 -0.6871  0.0320  0.3725
 2795TIP3   OH229799   2.727   5.759   5.135  0.1044  0.1823  0.4894
 2795TIP3    H129800   2.687   5.830   5.085  1.0589  0.8468  0.6545
 2795TIP3    H229801   2.740   5.689   5.071  0.7415  0.7989 -0.0668
 2796TIP3   OH229802   5.823   6.339   0.346 -0.5630 -0.0536  0.3261
 2796TIP3    H129803   5.744   6.376   0.306  0.1661 -0.0157 -1.1794
 2796TIP3    H229804   5.866   6.292   0.274  1.5487  1.2091  0.6655
 2797TIP3   OH229805   5.653   3.440   1.947 -0.3434 -0.6303 -0.0843
 2797TIP3    H129806   5.564   3.453   1.979  0.4327 -0.4904  2.2238
 2797TIP3    H229807   5.653   3.477   1.859 -1.9677  1.5861  0.7567
 2798TIP3   OH229808   0.523   1.205  13.724 -0.3781  0.6994 -0.0452
 2798TIP3    H129809   0.567   1.290  13.714 -1.0465  0.9667 -0.7947
 2798TIP3    H229810   0.542   1.159  13.643 -0.0281  0.1229  0.3568
 2799TIP3   OH229811   5.605   0.352   4.457  0.1175  0.3606 -0.1321
 2799TIP3    H129812   5.655   0.365   4.538  1.4773  1.4446 -1.1043
 2799TIP3    H229813   5.602   0.438   4.416 -0.9795 -0.0704 -1.0245
 2800TIP3   OH229814   2.416   3.737   5.480 -0.0573 -0.2665  0.2043
 2800TIP3    H129815   2.373   3.657   5.450 -1.8001  1.0637 -1.0461
 2800TIP3    H229816   2.485   3.753   5.416  0.1530 -0.6277  0.3345
 2801TIP3   OH229817   3.734   1.475   1.723 -0.8509 -0.4897  0.1702
 2801TIP3    H129818   3.759   1.506   1.636 -0.5716  0.4084  0.5602
 2801TIP3    H229819   3.815   1.441   1.760 -0.0782  2.4710  1.4556
 2802TIP3   OH229820   5.695   3.133  14.240 -0.1219 -0.3935  0.1576
 2802TIP3    H129821   5.745   3.062  14.280 -0.8609 -1.0209 -0.0102
 2802TIP3    H229822   5.622   3.148  14.300 -0.0546  0.1255  0.1168
 2803TIP3   OH229823   2.584   5.144  16.476  0.2302 -0.4131  0.8437
 2803TIP3    H129824   2.624   5.175  16.557  1.2533  0.5665  0.0074
 2803TIP3    H229825   2.653   5.155  16.410 -1.2443  0.8653 -0.5670
 2804TIP3   OH229826   4.460   1.413  11.589 -0.2656 -0.7200  0.3013
 2804TIP3    H129827   4.548   1.418  11.553  0.6732  2.3698  2.5937
 2804TIP3    H229828   4.471   1.376  11.676 -1.0812  0.5480  0.9664
 2805TIP3   OH229829   3.922   0.506   6.101  0.3421  0.1425 -0.2028
 2805TIP3    H129830   3.897   0.414   6.092 -1.2455  0.6095 -0.8532
 2805TIP3    H229831   3.900   0.528   6.192  0.6604 -0.0850 -0.0669
 2806TIP3   OH229832   4.024   5.087  14.576  0.0348 -0.2064  0.4208
 2806TIP3    H129833   4.111   5.058  14.546 -0.5141 -2.5932  0.9381
 2806TIP3    H229834   3.990   5.139  14.503  1.9893  1.0372  0.3264
 2807TIP3   OH229835   0.670   2.157  16.227  0.6806 -0.2685  0.4614
 2807TIP3    H129836   0.632   2.233  16.271  0.1998 -0.7472  0.8834
 2807TIP3    H229837   0.683   2.093  16.296  1.6077 -0.3792  0.1993
 2808TIP3   OH229838   3.164   4.123   5.159 -0.2746  0.4684  0.2308
 2808TIP3    H129839   3.144   4.161   5.074  0.1838 -0.8219 -0.4849
 2808TIP3    H229840   3.170   4.198   5.218 -0.4851  1.3993 -0.8879
 2809TIP3   OH229841   1.533   1.028   1.904 -0.4951 -0.0287 -0.1613
 2809TIP3    H129842   1.443   1.053   1.925 -0.9358 -1.3896 -0.3885
 2809TIP3    H229843   1.525   0.966   1.832  0.5184 -1.3759  0.8444
 2810TIP3   OH229844   5.153   0.245   6.011  0.2033  1.1404  0.3122
 2810TIP3    H129845   5.194   0.181   6.070  1.8869 -0.8596 -2.7368
 2810TIP3    H229846   5.077   0.277   6.059  1.6082 -0.0519  3.6413
 2811TIP3   OH229847   2.856   2.454   5.595  0.2991 -0.1170  0.1099
 2811TIP3    H129848   2.782   2.506   5.564  0.0888  0.6611  1.7702
 2811TIP3    H229849   2.869   2.387   5.529  0.2294  1.7223 -1.8779
 2812TIP3   OH229850   3.714   3.549  15.578 -0.0300 -0.2582  0.0790
 2812TIP3    H129851   3.667   3.578  15.656  0.5746  0.6775  0.1124
 2812TIP3    H229852   3.726   3.455  15.590 -5.1300 -1.4650 -1.6265
 2813TIP3   OH229853   4.516   2.780   3.715 -0.3632  0.4795 -0.1443
 2813TIP3    H129854   4.586   2.737   3.665 -1.4338 -2.0248  0.3833
 2813TIP3    H229855   4.555   2.797   3.801 -0.2410 -0.4138 -0.0194
 2814TIP3   OH229856   3.614   0.603  16.827 -0.0167  0.5683 -0.2645
 2814TIP3    H129857   3.606   0.670  16.895 -1.3911 -0.5530  0.7178
 2814TIP3    H229858   3.527   0.564  16.819  0.3924 -0.1460 -1.8425
 2815TIP3   OH229859   4.346   2.698  10.426 -0.0071  0.0115 -0.1293
 2815TIP3    H129860   4.391   2.743  10.497 -0.4741 -2.1476  1.6658
 2815TIP3    H229861   4.391   2.613  10.419 -0.8974 -0.3873 -1.4516
 2816TIP3   OH229862   5.650   3.691  15.208 -0.7381 -0.6065  0.2374
 2816TIP3    H129863   5.610   3.604  15.206 -1.6213 -0.2229 -1.8488
 2816TIP3    H229864   5.735   3.678  15.165 -0.5347 -0.5713  0.6241
 2817TIP3   OH229865   5.725   2.870   1.680 -0.1382  0.1140 -0.2611
 2817TIP3    H129866   5.722   2.963   1.658 -1.5032 -0.0561 -0.9257
 2817TIP3    H229867   5.757   2.828   1.601  0.1289 -0.0135 -0.0845
 2818TIP3   OH229868   5.625   4.883   3.042 -0.1402  0.0060  0.3725
 2818TIP3    H129869   5.617   4.885   3.137  0.3367 -0.5485  0.4307
 2818TIP3    H229870   5.694   4.947   3.022  0.6232 -0.7438  0.5141
 2819TIP3   OH229871   5.483   0.900   0.565 -0.6863 -0.1606  0.9518
 2819TIP3    H129872   5.413   0.835   0.551 -1.2537  0.0049  2.7348
 2819TIP3    H229873   5.484   0.913   0.660  0.2006  1.6008  0.7312
 2820TIP3   OH229874   2.712   3.449   1.379 -0.0611  0.0328 -0.0953
 2820TIP3    H129875   2.785   3.509   1.370 -0.6750  0.7915 -0.1234
 2820TIP3    H229876   2.634   3.504   1.367 -0.7155 -0.3164  2.0531
 2821TIP3   OH229877   5.341   2.341  13.192 -0.7589 -0.0110 -0.0158
 2821TIP3    H129878   5.426   2.349  13.236 -0.8190  2.1180 -0.1624
 2821TIP3    H229879   5.363   2.339  13.099 -0.8521 -0.0346 -0.0372
 2822TIP3   OH229880   1.513   4.584   2.623 -0.4155 -0.1381 -0.3079
 2822TIP3    H129881   1.435   4.620   2.667 -0.4054  0.5293 -0.8198
 2822TIP3    H229882   1.530   4.502   2.669  0.2863  1.0612  1.7302
 2823TIP3   OH229883   1.853   0.448   3.995 -0.4860 -0.0032  0.3075
 2823TIP3    H129884   1.773   0.407   3.962 -0.9292  0.9622  0.1455
 2823TIP3    H229885   1.824   0.498   4.072 -0.6468  2.6993 -1.3525
 2824TIP3   OH229886   3.854   3.630  16.040 -0.5342 -0.2893  0.4555
 2824TIP3    H129887   3.829   3.566  16.107  0.8927 -1.5024 -0.1142
 2824TIP3    H229888   3.919   3.685  16.082 -3.3925  2.4133  1.7096
 2825TIP3   OH229889   3.514   6.010  15.590 -0.5370 -0.0848 -0.1272
 2825TIP3    H129890   3.498   5.943  15.524 -1.1470 -0.6330  0.5707
 2825TIP3    H229891   3.503   5.965  15.673 -0.8889  0.8668  0.3532
 2826TIP3   OH229892   3.359   6.617   0.990  0.0064  0.1423 -0.1015
 2826TIP3    H129893   3.293   6.553   1.019 -1.1441  1.5068  0.3856
 2826TIP3    H229894   3.389   6.583   0.906 -0.7226 -0.9332  0.0457
 2827TIP3   OH229895   2.906   2.906   0.227  0.3853 -0.0698  0.5884
 2827TIP3    H129896   2.938   2.826   0.270  0.9475 -0.7547 -1.0318
 2827TIP3    H229897   2.933   2.897   0.136 -0.2340  1.6255  0.1984
 2828TIP3   OH229898   0.873   1.146  12.589  0.1429 -0.1135 -0.4853
 2828TIP3    H129899   0.807   1.111  12.530 -0.6075  1.4809 -0.6604
 2828TIP3    H229900   0.940   1.078  12.595 -0.9564 -1.2893 -1.2184
 2829TIP3   OH229901   2.220   1.405   5.328  0.3198  0.1995  0.0921
 2829TIP3    H129902   2.234   1.448   5.413  0.8086  0.7620 -0.2611
 2829TIP3    H229903   2.275   1.455   5.267 -0.1976 -0.0577 -0.5958
 2830TIP3   OH229904   1.117   3.748   5.452 -0.4557 -0.4114  0.2030
 2830TIP3    H129905   1.121   3.735   5.546  1.2599  0.7119  0.3317
 2830TIP3    H229906   1.023   3.751   5.432 -0.8816  0.8960  2.1031
 2831TIP3   OH229907   4.087   1.328   4.074 -0.1182 -0.3170  0.2067
 2831TIP3    H129908   4.089   1.248   4.023  2.6576  0.4994 -1.1794
 2831TIP3    H229909   4.061   1.301   4.162  0.6084 -2.6981 -0.2554
 2832TIP3   OH229910   0.548   5.706   6.325  0.3836 -0.1201 -0.4125
 2832TIP3    H129911   0.542   5.621   6.280  0.6326  0.2060 -1.0698
 2832TIP3    H229912   0.493   5.695   6.403  1.6539 -1.4051  0.3525
 2833TIP3   OH229913   1.350   4.552  13.788 -0.4438  0.0878 -0.4208
 2833TIP3    H129914   1.278   4.538  13.726 -0.0510 -1.0394 -0.6521
 2833TIP3    H229915   1.420   4.496  13.756 -0.2857 -0.6504  1.1200
 2834TIP3   OH229916   1.184   0.951  16.624  0.0783 -0.7898  0.2689
 2834TIP3    H129917   1.240   0.907  16.688  2.3329 -0.6202 -1.4447
 2834TIP3    H229918   1.117   0.887  16.602 -0.2753 -1.1333  2.1689
 2835TIP3   OH229919   3.975   2.835   5.165 -0.4601  0.2488  0.3021
 2835TIP3    H129920   4.056   2.804   5.124 -0.7368  0.6533 -0.5946
 2835TIP3    H229921   3.964   2.780   5.242 -0.8060 -1.7316 -1.0718
 2836TIP3   OH229922   1.913   6.470   4.767  0.2000  0.1706  0.5235
 2836TIP3    H129923   1.979   6.475   4.836  0.9115 -0.2878 -0.1104
 2836TIP3    H229924   1.960   6.437   4.690 -0.8923 -0.7323  0.2138
 2837TIP3   OH229925   4.855   6.453   1.052  0.0220 -0.1076  0.3073
 2837TIP3    H129926   4.794   6.466   1.124 -0.8060  1.4080 -0.6102
 2837TIP3    H229927   4.806   6.399   0.989  0.5922 -1.0813  0.6804
 2838TIP3   OH229928   1.312   3.295  14.902  0.0160 -0.1953 -0.2155
 2838TIP3    H129929   1.252   3.234  14.859  0.5919 -0.0852 -1.1942
 2838TIP3    H229930   1.387   3.241  14.927 -0.0240 -0.1265  0.0576
 2839TIP3   OH229931   2.116   5.508  11.652 -0.6633  0.3879  0.2688
 2839TIP3    H129932   2.171   5.431  11.668  1.4912  1.6749 -0.5167
 2839TIP3    H229933   2.027   5.477  11.668  0.1930 -2.0051  0.8996
 2840TIP3   OH229934   6.270   3.847  15.067 -0.0074  0.0198 -0.4831
 2840TIP3    H129935   6.311   3.764  15.091 -0.0844 -0.0454 -0.5812
 2840TIP3    H229936   6.316   3.912  15.122 -0.9910 -0.2706  0.7368
 2841TIP3   OH229937   2.643   2.870   4.411  0.8270 -0.1859  0.3072
 2841TIP3    H129938   2.622   2.776   4.407  2.0987 -0.6458  2.5023
 2841TIP3    H229939   2.737   2.874   4.395  0.9461  0.6041  1.1277
 2842TIP3   OH229940   5.729   2.541   3.044  0.1969  1.0018  0.2221
 2842TIP3    H129941   5.819   2.553   3.015 -0.6643  1.0565 -2.7298
 2842TIP3    H229942   5.695   2.630   3.053  0.2685  0.9734  0.7966
 2843TIP3   OH229943   2.031   2.833  13.791 -0.0604 -0.5570 -0.0615
 2843TIP3    H129944   1.993   2.852  13.877  1.5487 -1.0774  0.7977
 2843TIP3    H229945   1.978   2.759  13.758 -1.5402  0.4927 -0.1472
 2844TIP3   OH229946   1.512   4.515  14.617 -0.1692 -0.7543  0.5744
 2844TIP3    H129947   1.491   4.595  14.570  1.4562  1.1085  2.7557
 2844TIP3    H229948   1.569   4.466  14.558 -1.4013 -0.4714 -0.8942
 2845TIP3   OH229949   1.166   3.981  10.524  0.2801  0.1281 -0.0122
 2845TIP3    H129950   1.124   3.920  10.464  2.7020 -0.4835 -1.1858
 2845TIP3    H229951   1.206   3.925  10.591  0.3568  0.6053  0.3483
 2846TIP3   OH229952   4.291   4.953   2.005  0.4809  0.3605  0.4230
 2846TIP3    H129953   4.344   4.896   2.061  2.2051  1.0476 -0.4343
 2846TIP3    H229954   4.354   4.999   1.950 -1.0976  0.1316 -1.7217
 2847TIP3   OH229955   4.056   6.034  15.328  0.1928  0.1147 -0.6314
 2847TIP3    H129956   4.063   5.940  15.347  1.1552  0.5263  1.2513
 2847TIP3    H229957   3.990   6.066  15.389  1.0981  0.9479 -0.0601
 2848TIP3   OH229958   1.360   2.164  12.571  0.0053  0.2062 -0.2402
 2848TIP3    H129959   1.290   2.219  12.536 -1.3320 -1.8605 -1.0499
 2848TIP3    H229960   1.346   2.079  12.530  2.7388 -0.4499 -0.0391
 2849TIP3   OH229961   6.773   6.090   5.405  0.1740 -0.0041  0.1104
 2849TIP3    H129962   6.865   6.117   5.418  0.3175  0.3092 -1.4469
 2849TIP3    H229963   6.725   6.173   5.399 -0.2053 -0.1686  0.7232
 2850TIP3   OH229964   0.621   5.252  13.499  0.2779 -0.3382  0.1188
 2850TIP3    H129965   0.654   5.223  13.584  0.1605 -0.7038  0.0445
 2850TIP3    H229966   0.525   5.247  13.508  0.2010  1.4722  0.5957
 2851TIP3   OH229967   5.615   2.194  15.149  0.1767 -0.0795  0.0522
 2851TIP3    H129968   5.537   2.179  15.202  0.5088  0.1813  0.6293
 2851TIP3    H229969   5.680   2.132  15.183  1.1815  1.7182  1.6514
 2852TIP3   OH229970   6.660   0.273   1.864 -0.0731 -0.1535  0.3490
 2852TIP3    H129971   6.618   0.208   1.807 -0.0024 -0.7713  0.9926
 2852TIP3    H229972   6.619   0.356   1.839  0.8970 -0.1858 -1.5116
 2853TIP3   OH229973   1.325   1.099   3.528  0.3270  0.0692  0.4078
 2853TIP3    H129974   1.324   1.190   3.498  1.1940  0.4624  1.5501
 2853TIP3    H229975   1.284   1.101   3.614  0.1182 -0.6806  0.3397
 2854TIP3   OH229976   6.430   4.632  16.447  0.0948 -0.0643 -0.1754
 2854TIP3    H129977   6.439   4.727  16.441 -0.7356  0.1489  1.4456
 2854TIP3    H229978   6.518   4.598  16.429  0.6747  1.0858  0.3999
 2855TIP3   OH229979   1.246   5.848  11.498  0.4198  0.2670 -0.1556
 2855TIP3    H129980   1.260   5.896  11.417 -0.1164  0.5554 -0.0848
 2855TIP3    H229981   1.216   5.761  11.469 -1.8318  1.0197 -0.2848
 2856TIP3   OH229982   6.175   5.997   5.317 -0.0002 -0.8010  0.2052
 2856TIP3    H129983   6.177   5.905   5.344 -0.0328 -0.9667 -0.3305
 2856TIP3    H229984   6.245   6.039   5.367  1.2614 -1.5175 -0.8765
 2857TIP3   OH229985   6.004   3.172  15.091 -0.6656 -0.1249 -0.4009
 2857TIP3    H129986   5.938   3.224  15.137 -0.6870 -0.2981 -0.2370
 2857TIP3    H229987   6.052   3.126  15.160 -0.6022 -0.2710 -0.5419
 2858TIP3   OH229988   4.119   4.187  14.952 -0.4627 -0.3546  0.1039
 2858TIP3    H129989   4.044   4.206  14.896  0.6077 -0.0293 -1.2959
 2858TIP3    H229990   4.177   4.134  14.896  2.0900  2.5793 -0.3051
 2859TIP3   OH229991   0.501   3.243   5.081 -0.6448 -0.0285  0.1384
 2859TIP3    H129992   0.575   3.289   5.120 -0.4495  1.4714 -1.8243
 2859TIP3    H229993   0.428   3.262   5.140  0.3683 -1.1491  1.8550
 2860TIP3   OH229994   5.487   5.327   3.635 -0.5312 -0.7712 -0.3167
 2860TIP3    H129995   5.509   5.370   3.718 -0.8308  0.5689 -0.9031
 2860TIP3    H229996   5.422   5.385   3.595 -1.2446 -1.9948 -0.9738
 2861TIP3   OH229997   6.223   2.301   4.638 -0.0005 -0.1092  0.2994
 2861TIP3    H129998   6.170   2.303   4.719 -0.2880 -2.0549  0.2030
 2861TIP3    H229999   6.160   2.320   4.568  0.5245  3.2124  0.5409
 2862TIP3   OH230000   6.258   2.636   5.717  0.0019  0.0521 -0.4079
 2862TIP3    H130001   6.196   2.566   5.697  0.5926 -0.4887 -0.4128
 2862TIP3    H230002   6.334   2.616   5.662  0.3423  0.4523 -0.0867
 2863TIP3   OH230003   5.030   1.229  12.557  0.7317  0.7872 -0.3737
 2863TIP3    H130004   4.971   1.287  12.510 -0.0495 -0.3425 -0.8440
 2863TIP3    H230005   4.985   1.211  12.640  0.8447  0.6502 -0.3416
 2864TIP3   OH230006   2.625   0.611  14.793  0.1957 -0.0420  0.4529
 2864TIP3    H130007   2.625   0.706  14.799  0.1323  0.0092 -0.2743
 2864TIP3    H230008   2.534   0.587  14.778  0.3578 -0.1287 -0.4754
 2865TIP3   OH230009   0.087   2.972  15.821  0.2068  0.1737  0.4419
 2865TIP3    H130010   0.181   2.963  15.838  0.4205 -1.0473 -1.2066
 2865TIP3    H230011   0.050   2.886  15.841 -1.2222  1.4480  4.3175
 2866TIP3   OH230012   6.120   6.197   2.345  0.4313 -0.2812 -0.5497
 2866TIP3    H130013   6.060   6.151   2.286 -0.8087  1.6692 -0.8767
 2866TIP3    H230014   6.154   6.128   2.402 -2.0242 -1.5114 -0.4434
 2867TIP3   OH230015   0.486   3.686  15.964 -0.3148 -0.2074 -0.3463
 2867TIP3    H130016   0.493   3.595  15.993  0.6723 -0.2493 -0.6968
 2867TIP3    H230017   0.493   3.737  16.045 -0.9594 -0.4380 -0.1376
 2868TIP3   OH230018   4.426   1.775  16.734  0.5822 -0.3554  0.5556
 2868TIP3    H130019   4.432   1.746  16.825  1.6018 -1.0523  0.2847
 2868TIP3    H230020   4.484   1.852  16.731  0.5619 -0.3430  0.4928
 2869TIP3   OH230021   5.922   0.245   1.827  0.4272  0.2483 -0.3929
 2869TIP3    H130022   5.936   0.160   1.869  0.1801  0.7307  0.6928
 2869TIP3    H230023   5.827   0.258   1.831  0.5674  1.1191  0.5826
 2870TIP3   OH230024   6.682   5.059   0.265  0.3419  0.1492  0.2935
 2870TIP3    H130025   6.711   5.082   0.177 -0.8751  0.6190  0.0072
 2870TIP3    H230026   6.642   5.138   0.299 -2.7114 -1.0574 -0.1974
 2871TIP3   OH230027   5.801   2.465  13.277 -0.1301 -0.1647 -0.4779
 2871TIP3    H130028   5.800   2.554  13.313 -1.7862 -0.1769 -0.4287
 2871TIP3    H230029   5.738   2.468  13.205  0.0729 -1.2192 -0.7101
 2872TIP3   OH230030   5.476   6.093  11.269 -0.2978  0.2207 -0.5136
 2872TIP3    H130031   5.433   6.066  11.188  1.1827 -0.0687 -1.2347
 2872TIP3    H230032   5.518   6.176  11.248 -1.2298  0.9689  0.4479
 2873TIP3   OH230033   1.748   5.190  14.393  0.2779 -0.0758  0.7699
 2873TIP3    H130034   1.714   5.103  14.415 -0.0532  0.5981  3.2501
 2873TIP3    H230035   1.725   5.203  14.301 -1.5043 -1.7692  0.9227
 2874TIP3   OH230036   4.177   6.586  14.899  0.5771 -0.5029  0.2223
 2874TIP3    H130037   4.113   6.567  14.968  0.5832 -1.4310 -0.0257
 2874TIP3    H230038   4.247   6.523  14.912  1.4530  0.4865  0.4698
 2875TIP3   OH230039   1.323   2.307   1.066  0.4172 -0.2174  0.0596
 2875TIP3    H130040   1.273   2.341   1.140  0.5642  0.6006 -0.2038
 2875TIP3    H230041   1.302   2.367   0.994 -0.2057 -1.3519 -0.7360
 2876TIP3   OH230042   4.759   6.408   5.119 -0.3897  0.1353  0.1850
 2876TIP3    H130043   4.833   6.361   5.157 -0.4849 -0.8239 -0.7744
 2876TIP3    H230044   4.751   6.487   5.172 -0.0453 -0.7859  1.6568
 2877TIP3   OH230045   6.676   1.447  13.687  0.3737 -0.1563 -0.5228
 2877TIP3    H130046   6.729   1.393  13.628 -0.8772 -1.1026 -0.8122
 2877TIP3    H230047   6.736   1.471  13.757  1.4265 -0.4663 -1.2840
 2878TIP3   OH230048   5.671   3.697   4.656 -0.1913 -0.3710 -0.2139
 2878TIP3    H130049   5.706   3.642   4.585  1.1305 -1.2723  1.0583
 2878TIP3    H230050   5.631   3.772   4.612  2.2884  0.0893 -1.8783
 2879TIP3   OH230051   4.664   4.032  13.449  0.0414  0.2591 -0.2409
 2879TIP3    H130052   4.574   4.026  13.418  0.5392  0.9055 -1.9285
 2879TIP3    H230053   4.676   4.125  13.466 -0.0291 -0.0044  1.4239
 2880TIP3   OH230054   3.721   0.021  17.195  0.0412  0.0386 -0.4795
 2880TIP3    H130055   3.763   0.107  17.189 -1.3474  0.7780 -0.1674
 2880TIP3    H230056   3.628   0.041  17.209  0.0024 -1.4645  2.1517
 2881TIP3   OH230057   2.909   1.725   0.008  0.0899 -0.0306  0.3462
 2881TIP3    H130058   3.003   1.708   0.017 -0.1219 -1.4586  0.0662
 2881TIP3    H230059   2.904   1.813  -0.031  1.2981  0.0383  0.3218
 2882TIP3   OH230060   5.408   5.285   5.709 -0.2213 -0.5095  0.0041
 2882TIP3    H130061   5.384   5.289   5.802  0.3649 -1.2017  0.1951
 2882TIP3    H230062   5.460   5.363   5.694  0.0287 -0.6073  0.3625
 2883TIP3   OH230063   1.541   4.699  14.053  0.0275  0.5525  0.6298
 2883TIP3    H130064   1.504   4.643  14.121 -1.3428  1.6691  0.8560
 2883TIP3    H230065   1.586   4.639  13.994 -1.2352 -0.7625  0.9457
 2884TIP3   OH230066   2.179   4.830  15.800  0.0017  0.7492 -0.4365
 2884TIP3    H130067   2.204   4.919  15.775 -0.7683  1.4864  1.2425
 2884TIP3    H230068   2.262   4.785  15.816  0.4079  2.0907  1.6174
 2885TIP3   OH230069   4.146   3.349  15.153 -0.3684 -0.4868 -0.2139
 2885TIP3    H130070   4.213   3.355  15.085  0.8918 -1.1843  0.9245
 2885TIP3    H230071   4.168   3.419  15.215 -1.5839  0.2324 -0.5612
 2886TIP3   OH230072   6.366   0.529   5.612  0.0559  0.5905  0.0954
 2886TIP3    H130073   6.376   0.454   5.671 -1.8763 -0.6314 -1.0116
 2886TIP3    H230074   6.446   0.529   5.560  0.6736  0.1468  1.0225
 2887TIP3   OH230075   0.870   2.842  13.277 -0.5292 -0.2172 -0.1678
 2887TIP3    H130076   0.926   2.767  13.257  0.8392  0.7806 -0.1686
 2887TIP3    H230077   0.842   2.874  13.191  1.5634  1.2302 -0.3795
 2888TIP3   OH230078   3.290   0.067   1.743  0.2635 -0.2226 -0.7167
 2888TIP3    H130079   3.263   0.004   1.809  1.8542  0.3089  0.4936
 2888TIP3    H230080   3.208   0.095   1.701 -0.7896 -0.5129  1.0699
 2889TIP3   OH230081   0.060   3.749   0.965 -0.4404  0.2602 -0.2994
 2889TIP3    H130082  -0.018   3.763   0.911 -0.9313 -0.0951  0.2948
 2889TIP3    H230083   0.033   3.682   1.028  0.8448 -1.0904 -1.1071
 2890TIP3   OH230084   6.041   6.739  13.544  0.1362 -0.1441 -0.0878
 2890TIP3    H130085   6.133   6.715  13.531 -0.0353 -1.1367  0.4433
 2890TIP3    H230086   6.015   6.695  13.625 -0.5192  0.9887  0.3497
 2891TIP3   OH230087   2.606   5.490   0.276 -0.2830  0.0723 -0.2932
 2891TIP3    H130088   2.634   5.572   0.318  0.1556 -0.1822 -0.0733
 2891TIP3    H230089   2.534   5.515   0.219 -1.5168  0.2887  1.2906
 2892TIP3   OH230090   0.936   5.318   2.826  1.0444  0.1538 -0.0093
 2892TIP3    H130091   0.939   5.257   2.900  1.5754 -1.2032 -1.0987
 2892TIP3    H230092   0.860   5.289   2.775  0.8619  0.8927 -0.1670
 2893TIP3   OH230093   1.735   3.354   1.237  0.1843 -0.4071  0.7596
 2893TIP3    H130094   1.780   3.346   1.153 -0.7011  0.1767  0.2107
 2893TIP3    H230095   1.725   3.448   1.250  1.4914 -0.4235  2.1853
 2894TIP3   OH230096   1.405   5.726  14.055  0.1918 -0.0510 -0.3040
 2894TIP3    H130097   1.366   5.773  13.982 -2.0269 -0.7142  0.3771
 2894TIP3    H230098   1.445   5.794  14.109 -3.6919  1.3817  1.1224
 2895TIP3   OH230099   3.402   3.672   3.236  0.3492 -0.5691 -0.2224
 2895TIP3    H130100   3.326   3.711   3.193  0.6847 -0.9037 -1.1261
 2895TIP3    H230101   3.463   3.653   3.166  0.6648 -1.6762  0.3312
 2896TIP3   OH230102   5.884   4.605   2.060 -0.5592 -0.2305  0.2992
 2896TIP3    H130103   5.936   4.524   2.067 -0.9967 -0.3966  2.2277
 2896TIP3    H230104   5.806   4.579   2.012  0.7790 -0.1274 -2.0841
 2897TIP3   OH230105   1.575   6.019  12.808  0.0192  0.3153 -0.6555
 2897TIP3    H130106   1.662   6.060  12.817  0.5091 -0.7125 -0.5967
 2897TIP3    H230107   1.532   6.037  12.892 -0.4977  2.2838 -1.2758
 2898TIP3   OH230108   4.033   5.601   0.677 -0.2500  0.1464 -0.5877
 2898TIP3    H130109   4.007   5.510   0.689  2.8026 -0.6351  1.2363
 2898TIP3    H230110   3.969   5.651   0.728  0.1027 -1.3556  1.4533
 2899TIP3   OH230111   1.814   6.226  15.156  0.0561 -0.7038  0.1591
 2899TIP3    H130112   1.891   6.282  15.171  1.1921 -2.2015  0.2127
 2899TIP3    H230113   1.739   6.285  15.165  1.1076  0.4577  1.9948
 2900TIP3   OH230114   1.467   0.053   0.697  0.8220 -0.2948 -0.2588
 2900TIP3    H130115   1.432   0.077   0.783  0.5429  0.0860 -0.4737
 2900TIP3    H230116   1.405   0.092   0.635  0.2179 -1.7918 -0.6304
 2901TIP3   OH230117   1.878   5.206   0.047  0.2197  0.0398  0.6411
 2901TIP3    H130118   1.969   5.217   0.076  0.4461 -2.6895  1.3190
 2901TIP3    H230119   1.883   5.140  -0.022 -1.0391  1.7269 -1.1656
 2902TIP3   OH230120   6.103   6.053   0.074 -0.1034  0.5567  0.2901
 2902TIP3    H130121   6.184   6.082   0.114 -0.2872  3.1342 -0.9952
 2902TIP3    H230122   6.130   5.998   0.000  0.5174  1.5951 -0.2760
 2903TIP3   OH230123   3.546   3.727  14.265 -0.1689 -0.0410 -0.2539
 2903TIP3    H130124   3.593   3.645  14.272 -1.4700 -0.9900 -1.7994
 2903TIP3    H230125   3.475   3.720  14.329  1.2682  1.0785  1.5503
 2904TIP3   OH230126   2.930   4.150   0.755  0.3085  0.0942  0.5213
 2904TIP3    H130127   3.015   4.144   0.798  1.6330 -3.2933 -2.1164
 2904TIP3    H230128   2.940   4.223   0.694  1.7233 -0.7606 -0.3426
 2905TIP3   OH230129   0.761   5.224  16.873 -0.3380  0.1945 -0.1250
 2905TIP3    H130130   0.843   5.231  16.826 -0.5918  0.9291 -0.4750
 2905TIP3    H230131   0.743   5.313  16.904 -1.2410  0.1426 -0.4716
 2906TIP3   OH230132   4.457   4.572   3.546 -0.4137 -0.4213 -0.2872
 2906TIP3    H130133   4.402   4.636   3.499 -1.0998  0.1275  1.1856
 2906TIP3    H230134   4.516   4.537   3.479 -1.2009  0.4792 -1.4983
 2907TIP3   OH230135   0.485   3.768   4.888  0.5854  0.1793  0.0287
 2907TIP3    H130136   0.521   3.766   4.977 -0.9263  1.5758  0.7332
 2907TIP3    H230137   0.391   3.751   4.900  0.3469  0.4953 -1.2897
 2908TIP3   OH230138   3.494   6.056  16.649 -0.1728  0.8166 -0.0358
 2908TIP3    H130139   3.582   6.051  16.687 -0.3651  0.9475  0.4340
 2908TIP3    H230140   3.447   5.983  16.688 -0.0626  0.3048 -0.8495
 2909TIP3   OH230141   5.459   1.638  15.564  0.0173 -0.3682  0.2702
 2909TIP3    H130142   5.516   1.644  15.487 -0.0217 -0.9950  0.1916
 2909TIP3    H230143   5.490   1.561  15.611  0.6314  0.5108  1.3730
 2910TIP3   OH230144   3.012   0.279   3.888  0.1701  0.2931 -0.1993
 2910TIP3    H130145   2.994   0.232   3.969 -1.2304 -1.6296 -1.5581
 2910TIP3    H230146   3.067   0.353   3.916  1.5441 -1.4702  2.1937
 2911TIP3   OH230147   2.624   2.951  14.583  0.1198 -0.0591 -0.1117
 2911TIP3    H130148   2.668   2.874  14.619  1.2235  0.7293  0.2818
 2911TIP3    H230149   2.687   3.022  14.594  0.1647  0.4287 -2.7709
 2912TIP3   OH230150   5.237   0.737   0.669 -0.3631  0.1515  0.1251
 2912TIP3    H130151   5.179   0.795   0.718 -0.5363  1.0230 -1.0790
 2912TIP3    H230152   5.296   0.702   0.735 -0.6147  1.2589  0.9758
 2913TIP3   OH230153   1.690   0.857  14.509  0.4247 -0.3506 -0.0010
 2913TIP3    H130154   1.645   0.879  14.591  1.2170  1.3552  0.0300
 2913TIP3    H230155   1.628   0.883  14.440  1.1407  1.6494  0.0463
 2914TIP3   OH230156   6.011   0.443  17.134  0.3618 -0.3454  0.3261
 2914TIP3    H130157   6.099   0.414  17.158  0.8024  1.4386  1.0445
 2914TIP3    H230158   6.025   0.527  17.090 -1.0068  0.2939  1.0397
 2915TIP3   OH230159   3.388   3.619   0.522  0.2687  0.0763 -0.0458
 2915TIP3    H130160   3.389   3.553   0.592  2.7442  0.2588  0.1568
 2915TIP3    H230161   3.429   3.576   0.447  0.6300  0.9297 -0.3525
 2916TIP3   OH230162   3.606   3.873  16.326 -0.1785  0.3418  0.4294
 2916TIP3    H130163   3.688   3.827  16.342  0.5880  1.8476  0.8951
 2916TIP3    H230164   3.575   3.837  16.242  0.8174 -0.4000  0.3571
 2917TIP3   OH230165   5.963   2.503   5.002 -0.0251 -0.5583  0.2972
 2917TIP3    H130166   5.953   2.409   4.988 -0.3789 -0.6146  0.8852
 2917TIP3    H230167   5.873   2.537   5.004  0.1028 -0.1957  0.0129
 2918TIP3   OH230168   0.714   5.051  14.196 -0.2628 -0.0627  0.2890
 2918TIP3    H130169   0.681   5.140  14.188  0.4660  0.1006 -1.2938
 2918TIP3    H230170   0.804   5.061  14.227 -0.5091 -0.3217  1.1257
 2919TIP3   OH230171   5.099   4.454   3.890 -0.3467 -0.2598 -0.2193
 2919TIP3    H130172   5.012   4.415   3.890  0.0016 -1.0589 -1.0824
 2919TIP3    H230173   5.130   4.445   3.800  1.3064 -1.4959  0.4274
 2920TIP3   OH230174   0.129   6.207   1.584  0.7963 -0.5343  0.4970
 2920TIP3    H130175   0.160   6.134   1.531  2.6918 -1.1153  2.2788
 2920TIP3    H230176   0.202   6.269   1.586  0.7700 -0.4991  2.3150
 2921TIP3   OH230177   2.032   0.333   3.657  0.1564 -0.1753 -0.4027
 2921TIP3    H130178   2.041   0.239   3.648 -1.8948 -0.2613 -2.3550
 2921TIP3    H230179   1.947   0.346   3.700  0.5917  0.7890  0.2217
 2922TIP3   OH230180   0.407   2.598  16.398 -0.4498 -0.2520 -0.1869
 2922TIP3    H130181   0.343   2.667  16.379 -1.6033 -1.3716 -0.5495
 2922TIP3    H230182   0.416   2.599  16.493  1.0277  1.6419 -0.2888
 2923TIP3   OH230183   6.410   5.514  15.668 -0.1169  0.1932  0.0679
 2923TIP3    H130184   6.328   5.465  15.664 -1.6076  2.4096  1.4501
 2923TIP3    H230185   6.413   5.563  15.586  0.3102 -0.5600 -0.3784
 2924TIP3   OH230186   3.089   3.830   5.895  0.7183 -0.3570  0.0359
 2924TIP3    H130187   3.115   3.749   5.939 -1.5452 -0.2556  1.7532
 2924TIP3    H230188   3.085   3.895   5.965 -2.4338 -0.0261 -0.3132
 2925TIP3   OH230189   2.535   2.686   0.855 -0.1830 -0.1528 -0.1249
 2925TIP3    H130190   2.498   2.666   0.769  1.2491 -0.6767 -0.6498
 2925TIP3    H230191   2.577   2.605   0.882 -0.5733  0.0317  1.0584
 2926TIP3   OH230192   6.511   4.297  13.800 -0.6003 -0.2761 -0.0845
 2926TIP3    H130193   6.534   4.216  13.755  0.1443 -0.6375  0.8928
 2926TIP3    H230194   6.449   4.270  13.868 -3.0577  0.5084 -1.8881
 2927TIP3   OH230195   6.762   4.755   3.267  0.3044 -0.4546 -0.4666
 2927TIP3    H130196   6.825   4.779   3.335 -0.1172  0.9574 -0.5340
 2927TIP3    H230197   6.713   4.682   3.304  0.3842  0.0044  0.5816
 2928TIP3   OH230198   0.669   3.249  12.030 -0.2264 -0.6669 -0.1962
 2928TIP3    H130199   0.687   3.236  11.938 -1.1941  2.5360 -0.9725
 2928TIP3    H230200   0.743   3.300  12.063 -0.9529  0.1878  0.1748
 2929TIP3   OH230201   1.833   6.430  12.932 -0.4874  0.1912  0.2470
 2929TIP3    H130202   1.753   6.483  12.940 -2.5639 -2.3588 -1.7758
 2929TIP3    H230203   1.891   6.484  12.879 -1.4657  1.5234  0.4631
 2930TIP3   OH230204   2.581   0.607   5.335 -0.1159  0.1466  0.3774
 2930TIP3    H130205   2.532   0.622   5.417 -0.1266 -0.2782  0.4470
 2930TIP3    H230206   2.671   0.593   5.364 -0.1722 -0.3025  0.3394
 2931TIP3   OH230207   5.688   2.277  11.303 -0.1379 -0.0421  0.2519
 2931TIP3    H130208   5.645   2.243  11.381 -1.5952  1.0724 -0.0100
 2931TIP3    H230209   5.711   2.200  11.252 -0.9383 -0.7128  0.8892
 2932TIP3   OH230210   5.254   6.060  16.404 -0.2477 -0.2331 -0.3826
 2932TIP3    H130211   5.346   6.076  16.426 -0.2790  0.2717 -0.5934
 2932TIP3    H230212   5.213   6.146  16.410 -0.7426 -0.4872 -0.1297
 2933TIP3   OH230213   6.034   5.309  13.073 -0.2266 -0.0619 -0.5298
 2933TIP3    H130214   5.940   5.323  13.079 -0.3700 -0.9421 -0.6506
 2933TIP3    H230215   6.062   5.291  13.163 -0.6356 -2.5051 -0.8266
 2934TIP3   OH230216   1.031   0.753   0.812  0.0722 -0.2909 -0.3225
 2934TIP3    H130217   1.110   0.787   0.770 -1.2535  2.5804 -0.7140
 2934TIP3    H230218   1.060   0.727   0.899  1.8869 -1.6974 -1.2672
 2935TIP3   OH230219   5.016   1.343   3.439  0.0118  0.0921 -0.2339
 2935TIP3    H130220   5.050   1.383   3.359  0.7427 -2.1298 -1.1252
 2935TIP3    H230221   5.091   1.342   3.499 -0.0302  0.1406 -0.1803
 2936TIP3   OH230222   1.277   3.928   3.988  0.1679  0.5906 -0.1063
 2936TIP3    H130223   1.319   3.948   4.071  0.3269  0.4914 -0.1617
 2936TIP3    H230224   1.332   3.860   3.949 -1.1856 -1.0718  0.7530
 2937TIP3   OH230225   2.081   0.606  12.864  0.1294  0.5922  0.2272
 2937TIP3    H130226   2.156   0.636  12.813 -0.8465  1.3747 -0.8106
 2937TIP3    H230227   2.012   0.669  12.844 -1.0668 -0.6006  0.4359
 2938TIP3   OH230228   0.802   5.862   4.068  0.1188 -0.0572  0.1225
 2938TIP3    H130229   0.889   5.882   4.103 -0.5032  1.7823  0.7599
 2938TIP3    H230230   0.816   5.792   4.005  2.0844  0.3012  0.1130
 2939TIP3   OH230231   6.454   3.468   3.656 -0.2778 -0.4078  0.4900
 2939TIP3    H130232   6.386   3.534   3.668  0.4061  0.2489  0.8637
 2939TIP3    H230233   6.534   3.518   3.638  0.2265 -1.1348  0.6317
 2940TIP3   OH230234   1.605   3.723  13.813  0.3315 -0.8026  0.2334
 2940TIP3    H130235   1.589   3.811  13.780 -4.9037 -0.8530  1.7143
 2940TIP3    H230236   1.655   3.736  13.894  0.1361  0.7309  0.1360
 2941TIP3   OH230237   4.417   2.402  16.313 -0.3258  0.2774 -0.9848
 2941TIP3    H130238   4.478   2.476  16.308  2.6853 -1.8316  0.8607
 2941TIP3    H230239   4.407   2.372  16.223  1.2400  0.8235 -1.3642
 2942TIP3   OH230240   3.617   5.268   2.836 -0.7240  0.0128 -0.3313
 2942TIP3    H130241   3.568   5.315   2.904 -1.6384 -2.3683  0.7860
 2942TIP3    H230242   3.642   5.335   2.773 -0.1258  2.3018  2.1622
 2943TIP3   OH230243   2.444   1.835   1.223  0.6280 -0.4070  0.0430
 2943TIP3    H130244   2.475   1.925   1.235 -0.3306  0.0104 -0.4426
 2943TIP3    H230245   2.349   1.842   1.233  0.4480 -1.1835 -1.0669
 2944TIP3   OH230246   4.554   1.659  14.466 -0.0573  0.0443 -0.7248
 2944TIP3    H130247   4.496   1.636  14.539  0.6148  1.2230  0.2219
 2944TIP3    H230248   4.580   1.575  14.429  1.6126 -0.7858  2.0227
 2945TIP3   OH230249   1.610   3.199  12.203  0.0201 -0.0954 -0.6727
 2945TIP3    H130250   1.635   3.124  12.257 -1.2291 -1.0194 -1.3427
 2945TIP3    H230251   1.693   3.241  12.182  0.5334  1.0746  2.9532
 2946TIP3   OH230252   3.273   6.319  15.702  0.2635 -0.1613 -0.4753
 2946TIP3    H130253   3.245   6.314  15.610  0.9191  0.0223 -0.6868
 2946TIP3    H230254   3.328   6.397  15.705  2.4644 -1.6512 -0.5141
 2947TIP3   OH230255   6.182   3.697   4.765 -0.6098  0.1079 -0.4963
 2947TIP3    H130256   6.267   3.665   4.735 -0.4475  1.2369 -1.3294
 2947TIP3    H230257   6.119   3.632   4.732  0.0501 -2.0955  2.2339
 2948TIP3   OH230258   1.987   6.066   4.871  0.0139 -0.1371  0.0334
 2948TIP3    H130259   2.015   6.034   4.786  2.6163  0.5705  0.5385
 2948TIP3    H230260   2.063   6.054   4.928 -1.2387  0.5276  1.9556
 2949TIP3   OH230261   6.202   5.638  15.016 -0.1806 -0.3141  0.0944
 2949TIP3    H130262   6.264   5.581  15.062  0.0963 -1.0030 -1.0895
 2949TIP3    H230263   6.118   5.593  15.024 -0.0125 -0.7796 -0.5998
 2950TIP3   OH230264   1.338   1.812  16.841  0.1750  0.1375 -0.7211
 2950TIP3    H130265   1.406   1.853  16.894  0.1907 -0.4882 -0.2524
 2950TIP3    H230266   1.325   1.726  16.880 -1.1467  0.3763 -0.5894
 2951TIP3   OH230267   1.588   3.572  11.687  0.4055 -0.2590 -0.2088
 2951TIP3    H130268   1.541   3.605  11.611 -1.1348  0.5238  1.0236
 2951TIP3    H230269   1.586   3.476  11.678 -2.7598 -0.3507  0.4810
 2952TIP3   OH230270   4.856   5.599  17.091  0.0131  0.3778 -0.4019
 2952TIP3    H130271   4.904   5.589  17.174 -0.0430 -0.3498 -0.4516
 2952TIP3    H230272   4.764   5.583  17.115 -0.0668  0.6910 -0.5053
 2953TIP3   OH230273   1.595   4.692   5.354 -0.0542  0.2526  0.0614
 2953TIP3    H130274   1.582   4.718   5.445 -3.1877 -0.0533 -0.1642
 2953TIP3    H230275   1.509   4.703   5.314  0.5756 -2.0342 -2.2348
 2954TIP3   OH230276   6.258   3.650  12.338 -0.5404  0.1473 -0.2388
 2954TIP3    H130277   6.342   3.692  12.351 -0.3133 -0.1746 -0.6303
 2954TIP3    H230278   6.213   3.657  12.423 -0.5469  1.2374 -0.3249
 2955TIP3   OH230279   3.581   6.499  15.151 -0.3199 -0.2806 -0.0812
 2955TIP3    H130280   3.639   6.574  15.160 -2.0474  1.2235 -0.7647
 2955TIP3    H230281   3.594   6.447  15.231  1.0083  0.6752  0.3387
 2956TIP3   OH230282   5.115   5.083   5.214  0.2937 -0.3494  0.0178
 2956TIP3    H130283   5.194   5.033   5.194  1.4738  1.5525 -0.3409
 2956TIP3    H230284   5.068   5.087   5.131 -0.3121 -1.6171  0.2665
 2957TIP3   OH230285   2.274   5.342   3.517  0.2219  0.7080 -0.0872
 2957TIP3    H130286   2.313   5.347   3.430  0.3692  2.4191  0.0340
 2957TIP3    H230287   2.217   5.419   3.522  0.1139  0.5643  1.2794
 2958TIP3   OH230288   5.505   0.895   4.952  0.5042 -0.3502 -0.4524
 2958TIP3    H130289   5.485   0.977   4.907  1.3809  0.3024  0.3138
 2958TIP3    H230290   5.432   0.883   5.012  0.3672 -0.1461 -0.5741
 2959TIP3   OH230291   2.206   6.036   5.029  0.4931 -0.3200  0.0074
 2959TIP3    H130292   2.275   6.098   5.005  0.2949  0.5406  1.5438
 2959TIP3    H230293   2.213   6.028   5.124 -1.2235 -0.5773  0.1369
 2960TIP3   OH230294   0.989   1.158  12.989 -0.3357  0.1047  0.8378
 2960TIP3    H130295   1.045   1.234  12.974  1.8153 -1.3654  1.0094
 2960TIP3    H230296   0.955   1.171  13.078 -0.3619  1.0662  0.6984
 2961TIP3   OH230297   2.524   2.456   1.491 -0.2863 -0.0058  1.0580
 2961TIP3    H130298   2.524   2.551   1.502 -0.8332  0.0933  0.2890
 2961TIP3    H230299   2.539   2.443   1.397  0.8801 -0.7097  1.3180
 2962TIP3   OH230300   6.280   0.177   0.276 -0.7065  0.0331  0.1335
 2962TIP3    H130301   6.295   0.250   0.336 -2.0195 -0.8460  1.6280
 2962TIP3    H230302   6.330   0.105   0.312 -0.1422 -0.0718 -0.8217
 2963TIP3   OH230303   5.773   1.502  10.158  0.2627  0.5447 -0.4148
 2963TIP3    H130304   5.745   1.593  10.170 -0.4208  0.1561  1.1564
 2963TIP3    H230305   5.849   1.493  10.216  2.2969  0.9029 -2.8122
 2964TIP3   OH230306   2.692   2.302  14.886  0.1899  0.1307 -0.4534
 2964TIP3    H130307   2.772   2.250  14.895  0.4086  0.2912 -1.3911
 2964TIP3    H230308   2.621   2.237  14.886  0.1305  0.0834  2.1489
 2965TIP3   OH230309   3.413   5.142  12.934 -0.3380  0.3536  0.0105
 2965TIP3    H130310   3.333   5.099  12.904 -0.4482 -0.7971  1.7853
 2965TIP3    H230311   3.476   5.126  12.864 -0.5936 -2.1378  0.2488
 2966TIP3   OH230312   0.656   4.800  16.335 -0.5445  0.0916 -0.2372
 2966TIP3    H130313   0.645   4.753  16.417 -1.8563 -0.5946 -0.7787
 2966TIP3    H230314   0.645   4.892  16.358 -0.3264 -0.0521  0.4452
 2967TIP3   OH230315   4.028   3.481  15.854  0.0033  0.0951  0.5330
 2967TIP3    H130316   3.977   3.542  15.907  0.0075  0.4315  0.1554
 2967TIP3    H230317   4.072   3.424  15.917 -1.1393 -0.4502  0.8555
 2968TIP3   OH230318   1.456   0.615  13.842 -0.3939  0.0430 -0.2695
 2968TIP3    H130319   1.545   0.587  13.864 -0.9895 -1.5120  0.3097
 2968TIP3    H230320   1.433   0.563  13.765 -0.7239  0.6026 -0.5547
 2969TIP3   OH230321   2.196   5.292  15.563 -0.0083 -0.9704  0.0484
 2969TIP3    H130322   2.250   5.333  15.496 -2.3124  0.2537 -1.1967
 2969TIP3    H230323   2.199   5.353  15.637  1.0930 -1.4278  0.3993
 2970TIP3   OH230324   0.327   5.497   0.546 -0.1340  0.1625 -0.1721
 2970TIP3    H130325   0.323   5.589   0.576 -0.9870  0.2892 -0.6487
 2970TIP3    H230326   0.236   5.468   0.547 -0.0658 -0.1635 -1.6206
 2971TIP3   OH230327   4.508   0.267  16.328  0.4182 -0.3703  0.1013
 2971TIP3    H130328   4.545   0.193  16.280  0.0363 -1.0781  0.8734
 2971TIP3    H230329   4.533   0.251  16.420 -0.8986 -0.3181  0.4863
 2972TIP3   OH230330   3.942   1.903  12.984  0.2528 -0.2164  0.2251
 2972TIP3    H130331   3.909   1.981  13.028  0.3776 -0.2035  0.2948
 2972TIP3    H230332   4.017   1.875  13.037 -0.6465 -1.2050  1.0315
 2973TIP3   OH230333   4.460   3.281  14.437  0.2004 -0.4143  0.4998
 2973TIP3    H130334   4.431   3.258  14.349 -3.1439 -3.9488  2.2394
 2973TIP3    H230335   4.518   3.208  14.463  0.6052  0.2283  1.4709
 2974TIP3   OH230336   2.622   1.586  16.452 -0.0522  0.4020  0.0379
 2974TIP3    H130337   2.550   1.572  16.513 -0.3249 -0.5293 -0.4798
 2974TIP3    H230338   2.606   1.525  16.381  1.0748  0.4061 -0.2475
 2975TIP3   OH230339   3.146   1.475  14.789 -0.3510  0.0221  0.1440
 2975TIP3    H130340   3.055   1.488  14.815  0.0383  0.3464  1.4499
 2975TIP3    H230341   3.194   1.469  14.872  0.9473  0.7909 -0.5157
 2976TIP3   OH230342   0.714   3.452  12.934 -0.0605  0.4428 -0.7630
 2976TIP3    H130343   0.655   3.509  12.885 -1.8862  0.7561  1.5970
 2976TIP3    H230344   0.672   3.366  12.930 -1.4275  0.8890  1.8559
 2977TIP3   OH230345   6.367   4.952   0.635  0.1325 -0.5019  0.4467
 2977TIP3    H130346   6.382   4.921   0.724 -0.0427  0.6936  0.9144
 2977TIP3    H230347   6.272   4.944   0.622 -0.2191  1.5211  1.2781
 2978TIP3   OH230348   4.827   1.245  14.765  0.2191  0.3290  0.3094
 2978TIP3    H130349   4.899   1.238  14.828  0.4061 -1.8802 -0.0660
 2978TIP3    H230350   4.817   1.339  14.750  1.9521  0.7669  1.5836
 2979TIP3   OH230351   2.512   2.448  15.313 -0.3586  0.6220 -0.2503
 2979TIP3    H130352   2.607   2.459  15.307 -0.3964  0.6079 -0.9696
 2979TIP3    H230353   2.500   2.384  15.384  0.1907  0.3250 -0.4160
 2980TIP3   OH230354   0.123   4.992  16.765  0.2813  0.2229 -0.0078
 2980TIP3    H130355   0.136   5.064  16.704  0.6355  0.5331  0.4312
 2980TIP3    H230356   0.189   4.927  16.741  1.4164  0.9666  0.9628
 2981TIP3   OH230357   5.012   3.513   5.017  0.0017  0.2864 -0.2919
 2981TIP3    H130358   5.067   3.561   4.955  1.4119  0.3945  0.9830
 2981TIP3    H230359   5.063   3.511   5.098 -0.9682 -1.4441  0.3386
 2982TIP3   OH230360   6.585   2.849   4.794  0.2612  0.5655  0.4857
 2982TIP3    H130361   6.572   2.826   4.886 -0.7011 -0.3349  0.1486
 2982TIP3    H230362   6.640   2.779   4.760 -2.9187 -1.6449 -0.6155
 2983TIP3   OH230363   6.604   5.441   2.243 -0.4021 -0.4365 -0.0096
 2983TIP3    H130364   6.556   5.501   2.186  2.3270  0.5431 -1.4377
 2983TIP3    H230365   6.618   5.490   2.324  2.1335  1.1534 -1.2978
 2984TIP3   OH230366   6.728   0.813   2.873  0.1076 -0.2353  0.4119
 2984TIP3    H130367   6.732   0.740   2.936  0.0328 -0.6422 -0.0465
 2984TIP3    H230368   6.803   0.867   2.895 -0.0571 -0.2373  1.0156
 2985TIP3   OH230369   1.253   3.739  14.065 -0.2947 -0.2732 -0.1368
 2985TIP3    H130370   1.167   3.765  14.098  0.5611  0.1715  1.8798
 2985TIP3    H230371   1.267   3.794  13.988 -1.0053  1.0328  0.6405
 2986TIP3   OH230372   5.520   6.668  15.871 -0.1395  0.1084 -0.0853
 2986TIP3    H130373   5.537   6.652  15.964  1.8038 -1.1142 -0.5880
 2986TIP3    H230374   5.551   6.757  15.856  1.3918 -0.3736  0.0657
 2987TIP3   OH230375   6.549   6.559  14.683 -0.3688 -0.1948 -0.0195
 2987TIP3    H130376   6.497   6.640  14.685 -2.5273 -1.5174  1.2859
 2987TIP3    H230377   6.556   6.533  14.775 -1.6487 -2.6194 -0.5321
 2988TIP3   OH230378   6.053   0.584   1.187 -0.3166 -0.0244  0.2534
 2988TIP3    H130379   6.075   0.509   1.243  0.3720 -0.9008 -1.1205
 2988TIP3    H230380   6.004   0.643   1.243  0.6753 -0.6858  1.8777
 2989TIP3   OH230381   0.903   6.294   0.705  0.2522 -0.0825  0.4248
 2989TIP3    H130382   0.891   6.200   0.690  0.0306 -0.1836  1.1986
 2989TIP3    H230383   0.940   6.299   0.792  2.2139  0.4532 -0.3994
 2990TIP3   OH230384   4.197   4.717   2.397 -0.0568  0.1022 -0.4752
 2990TIP3    H130385   4.188   4.658   2.473 -1.3833 -0.6118 -1.1491
 2990TIP3    H230386   4.281   4.760   2.411  0.8573 -1.7566  0.1934
 2991TIP3   OH230387   5.344   0.013  13.516 -0.0042  0.6249  0.3015
 2991TIP3    H130388   5.392   0.036  13.436  1.5709 -0.4969  0.8695
 2991TIP3    H230389   5.314  -0.076  13.500 -3.3718  1.8024 -0.6589
 2992TIP3   OH230390   3.736   5.396   3.886  0.4246 -0.1271 -0.4293
 2992TIP3    H130391   3.676   5.331   3.851 -1.0586  1.1013 -0.2807
 2992TIP3    H230392   3.775   5.437   3.809  0.1030 -0.0811 -0.5709
 2993TIP3   OH230393   4.574   5.126   5.067 -0.1848  0.7543  0.2542
 2993TIP3    H130394   4.638   5.058   5.048 -2.9387 -2.0706  0.4068
 2993TIP3    H230395   4.582   5.187   4.994  0.4163 -1.3053 -1.4994
 2994TIP3   OH230396   3.560   5.934  12.871  0.3553 -0.1001  0.2674
 2994TIP3    H130397   3.636   5.912  12.925  1.0730  0.8457 -0.3298
 2994TIP3    H230398   3.523   6.012  12.912 -0.5090 -0.7363  0.7406
 2995TIP3   OH230399   0.056   4.067  11.350 -0.9724  0.1022 -0.7838
 2995TIP3    H130400   0.040   4.133  11.418 -0.7721 -1.4611  0.8532
 2995TIP3    H230401   0.151   4.062  11.342 -0.9402 -0.9477  0.1101
 2996TIP3   OH230402   0.621   4.137  16.994  0.1824 -0.0946 -0.1005
 2996TIP3    H130403   0.606   4.157  16.902 -1.3313  1.6608  0.4800
 2996TIP3    H230404   0.538   4.156  17.037  1.2685  0.5118  1.8551
 2997TIP3   OH230405   5.636   3.197   2.271  0.3111 -0.4547 -0.2887
 2997TIP3    H130406   5.624   3.117   2.221  0.0670 -0.5946 -0.0053
 2997TIP3    H230407   5.551   3.241   2.268  0.0686 -0.8315  0.6413
 2998TIP3   OH230408   2.461   0.786   1.645 -1.0734 -0.5786 -0.2204
 2998TIP3    H130409   2.454   0.809   1.552 -0.3648 -0.6322 -0.2915
 2998TIP3    H230410   2.478   0.692   1.645 -0.2175 -0.4294 -0.0729
 2999TIP3   OH230411   5.282   0.290   3.383 -0.1453 -0.4138  0.3255
 2999TIP3    H130412   5.365   0.306   3.429 -0.9111  2.0876  1.0286
 2999TIP3    H230413   5.242   0.217   3.428  1.7994 -1.9118 -0.2559
 3000TIP3   OH230414   3.166   3.173  11.847 -0.6617 -0.1405  0.2711
 3000TIP3    H130415   3.232   3.195  11.913 -0.8632  2.5622 -0.2896
 3000TIP3    H230416   3.091   3.227  11.870 -1.7252 -1.1800 -0.6481
 3001TIP3   OH230417   1.326   0.260   1.307  0.5228 -0.3009 -0.0145
 3001TIP3    H130418   1.387   0.193   1.277 -0.6733 -1.2231 -0.5093
 3001TIP3    H230419   1.335   0.261   1.403  1.5580 -0.1494 -0.1107
 3002TIP3   OH230420   5.491   6.191   3.701  0.5269  0.4527  0.2643
 3002TIP3    H130421   5.410   6.145   3.680  0.0838  0.5366  1.7098
 3002TIP3    H230422   5.557   6.150   3.646  0.2587 -2.2350  1.7996
 3003TIP3   OH230423   0.895   3.747   5.820 -0.6376  0.0798  0.5442
 3003TIP3    H130424   0.987   3.723   5.808 -0.6404  0.5838 -0.5134
 3003TIP3    H230425   0.898   3.827   5.872 -0.2806  2.1452 -2.4403
 3004TIP3   OH230426   2.487   2.518  12.419  0.1779  0.3428 -0.2697
 3004TIP3    H130427   2.565   2.546  12.371  0.8975  0.4523  0.9118
 3004TIP3    H230428   2.491   2.422  12.417 -1.0937  0.2687 -2.4197
 3005TIP3   OH230429   1.218   0.494   4.878  0.7287 -0.2673 -0.1583
 3005TIP3    H130430   1.142   0.492   4.819  0.7476  0.6561 -0.2171
 3005TIP3    H230431   1.291   0.465   4.822  0.5017 -0.7755 -0.2038
 3006TIP3   OH230432   6.653   6.148  15.330 -0.3482  0.0902  0.3072
 3006TIP3    H130433   6.720   6.183  15.271 -1.1215  1.9066  0.4251
 3006TIP3    H230434   6.688   6.164  15.418 -1.0805  1.5025  0.3824
 3007TIP3   OH230435   3.482   2.038  11.375  0.5416 -0.2967  0.1112
 3007TIP3    H130436   3.413   2.082  11.324  1.8675  1.4223 -0.3173
 3007TIP3    H230437   3.442   2.023  11.461 -0.4021  0.6058 -0.1419
 3008TIP3   OH230438   1.124   4.323  15.173 -0.2907  0.4401  0.0203
 3008TIP3    H130439   1.167   4.322  15.258  0.4243  1.9154 -0.2965
 3008TIP3    H230440   1.044   4.272  15.186  0.7698 -1.0861  1.0242
 3009TIP3   OH230441   5.422   3.609  16.263 -0.3018  0.2069  0.2711
 3009TIP3    H130442   5.418   3.634  16.171 -1.5883  1.0147  0.5184
 3009TIP3    H230443   5.372   3.528  16.268 -0.5161  0.3416  0.3127
 3010TIP3   OH230444   5.017   4.553  12.137  0.0554  0.3230  0.1554
 3010TIP3    H130445   4.997   4.580  12.048  1.2658  1.9571  0.3386
 3010TIP3    H230446   4.931   4.546  12.180 -0.5336 -0.4016 -1.0793
 3011TIP3   OH230447   0.057   3.692   5.823  0.6524  0.1021  0.2605
 3011TIP3    H130448  -0.001   3.648   5.760  1.3255  1.7493 -1.6114
 3011TIP3    H230449   0.090   3.621   5.878 -1.6422 -1.1237  0.1787
 3012TIP3   OH230450   4.617   0.045  14.322  0.0496 -0.1381  0.6290
 3012TIP3    H130451   4.708   0.071  14.305  0.3475  0.1820  2.5201
 3012TIP3    H230452   4.567   0.088  14.253  1.2962 -0.1796 -0.3493
 3013TIP3   OH230453   0.813   5.298  13.722  0.2145 -1.0809 -0.3212
 3013TIP3    H130454   0.906   5.305  13.745 -0.5013  1.3950  2.4885
 3013TIP3    H230455   0.795   5.378  13.673 -0.7770 -0.5947  0.7886
 3014TIP3   OH230456   4.910   4.805   3.895 -0.2832  0.0696 -0.0937
 3014TIP3    H130457   4.871   4.777   3.978 -0.4211 -1.6524 -0.7186
 3014TIP3    H230458   4.846   4.779   3.829  0.6672 -0.2520 -0.8984
 3015TIP3   OH230459   0.854   2.718  11.797  0.0571 -0.0218 -0.7995
 3015TIP3    H130460   0.928   2.681  11.749 -0.0309 -2.0309  0.4772
 3015TIP3    H230461   0.883   2.806  11.821  1.6840 -0.4291 -1.1117
 3016TIP3   OH230462   2.484   4.767   1.913  0.3659  0.4805  0.2403
 3016TIP3    H130463   2.511   4.677   1.930  2.3142  0.6449 -1.5054
 3016TIP3    H230464   2.456   4.801   1.998  1.0149 -1.3179  1.2239
 3017TIP3   OH230465   5.757   3.775   2.924 -0.1252 -0.0943  0.2792
 3017TIP3    H130466   5.682   3.716   2.926 -0.1798  0.0012  1.7903
 3017TIP3    H230467   5.833   3.717   2.921 -0.2158 -0.1912 -1.3934
 3018TIP3   OH230468   5.117   3.135   1.002  0.0826  0.0764  0.1732
 3018TIP3    H130469   5.201   3.159   1.042  0.0854 -1.6097  1.2555
 3018TIP3    H230470   5.138   3.124   0.909  0.9740  0.0864  0.3567
 3019TIP3   OH230471   4.107   1.423  14.293  0.0097 -0.1951 -0.0977
 3019TIP3    H130472   4.185   1.453  14.247 -0.4085 -0.3152 -0.9037
 3019TIP3    H230473   4.130   1.335  14.324  1.0735  0.7068  1.8694
 3020TIP3   OH230474   0.971   4.015   3.469 -0.3598 -0.2397 -0.0708
 3020TIP3    H130475   0.956   3.991   3.560  1.3316  0.6213  0.4799
 3020TIP3    H230476   1.051   3.969   3.444  0.1640  0.8928 -0.5489
 3021TIP3   OH230477   4.094   6.186  10.953 -0.2768 -0.1513 -0.0863
 3021TIP3    H130478   4.076   6.244  10.879 -0.0393 -0.5493 -0.4580
 3021TIP3    H230479   4.112   6.246  11.026 -1.9161  0.2577  0.0164
 3022TIP3   OH230480   2.045   1.841   2.855 -0.2876 -0.4180 -0.1326
 3022TIP3    H130481   2.033   1.781   2.782 -0.2493  1.5719 -1.8786
 3022TIP3    H230482   2.117   1.803   2.906 -0.5463 -2.0316 -0.9145
 3023TIP3   OH230483   5.019   3.789  13.734  0.4684  0.1659 -0.4400
 3023TIP3    H130484   5.056   3.701  13.730 -0.9743 -0.5080  0.1939
 3023TIP3    H230485   5.014   3.816  13.642  0.8404 -0.4517 -0.6508
 3024TIP3   OH230486   1.631   0.037  16.890  0.3125 -0.4967 -0.2770
 3024TIP3    H130487   1.545   0.050  16.932 -0.1612 -1.7732 -0.8160
 3024TIP3    H230488   1.689   0.098  16.936 -1.1556  1.4076 -0.8198
 3025TIP3   OH230489   2.341   5.124   3.157  0.2718  0.2308  0.7085
 3025TIP3    H130490   2.396   5.160   3.226  1.1206 -1.8958  1.2311
 3025TIP3    H230491   2.364   5.031   3.154 -0.4787  0.0461 -1.7507
 3026TIP3   OH230492   6.390   1.265  13.615 -0.1619  0.1303  0.3595
 3026TIP3    H130493   6.400   1.220  13.699 -1.2509 -0.0788  0.4032
 3026TIP3    H230494   6.443   1.344  13.624 -0.2915  0.1305  1.2658
 3027TIP3   OH230495   4.206   1.506   0.203  0.4137 -0.0885  0.4693
 3027TIP3    H130496   4.123   1.478   0.242 -0.8454  0.3021 -1.7353
 3027TIP3    H230497   4.226   1.438   0.139  1.6920 -0.0391  0.7967
 3028TIP3   OH230498   1.383   5.668   4.626  0.3552  0.2823  0.2439
 3028TIP3    H130499   1.404   5.602   4.692  3.4362 -0.9322 -1.7815
 3028TIP3    H230500   1.351   5.743   4.678  1.3621 -1.0506  2.9985
 3029TIP3   OH230501   5.545   3.027  16.175 -0.4722 -0.3503 -0.9076
 3029TIP3    H130502   5.575   2.940  16.199  0.3150  0.2103  0.2713
 3029TIP3    H230503   5.613   3.062  16.119  0.8837  0.6752  1.2384
 3030TIP3   OH230504   0.432   3.349  11.167 -0.0543 -0.4199 -0.0105
 3030TIP3    H130505   0.350   3.383  11.130 -0.4397  0.2485  1.3550
 3030TIP3    H230506   0.492   3.343  11.093 -1.0218  0.0901 -0.8596
 3031TIP3   OH230507   3.227   0.513   1.322 -0.1789  0.2233  0.1978
 3031TIP3    H130508   3.185   0.429   1.340 -0.3342  0.4272  0.8087
 3031TIP3    H230509   3.275   0.499   1.240 -2.1575  0.2514 -1.0147
 3032TIP3   OH230510   4.369   3.689  13.709  0.3071 -0.2873  0.3071
 3032TIP3    H130511   4.312   3.655  13.778  0.0246  1.2892  0.9040
 3032TIP3    H230512   4.427   3.751  13.754  0.8629 -0.0542 -0.6922
 3033TIP3   OH230513   6.034   2.208  11.156  0.3506 -0.6135 -0.3331
 3033TIP3    H130514   6.002   2.281  11.210 -1.4359 -1.9556  0.5541
 3033TIP3    H230515   5.954   2.167  11.122  1.3520 -1.4825 -1.7556
 3034TIP3   OH230516   0.631   2.133  12.985 -0.6040 -0.3655 -0.0113
 3034TIP3    H130517   0.551   2.182  13.000 -0.4042 -0.2907  0.8978
 3034TIP3    H230518   0.625   2.058  13.045  0.4258  0.1569  0.7913
 3035TIP3   OH230519   0.397   1.083   1.196  0.1327  0.3115  0.7099
 3035TIP3    H130520   0.346   1.077   1.278  0.3760 -0.3704  0.8130
 3035TIP3    H230521   0.347   1.030   1.134  0.8711 -0.6253  0.8960
 3036TIP3   OH230522   5.433   2.309  16.090  0.2134 -0.1330  0.3795
 3036TIP3    H130523   5.367   2.281  16.027  0.4693 -1.9718  0.8910
 3036TIP3    H230524   5.384   2.359  16.155 -0.3030  0.4167 -0.4145
 3037TIP3   OH230525   6.570   0.694  10.826 -0.0315 -0.5382  0.1614
 3037TIP3    H130526   6.568   0.620  10.887  1.9150 -0.3164  0.5436
 3037TIP3    H230527   6.530   0.661  10.746  1.5257 -2.2922  0.0546
 3038TIP3   OH230528   5.380   3.807  16.656  0.0523  0.1301  0.5747
 3038TIP3    H130529   5.310   3.830  16.717  0.7394 -0.2902  1.5565
 3038TIP3    H230530   5.420   3.729  16.695  0.6024 -0.0520 -0.3402
 3039TIP3   OH230531   1.536   1.389   2.894 -0.6277  0.5117 -0.6733
 3039TIP3    H130532   1.626   1.396   2.926 -0.6827 -0.7877 -0.2070
 3039TIP3    H230533   1.495   1.471   2.922  0.0634  0.5676  0.2028
 3040TIP3   OH230534   1.114   1.078  16.253 -0.2713 -0.1740  0.8405
 3040TIP3    H130535   1.030   1.043  16.284  0.1058 -2.1569 -0.2163
 3040TIP3    H230536   1.176   1.008  16.268  0.9127  0.7040  0.2227
 3041TIP3   OH230537   0.767   0.031   1.287 -0.5495  0.0208  0.1633
 3041TIP3    H130538   0.713  -0.023   1.345  0.3741 -1.0828  0.0301
 3041TIP3    H230539   0.724   0.117   1.288 -1.5525 -0.4595  1.0794
 3042TIP3   OH230540   2.902   0.055  11.697 -1.4831 -0.1953  0.5637
 3042TIP3    H130541   2.994   0.054  11.669 -1.8874  0.7906 -0.9482
 3042TIP3    H230542   2.892  -0.025  11.748 -0.5038 -1.8888 -1.7082
 3043TIP3   OH230543   6.434   2.582  16.778 -0.0356  0.0733  0.3180
 3043TIP3    H130544   6.510   2.636  16.801 -0.2668  0.7781 -0.5228
 3043TIP3    H230545   6.409   2.612  16.691 -1.1065 -0.3474  0.4660
 3044TIP3   OH230546   6.552   3.476   0.123  0.3651 -0.3135  0.1366
 3044TIP3    H130547   6.591   3.389   0.130  0.3437 -0.3626 -0.3078
 3044TIP3    H230548   6.495   3.482   0.199  3.6898  1.0590  2.7789
 3045TIP3   OH230549   2.083   4.576   4.207  0.1739 -0.2408  0.0017
 3045TIP3    H130550   2.102   4.669   4.194  0.3218  0.4525  4.0730
 3045TIP3    H230551   2.169   4.537   4.224  0.1484 -1.2789 -1.9580
 3046TIP3   OH230552   3.330   3.750  16.355 -0.4345  0.4258  0.4166
 3046TIP3    H130553   3.368   3.823  16.307  0.1787 -0.2110 -0.0968
 3046TIP3    H230554   3.359   3.672  16.307  0.7645 -0.2772  2.2028
 3047TIP3   OH230555   4.612   0.375  14.315 -0.5517 -0.3294  0.5375
 3047TIP3    H130556   4.532   0.411  14.277 -0.0540  1.2941  0.9578
 3047TIP3    H230557   4.681   0.395  14.252  0.2037  2.0005  1.9691
 3048TIP3   OH230558   4.185   6.237  13.493 -0.1772 -0.2785  1.0403
 3048TIP3    H130559   4.195   6.165  13.556 -0.9977 -0.2624  1.2026
 3048TIP3    H230560   4.091   6.254  13.491  0.0212  0.9603  1.1924
 3049TIP3   OH230561   3.623   3.808  13.503 -0.8204 -0.6071 -0.5921
 3049TIP3    H130562   3.682   3.758  13.560  0.0309  2.6417  1.6383
 3049TIP3    H230563   3.537   3.800  13.545 -0.5722  0.2123  0.0933
 3050TIP3   OH230564   2.661   1.912  14.979  0.5465  0.3881  0.1204
 3050TIP3    H130565   2.716   1.990  14.990 -2.4207  2.4386  1.8337
 3050TIP3    H230566   2.698   1.848  15.040  3.2260  0.1688 -1.5299
 3051TIP3   OH230567   6.157   1.712  15.960 -1.0349  0.5697 -0.1249
 3051TIP3    H130568   6.079   1.767  15.958 -0.7624  0.9975  0.7032
 3051TIP3    H230569   6.204   1.734  15.880 -2.5314 -0.8713 -1.4821
 3052TIP3   OH230570   3.715   2.585   5.736  0.6261  0.2222 -0.3406
 3052TIP3    H130571   3.798   2.568   5.693  0.9223  0.5251  0.0951
 3052TIP3    H230572   3.733   2.572   5.829  0.1366  0.0961 -0.2610
 3053TIP3   OH230573   6.262   0.656   3.503  0.0665  0.3005  0.0281
 3053TIP3    H130574   6.239   0.702   3.423 -1.9584 -0.0215  0.3535
 3053TIP3    H230575   6.186   0.668   3.560  0.8791 -0.6247  1.3813
 3054TIP3   OH230576   5.382   1.796   3.841 -0.0263  0.6807  0.7426
 3054TIP3    H130577   5.465   1.785   3.794  0.0491 -0.5562  1.1275
 3054TIP3    H230578   5.385   1.731   3.911 -0.9150  1.2816  1.3590
 3055TIP3   OH230579   4.740   5.399   1.047 -0.2937 -0.3873 -0.6885
 3055TIP3    H130580   4.758   5.493   1.045 -1.2097 -0.2149 -1.6437
 3055TIP3    H230581   4.795   5.362   0.978 -0.8189 -0.3775 -1.1171
 3056TIP3   OH230582   4.011   1.831  12.568  0.8159  0.6704  0.3953
 3056TIP3    H130583   4.094   1.871  12.594  0.1381  1.1879  1.8506
 3056TIP3    H230584   3.947   1.866  12.630 -0.8293  1.5871 -1.6817
 3057TIP3   OH230585   0.947   2.687  14.445  0.2527 -0.2629 -0.0505
 3057TIP3    H130586   0.995   2.633  14.382  0.5472 -0.9254  0.7179
 3057TIP3    H230587   0.894   2.624  14.495 -1.4158  0.4505 -0.8625
 3058TIP3   OH230588   3.380   6.494   3.147  0.7336  0.2227  0.3332
 3058TIP3    H130589   3.444   6.440   3.101  0.7025  0.4960 -0.0340
 3058TIP3    H230590   3.342   6.436   3.213  2.7756  0.5924  1.9317
 3059TIP3   OH230591   4.081   5.860  11.521  0.2645  0.4390 -0.7479
 3059TIP3    H130592   3.990   5.831  11.512  0.4871 -0.3794 -0.3891
 3059TIP3    H230593   4.085   5.898  11.609  0.5521 -0.6165 -0.2863
 3060TIP3   OH230594   2.829   6.565  11.177  0.8512  0.1370 -0.4950
 3060TIP3    H130595   2.911   6.600  11.142  1.1464  0.8191  0.7755
 3060TIP3    H230596   2.852   6.480  11.214  0.8600  0.0720 -0.6503
 3061TIP3   OH230597   1.888   3.568  16.483  0.0442  0.2564  0.0349
 3061TIP3    H130598   1.973   3.571  16.527 -0.0009  0.6073  0.0997
 3061TIP3    H230599   1.858   3.478  16.495  0.8561 -0.1603 -0.8340
 3062TIP3   OH230600   3.738   5.189  14.650 -0.1760 -0.3231  0.2514
 3062TIP3    H130601   3.721   5.198  14.557 -0.9981 -1.5040  0.2712
 3062TIP3    H230602   3.784   5.106  14.659  2.3108  0.9977  0.6427
 3063TIP3   OH230603   1.765   2.601  12.187  0.3732  0.1258  0.0481
 3063TIP3    H130604   1.754   2.553  12.104  0.9422  0.0802 -0.0040
 3063TIP3    H230605   1.830   2.550  12.235  1.7560  1.3730 -0.4170
 3064TIP3   OH230606   0.152   5.412  13.445 -0.2680  0.9157 -0.4088
 3064TIP3    H130607   0.116   5.498  13.423 -0.6471  0.6346 -0.9033
 3064TIP3    H230608   0.135   5.401  13.538 -1.3834  0.8324 -0.6070
 3065TIP3   OH230609   6.355   2.170  14.414 -0.1452 -0.3643 -0.3095
 3065TIP3    H130610   6.295   2.148  14.343  0.3469  1.0024 -1.1906
 3065TIP3    H230611   6.299   2.180  14.491 -1.4565  3.0390 -1.5355
 3066TIP3   OH230612   4.922   0.096  14.290  0.4086 -0.0673  0.5561
 3066TIP3    H130613   4.968   0.142  14.360  0.8882  2.4938 -1.3151
 3066TIP3    H230614   4.942   0.145  14.211 -2.3641 -1.1770 -0.9975
 3067TIP3   OH230615   3.674   1.450  14.372 -0.3469  0.7212  0.4082
 3067TIP3    H130616   3.697   1.382  14.435  0.7914  1.2979  0.6430
 3067TIP3    H230617   3.611   1.505  14.419 -0.2405  0.6005  0.6977
 3068TIP3   OH230618   1.415   0.533   6.246 -0.1677  0.2192 -0.1503
 3068TIP3    H130619   1.429   0.594   6.173  0.5752 -1.3020 -1.3283
 3068TIP3    H230620   1.408   0.447   6.205  1.6809 -0.8841  1.6285
 3069TIP3   OH230621   5.711   0.425   5.076 -0.1099  0.6344  0.2315
 3069TIP3    H130622   5.762   0.408   5.155 -1.1264 -0.6149  0.6481
 3069TIP3    H230623   5.740   0.358   5.014 -0.4084  0.6566  0.0671
 3070TIP3   OH230624   3.741   4.523  12.618  0.4597 -0.1925  0.1685
 3070TIP3    H130625   3.730   4.486  12.706  1.4949 -1.7774 -0.3256
 3070TIP3    H230626   3.825   4.489  12.588  1.1092  2.0104 -0.6618
 3071TIP3   OH230627   1.489   6.588  15.410 -0.3338  0.3172 -0.3952
 3071TIP3    H130628   1.447   6.619  15.490 -1.0128  1.2211 -1.0723
 3071TIP3    H230629   1.488   6.664  15.352  0.8585 -0.0918 -0.9876
 3072TIP3   OH230630   4.976   6.267   3.797 -0.3672 -0.3267  0.8869
 3072TIP3    H130631   4.933   6.221   3.725  0.0512  0.7335 -0.0743
 3072TIP3    H230632   5.064   6.287   3.764 -0.9038  2.1954  0.7843
 3073TIP3   OH230633   6.234   0.752  15.003 -0.2331  0.0709  0.3734
 3073TIP3    H130634   6.218   0.818  14.937 -3.5034 -1.0121 -0.0919
 3073TIP3    H230635   6.326   0.729  14.992  0.5051  3.0980 -0.7057
 3074TIP3   OH230636   5.044   1.452  13.392  0.1004 -0.2427  0.2111
 3074TIP3    H130637   5.052   1.393  13.316 -1.1640  0.0432 -0.1630
 3074TIP3    H230638   5.134   1.480  13.409  0.4750 -0.7027 -0.8792
 3075TIP3   OH230639   0.353   4.987   4.960  0.0198 -0.2255 -0.0456
 3075TIP3    H130640   0.362   4.892   4.951 -0.8532 -0.2965 -0.2694
 3075TIP3    H230641   0.372   5.021   4.872 -1.4534 -0.3470 -0.4275
 3076TIP3   OH230642   5.061   1.845  13.555  0.1423 -0.3328  0.1984
 3076TIP3    H130643   5.123   1.844  13.482  0.9139 -1.8998  0.8178
 3076TIP3    H230644   5.032   1.936  13.562 -0.2681 -0.2265 -2.2971
 3077TIP3   OH230645   1.461   2.854   1.737 -0.1559 -0.2721 -0.2915
 3077TIP3    H130646   1.516   2.905   1.677  0.4343 -0.0786  0.4071
 3077TIP3    H230647   1.372   2.867   1.705  0.2636 -1.4306 -2.0859
 3078TIP3   OH230648   1.249   0.043  15.804  0.2193 -0.2829  0.0301
 3078TIP3    H130649   1.280  -0.037  15.847  0.0259  0.6025  1.9147
 3078TIP3    H230650   1.172   0.015  15.755  0.7728 -1.4505 -0.2067
 3079TIP3   OH230651   6.388   3.184  15.868 -0.4481  0.2660 -0.0299
 3079TIP3    H130652   6.424   3.096  15.871 -2.8211 -0.7262  2.0964
 3079TIP3    H230653   6.426   3.228  15.945 -2.2500 -0.2386  1.2144
 3080TIP3   OH230654   6.019   3.733  11.547  0.3523 -0.7649 -0.0361
 3080TIP3    H130655   6.019   3.677  11.469  2.5870 -0.5189 -0.2762
 3080TIP3    H230656   5.992   3.676  11.618  0.5268 -1.6104 -0.6374
 3081TIP3   OH230657   2.356   3.329  11.828 -0.3749 -0.2796 -0.5518
 3081TIP3    H130658   2.264   3.334  11.856  0.3100 -0.4401  2.0605
 3081TIP3    H230659   2.394   3.412  11.859  0.6771 -0.8970 -0.1499
 3082TIP3   OH230660   3.018   3.007  17.099  0.1840 -0.3730  0.1826
 3082TIP3    H130661   2.979   2.922  17.119 -4.1416  0.9353 -1.3704
 3082TIP3    H230662   3.000   3.020  17.005  1.5306  1.8751  0.1428
 3083TIP3   OH230663   1.514   5.962   1.104  0.1645  0.0225 -0.3698
 3083TIP3    H130664   1.567   5.919   1.171 -0.0114 -1.5526 -1.1879
 3083TIP3    H230665   1.474   6.036   1.149 -0.4019 -1.2975  1.4340
 3084TIP3   OH230666   2.907   4.774  15.530  0.3559  0.2238 -0.0914
 3084TIP3    H130667   2.903   4.759  15.625 -0.9000  0.2660 -0.1218
 3084TIP3    H230668   2.998   4.756  15.507  0.5890 -0.1722  1.0607
 3085TIP3   OH230669   5.356   3.009   1.131  0.5149  0.4375  0.7929
 3085TIP3    H130670   5.436   2.996   1.182  0.8968 -0.1414  0.0630
 3085TIP3    H230671   5.361   2.945   1.061 -0.9572 -0.1303  1.1603
 3086TIP3   OH230672   1.104   4.603   1.872 -0.3167 -0.3339  0.0533
 3086TIP3    H130673   1.155   4.615   1.792 -0.2928 -1.2592 -0.0880
 3086TIP3    H230674   1.125   4.679   1.925  1.0893 -0.5951 -0.0703
 3087TIP3   OH230675   2.894   5.974   5.741 -0.4576  0.1460 -0.1624
 3087TIP3    H130676   2.934   6.057   5.719  0.5469 -0.2489  0.1196
 3087TIP3    H230677   2.890   5.973   5.837  2.5379 -1.4421  0.0494
 3088TIP3   OH230678   3.767   2.755  14.439 -0.1614  0.6061 -0.2137
 3088TIP3    H130679   3.862   2.748  14.427 -0.3704  0.2041 -1.7889
 3088TIP3    H230680   3.740   2.668  14.467 -0.3625  0.0049 -2.1595
 3089TIP3   OH230681   5.038   6.124  12.467  0.0384  0.1919 -0.1023
 3089TIP3    H130682   5.129   6.152  12.455  0.4146 -1.1629 -0.6731
 3089TIP3    H230683   5.014   6.155  12.554  1.0532  0.5517  0.0648
 3090TIP3   OH230684   3.481   4.775   2.487  0.1967  0.2461  0.2500
 3090TIP3    H130685   3.401   4.827   2.496  0.0435 -0.1176  1.1024
 3090TIP3    H230686   3.542   4.831   2.439 -0.0361  1.1295  0.9762
 3091TIP3   OH230687   6.315   1.681   3.269  0.0525  0.1800 -0.3403
 3091TIP3    H130688   6.352   1.737   3.337  0.5776  0.6731 -1.0213
 3091TIP3    H230689   6.387   1.666   3.208 -0.4576 -0.1144 -0.8822
 3092TIP3   OH230690   5.290   3.527   0.084 -0.3104  0.0186 -1.0365
 3092TIP3    H130691   5.267   3.514   0.176  0.6683  0.1953 -0.7633
 3092TIP3    H230692   5.357   3.462   0.066 -0.0671  0.3795 -1.4570
 3093TIP3   OH230693   5.054   1.647   3.424  0.4350  0.3059  0.0968
 3093TIP3    H130694   4.959   1.660   3.424  0.5756  1.4663 -0.7189
 3093TIP3    H230695   5.082   1.671   3.512  0.0082  0.2425  0.2510
 3094TIP3   OH230696   1.789   4.519  16.239  0.4084 -0.0460 -0.2197
 3094TIP3    H130697   1.817   4.541  16.327 -0.6621 -0.8102  0.3426
 3094TIP3    H230698   1.828   4.587  16.183  1.6666  0.0482  0.7339
 3095TIP3   OH230699   2.303   0.066   2.875  0.0518 -0.0811  0.5748
 3095TIP3    H130700   2.367   0.014   2.827 -0.6229 -0.2806 -0.1423
 3095TIP3    H230701   2.236   0.087   2.810 -0.3483  0.5665  1.1776
 3096TIP3   OH230702   5.719   4.595  14.662  0.2421  0.4013 -0.1459
 3096TIP3    H130703   5.765   4.511  14.667 -0.3573  0.0750  0.0114
 3096TIP3    H230704   5.784   4.660  14.688  0.7550  0.0043 -0.4053
 3097TIP3   OH230705   1.339   4.899  12.288  0.1639 -0.4861 -0.5628
 3097TIP3    H130706   1.385   4.902  12.205  1.6259  0.1221  0.2338
 3097TIP3    H230707   1.402   4.862  12.350  0.5180  2.4835  1.0678
 3098TIP3   OH230708   2.445   6.074  11.705 -0.1236 -0.2347 -0.1131
 3098TIP3    H130709   2.495   6.061  11.624  1.2362 -2.1174  0.9357
 3098TIP3    H230710   2.358   6.037  11.686 -0.0849  0.0958 -0.9618
 3099TIP3   OH230711   4.773   4.389   1.494 -0.5712 -0.0522  0.1846
 3099TIP3    H130712   4.739   4.370   1.581 -1.6587 -0.4338 -0.3085
 3099TIP3    H230713   4.765   4.306   1.447 -0.3635  0.2533 -0.3943
 3100TIP3   OH230714   5.544   6.348   3.347 -0.0562 -0.1266 -0.0695
 3100TIP3    H130715   5.454   6.379   3.333  0.9842  1.9857 -3.2827
 3100TIP3    H230716   5.553   6.274   3.287 -0.1137 -1.4836  1.5504
 3101TIP3   OH230717   6.275   6.601   6.598 -0.3818  0.1462  0.2228
 3101TIP3    H130718   6.253   6.551   6.677 -1.7303  2.6752  1.5587
 3101TIP3    H230719   6.351   6.653   6.624  0.0238 -0.0101 -0.6249
 3102TIP3   OH230720   4.131   0.239  14.870  0.5168 -0.0615  0.4452
 3102TIP3    H130721   4.190   0.188  14.814 -0.7869 -2.1563  0.9112
 3102TIP3    H230722   4.044   0.223  14.835  0.0967  2.8703 -0.1328
 3103TIP3   OH230723   2.217   3.378  16.965 -0.5213 -0.3740  0.2288
 3103TIP3    H130724   2.162   3.300  16.966 -1.6709  0.4052 -0.0741
 3103TIP3    H230725   2.166   3.444  17.014 -0.8683  1.0171 -1.8867
 3104TIP3   OH230726   1.200   5.619  16.016  0.5848 -0.0153  0.0358
 3104TIP3    H130727   1.111   5.650  16.002  1.8927  2.6107 -4.9747
 3104TIP3    H230728   1.201   5.531  15.977  0.3523  0.3608 -0.8372
 3105TIP3   OH230729   5.578   4.153  17.082 -0.2846 -0.4140  0.1001
 3105TIP3    H130730   5.564   4.087  17.150 -0.7402 -2.7906 -2.1548
 3105TIP3    H230731   5.642   4.213  17.120 -0.6026 -1.5444  2.6430
 3106TIP3   OH230732   0.960   4.273  14.297 -0.1504  0.2463 -0.3666
 3106TIP3    H130733   0.866   4.261  14.315  0.1726  0.9542  2.3023
 3106TIP3    H230734   0.992   4.185  14.278 -1.2490 -0.1026 -0.6865
 3107TIP3   OH230735   5.908   5.431   5.636 -0.9184 -0.2429  0.1273
 3107TIP3    H130736   5.869   5.519   5.632  0.2639  0.3222  0.4500
 3107TIP3    H230737   5.886   5.391   5.552 -0.8387  0.6373 -0.3223
 3108TIP3   OH230738   4.988   5.279   4.668  0.4142 -0.4025  0.9859
 3108TIP3    H130739   4.953   5.369   4.671  1.3234 -0.0581  2.3260
 3108TIP3    H230740   4.920   5.229   4.624  0.9278  1.3737 -2.1382
 3109TIP3   OH230741   4.157   3.185   1.187 -0.1588  0.2968 -0.4312
 3109TIP3    H130742   4.165   3.134   1.268 -0.0097  0.4560 -0.3449
 3109TIP3    H230743   4.232   3.158   1.134  0.7782  1.5032  0.2182
 3110TIP3   OH230744   0.077   6.346   3.237 -0.4436  0.3862  0.4476
 3110TIP3    H130745   0.076   6.256   3.202 -0.3457  0.4074  0.3901
 3110TIP3    H230746   0.118   6.397   3.168  1.4312  0.1365  1.3213
 3111TIP3   OH230747   0.573   4.288  15.426  0.3107 -0.2714 -0.2024
 3111TIP3    H130748   0.519   4.231  15.481  0.4543  0.4525  0.7038
 3111TIP3    H230749   0.511   4.340  15.376  0.0743  1.6910  1.9911
 3112TIP3   OH230750   3.494   5.277   0.700  0.1592  0.5129 -0.0508
 3112TIP3    H130751   3.578   5.323   0.704 -0.1928  1.0947  1.3189
 3112TIP3    H230752   3.447   5.308   0.777 -1.0605 -0.3085 -0.4462
 3113TIP3   OH230753   5.267   5.026  16.620  0.2040  0.1388 -0.0787
 3113TIP3    H130754   5.218   5.103  16.647 -0.6772 -0.8931  1.4339
 3113TIP3    H230755   5.355   5.059  16.600  0.0277  1.4542  1.1423
 3114TIP3   OH230756   0.849   2.868  13.014  0.3054 -0.0310  0.7288
 3114TIP3    H130757   0.941   2.885  12.994 -0.1703  0.7583 -0.9049
 3114TIP3    H230758   0.817   2.819  12.939 -0.8590  0.6121  0.7902
 3115TIP3   OH230759   3.064   1.097   2.771  0.4298 -0.1624 -0.1360
 3115TIP3    H130760   3.060   1.001   2.764  2.9390 -0.2593 -1.5405
 3115TIP3    H230761   3.022   1.129   2.691  0.0780 -0.0837  0.0756
 3116TIP3   OH230762   2.096   3.870   4.567 -0.0071  0.0216  0.2366
 3116TIP3    H130763   2.143   3.881   4.649  0.8718 -0.3322 -0.2120
 3116TIP3    H230764   2.059   3.782   4.571 -0.6417  0.2988  0.5880
 3117TIP3   OH230765   0.139   4.327  12.633 -0.0273  0.0851  0.3721
 3117TIP3    H130766   0.219   4.370  12.603 -0.0504 -0.0144  0.1646
 3117TIP3    H230767   0.080   4.398  12.658  0.2718  0.1520  0.9102
 3118TIP3   OH230768   1.004   1.398  13.306 -0.7176 -0.0239 -0.5776
 3118TIP3    H130769   0.959   1.320  13.273 -2.3462  0.1732  1.0441
 3118TIP3    H230770   0.996   1.391  13.401 -0.0249  1.6321 -0.3812
 3119TIP3   OH230771   0.219   3.427  16.239  0.7736  0.7618  0.0086
 3119TIP3    H130772   0.193   3.479  16.163  0.4889  0.6731  0.0434
 3119TIP3    H230773   0.267   3.353  16.202 -0.0394  0.2964 -0.1539
 3120TIP3   OH230774   4.172   3.997  12.856 -0.4377  0.1068 -0.1573
 3120TIP3    H130775   4.132   3.994  12.943 -1.8804  1.1186 -0.7475
 3120TIP3    H230776   4.119   4.061  12.808  1.9885  1.6356 -0.9553
 3121TIP3   OH230777   0.514   6.528  14.618  0.3908  0.0555 -0.0491
 3121TIP3    H130778   0.495   6.620  14.636  0.1418  0.1529 -0.7886
 3121TIP3    H230779   0.447   6.479  14.666 -0.3190  0.3100 -0.7788
 3122TIP3   OH230780   6.721   6.105  16.606 -0.2387 -0.0803 -0.4373
 3122TIP3    H130781   6.639   6.077  16.647 -0.1994 -1.0751 -1.0034
 3122TIP3    H230782   6.788   6.084  16.671 -0.4766  1.5228  0.3864
 3123TIP3   OH230783   2.702   3.648   1.983 -0.8954  0.1171 -0.0700
 3123TIP3    H130784   2.615   3.617   2.010 -0.7026  1.3988  2.2051
 3123TIP3    H230785   2.683   3.724   1.928 -1.2010 -0.0222 -0.1642
 3124TIP3   OH230786   5.617   3.408   6.287  0.4674 -0.1096  0.2588
 3124TIP3    H130787   5.702   3.451   6.300  0.4163 -0.0964  0.5619
 3124TIP3    H230788   5.637   3.314   6.294  0.4034 -0.0941  0.6555
 3125TIP3   OH230789   6.126   5.439  11.483  0.2031  0.5388 -0.5827
 3125TIP3    H130790   6.181   5.381  11.536 -2.0178  0.1569  1.4703
 3125TIP3    H230791   6.152   5.527  11.510 -0.0801  0.3631  0.2989
 3126TIP3   OH230792   4.016   6.647   3.225  0.3689 -0.2299  0.4531
 3126TIP3    H130793   4.101   6.658   3.183 -0.0752 -1.6691 -0.9090
 3126TIP3    H230794   3.954   6.693   3.168 -0.2709 -2.3879 -0.7011
 3127TIP3   OH230795   6.626   1.956   2.306 -0.2698  0.3886 -0.4739
 3127TIP3    H130796   6.584   1.941   2.390  0.4159 -0.1869 -0.2305
 3127TIP3    H230797   6.672   2.039   2.317 -0.8678  0.7455 -0.5682
 3128TIP3   OH230798   3.777   1.776  12.419  0.1993  0.6754 -0.3903
 3128TIP3    H130799   3.855   1.800  12.469  0.4441  2.1532 -1.4078
 3128TIP3    H230800   3.809   1.721  12.349  0.6553  2.6797 -1.8361
 3129TIP3   OH230801   3.806   1.187   2.125  0.0327 -0.0334  0.2391
 3129TIP3    H130802   3.885   1.237   2.104  1.3730 -1.8716  0.6503
 3129TIP3    H230803   3.779   1.221   2.211  0.0139  1.0037 -0.1609
 3130TIP3   OH230804   3.864   6.296  15.765  0.1016  0.1521 -0.0983
 3130TIP3    H130805   3.814   6.352  15.825 -0.7381 -0.1237 -0.5230
 3130TIP3    H230806   3.932   6.258  15.820 -0.6511 -0.0904  0.6906
 3131TIP3   OH230807   0.203   4.864  13.808  0.4459 -0.0953 -0.2893
 3131TIP3    H130808   0.252   4.946  13.821  0.7623 -0.4901  1.2167
 3131TIP3    H230809   0.113   4.886  13.834  0.7648 -0.4855  1.2649
 3132TIP3   OH230810   5.342   2.711   2.064 -0.6965 -0.2836  0.3543
 3132TIP3    H130811   5.404   2.646   2.031 -0.5599 -0.5774  1.1841
 3132TIP3    H230812   5.381   2.744   2.145  0.2954  2.3930 -1.0794
 3133TIP3   OH230813   2.926   5.268  11.355 -0.1707 -0.2683  0.3687
 3133TIP3    H130814   3.008   5.288  11.311 -0.2396 -1.4335 -0.3154
 3133TIP3    H230815   2.871   5.345  11.339  0.9830  0.8317  1.4169
 3134TIP3   OH230816   4.657   6.686   5.160  0.0639  0.4300 -0.2912
 3134TIP3    H130817   4.567   6.718   5.171  0.3297  1.4307 -0.8960
 3134TIP3    H230818   4.676   6.697   5.067  1.4192  1.9841  0.1083
 3135TIP3   OH230819   2.916   6.305   0.792 -0.1327 -0.6120  0.3145
 3135TIP3    H130820   2.967   6.225   0.786 -0.9804 -1.0606 -1.8335
 3135TIP3    H230821   2.882   6.319   0.703 -0.3201  1.9188  0.7112
 3136TIP3   OH230822   3.100   2.319   6.061 -0.0708  0.3950  0.8208
 3136TIP3    H130823   3.140   2.313   6.148 -0.4838 -4.0226  0.9330
 3136TIP3    H230824   3.008   2.296   6.075 -0.6669  1.7501 -0.5766
 3137TIP3   OH230825   6.593   1.516  14.387  0.4694  0.1827  0.1645
 3137TIP3    H130826   6.523   1.483  14.443  0.4807  0.2992  0.2492
 3137TIP3    H230827   6.661   1.545  14.449  0.5536  0.1537  0.0860
 3138TIP3   OH230828   6.295   1.219  13.191  0.1426  0.0764 -0.1415
 3138TIP3    H130829   6.263   1.308  13.207 -0.3532 -0.0434 -0.4419
 3138TIP3    H230830   6.357   1.203  13.262  0.5667  0.8211 -0.3270
 3139TIP3   OH230831   4.407   3.305  11.201  0.0579  0.3211  0.0838
 3139TIP3    H130832   4.367   3.294  11.287  0.2143  0.9735  0.2441
 3139TIP3    H230833   4.404   3.218  11.162 -1.0031  0.2399  0.3179
 3140TIP3   OH230834   0.337   5.119  15.407  0.2884  0.4498  0.0682
 3140TIP3    H130835   0.257   5.120  15.459  0.3000  2.9232  0.1859
 3140TIP3    H230836   0.406   5.146  15.468  0.7889  0.6437 -0.5606
 3141TIP3   OH230837   0.998   1.205   2.290 -0.1144 -0.8839  0.2925
 3141TIP3    H130838   1.094   1.207   2.297 -0.0288  0.0852 -0.8599
 3141TIP3    H230839   0.976   1.112   2.281  0.6916 -1.1287  0.7372
 3142TIP3   OH230840   3.688   3.667  14.924 -0.3751 -0.5771  0.1832
 3142TIP3    H130841   3.676   3.611  14.848 -0.3228 -0.8314  0.3623
 3142TIP3    H230842   3.701   3.755  14.888 -1.6744 -0.4617 -0.0618
 3143TIP3   OH230843   0.897   2.515  14.671 -0.7748  0.4343 -0.1828
 3143TIP3    H130844   0.934   2.438  14.714 -1.4154 -0.3631 -1.0196
 3143TIP3    H230845   0.914   2.587  14.733  2.4920  0.2468 -0.6606
 3144TIP3   OH230846   1.390   3.810  15.269 -0.1342  0.4984  0.5028
 3144TIP3    H130847   1.317   3.866  15.244 -0.3474 -0.8060 -2.1688
 3144TIP3    H230848   1.350   3.725  15.290  0.4618  0.2719  0.7535
 3145TIP3   OH230849   1.535   0.171  16.448  0.1843 -0.1827 -0.1161
 3145TIP3    H130850   1.629   0.191  16.448 -0.0914  1.6690  2.6154
 3145TIP3    H230851   1.496   0.242  16.397  0.1169  0.3091  0.6018
 3146TIP3   OH230852   2.059   4.699   0.861 -0.3891 -0.0953  0.1130
 3146TIP3    H130853   2.032   4.702   0.953 -0.3520 -0.0571  0.1228
 3146TIP3    H230854   2.063   4.606   0.840 -0.0250 -0.1141  0.2603
 3147TIP3   OH230855   0.145   5.083  12.263  0.7603 -0.5646 -0.0326
 3147TIP3    H130856   0.118   5.092  12.172  2.4445 -0.0946 -0.5139
 3147TIP3    H230857   0.189   5.165  12.284  0.7205 -0.8132  1.0940
 3148TIP3   OH230858   4.696   0.827   1.322 -0.1196 -0.4216 -0.3501
 3148TIP3    H130859   4.723   0.747   1.367 -1.1955 -0.5337  0.1399
 3148TIP3    H230860   4.617   0.802   1.274 -0.0687  0.1757 -0.7569
 3149TIP3   OH230861   5.747   5.029  11.926 -0.2645 -0.0031  0.0566
 3149TIP3    H130862   5.665   4.979  11.922 -0.5968  0.5540 -0.2936
 3149TIP3    H230863   5.808   4.972  11.973 -0.9656 -0.2734  0.6550
 3150TIP3   OH230864   3.290   4.373   3.998  0.0507 -0.1949 -0.9740
 3150TIP3    H130865   3.285   4.468   3.990  2.4504  0.6200  3.6199
 3150TIP3    H230866   3.211   4.349   4.047  1.1528  0.1247  1.0660
 3151TIP3   OH230867   1.951   1.605  13.109 -0.0659 -0.1595  0.2210
 3151TIP3    H130868   1.981   1.534  13.052 -3.0790 -0.8330 -0.7238
 3151TIP3    H230869   1.940   1.564  13.195 -1.1528 -0.7215 -0.1656
 3152TIP3   OH230870   6.127   2.521  13.646 -0.2218 -0.7880 -0.7486
 3152TIP3    H130871   6.066   2.501  13.717  0.4493  1.9910  0.7535
 3152TIP3    H230872   6.073   2.524  13.568 -1.5161 -1.0646  0.1106
 3153TIP3   OH230873   4.603   4.628  16.031  0.1749  0.4335  0.0391
 3153TIP3    H130874   4.637   4.628  15.942  0.6007 -0.1570  0.1957
 3153TIP3    H230875   4.636   4.710  16.068 -1.1274  1.3398 -0.7499
 3154TIP3   OH230876   2.860   2.799  14.876 -0.3468  0.4904 -0.0589
 3154TIP3    H130877   2.945   2.822  14.838  0.0843 -1.3295 -0.2942
 3154TIP3    H230878   2.815   2.750  14.807 -1.1006  0.3925  0.4820
 3155TIP3   OH230879   0.272   1.532  17.238  0.0206 -0.5749 -0.4907
 3155TIP3    H130880   0.186   1.517  17.275  0.6253 -0.9722  0.7838
 3155TIP3    H230881   0.255   1.578  17.155 -1.3845 -0.4604 -0.1497
 3156TIP3   OH230882   0.780   5.397  14.244 -0.4825  0.2584 -0.2176
 3156TIP3    H130883   0.714   5.335  14.274  0.5850 -0.8146 -0.0524
 3156TIP3    H230884   0.774   5.393  14.149 -2.0251  1.6906 -0.2418
 3157TIP3   OH230885   0.533   1.414   1.917  0.2264 -0.0648 -0.3452
 3157TIP3    H130886   0.522   1.404   1.822 -1.9343 -4.3304  0.1156
 3157TIP3    H230887   0.621   1.378   1.935  1.3066  2.2063 -0.7679
 3158TIP3   OH230888   5.974   5.421   6.046 -0.0837  0.3771  0.3765
 3158TIP3    H130889   6.046   5.360   6.060 -0.7348 -0.1849  1.4069
 3158TIP3    H230890   6.013   5.508   6.059  0.2537  0.0460  1.7240
 3159TIP3   OH230891   6.198   5.930  10.573  0.1190 -0.0882  0.6407
 3159TIP3    H130892   6.246   5.852  10.545 -2.1262 -0.4889 -2.7599
 3159TIP3    H230893   6.264   6.000  10.575  1.7332 -1.5638  1.4274
 3160TIP3   OH230894   4.743   4.541  10.488  0.1200 -0.0954  0.2009
 3160TIP3    H130895   4.771   4.449  10.482  2.9211  0.7146 -0.7525
 3160TIP3    H230896   4.735   4.570  10.397 -0.1555  0.7613  0.4893
 3161TIP3   OH230897   5.763   3.270  12.096  0.3089 -0.2331 -0.3783
 3161TIP3    H130898   5.705   3.202  12.129  0.2774 -0.6129 -1.2074
 3161TIP3    H230899   5.837   3.270  12.157 -1.4872  1.7585  2.0445
 3162TIP3   OH230900   4.726   0.505   4.039 -0.3591  0.1086 -0.1214
 3162TIP3    H130901   4.657   0.563   4.007  0.0553  0.9459  0.4557
 3162TIP3    H230902   4.807   0.540   4.003 -0.0999 -0.1121  0.2354
 3163TIP3   OH230903   4.150   1.113  15.109  0.6653 -0.4731  0.5947
 3163TIP3    H130904   4.172   1.203  15.132  1.9583 -0.9907  1.4807
 3163TIP3    H230905   4.232   1.065  15.121 -0.2757 -1.9750  1.2484
 3164TIP3   OH230906   4.511   4.904   1.370  0.7134  0.4455 -0.0107
 3164TIP3    H130907   4.505   4.990   1.411  0.5114  0.3954  0.0688
 3164TIP3    H230908   4.552   4.920   1.285 -0.0251  0.7301 -0.3247
 3165TIP3   OH230909   4.741   0.985  15.632  0.0885  0.0106 -0.0504
 3165TIP3    H130910   4.779   0.897  15.636  0.0201  0.0161  0.8143
 3165TIP3    H230911   4.708   1.001  15.720 -0.0747  0.8278 -0.2535
 3166TIP3   OH230912   1.933   4.294  12.193  0.0449 -0.0136  0.3293
 3166TIP3    H130913   1.840   4.297  12.171  0.5251  2.5095 -1.8202
 3166TIP3    H230914   1.952   4.200  12.200 -2.2708 -0.6850 -1.0219
 3167TIP3   OH230915   1.594   3.862   5.514 -0.2031  0.3786  0.7367
 3167TIP3    H130916   1.513   3.904   5.485  0.8416  0.3787 -2.5464
 3167TIP3    H230917   1.637   3.928   5.568 -1.5507  1.0435  1.0413
 3168TIP3   OH230918   0.299   0.703   3.204 -0.1725 -0.2503  0.1554
 3168TIP3    H130919   0.389   0.706   3.173  0.1383 -0.7697  0.9782
 3168TIP3    H230920   0.249   0.671   3.129  0.3773 -0.2672 -0.2071
 3169TIP3   OH230921   0.994   1.313   2.639  0.3389 -0.2437  0.2107
 3169TIP3    H130922   1.004   1.317   2.544  0.7372 -0.6144  0.2340
 3169TIP3    H230923   0.923   1.252   2.654 -0.1759  0.3250  0.1322
 3170TIP3   OH230924   2.240   3.716   5.090  0.2118  0.3165 -1.0204
 3170TIP3    H130925   2.246   3.662   5.169 -0.8600  1.5205 -0.0749
 3170TIP3    H230926   2.328   3.752   5.080  0.3560  0.1647 -0.3565
 3171TIP3   OH230927   4.667   5.557  16.283 -0.6083 -0.1503 -0.1958
 3171TIP3    H130928   4.727   5.616  16.329 -1.1316 -0.9637  1.5970
 3171TIP3    H230929   4.580   5.589  16.306 -0.8815 -0.5534 -0.6706
 3172TIP3   OH230930   0.078   6.253  12.288  0.0999  0.2979  0.5383
 3172TIP3    H130931   0.123   6.301  12.357  0.6989  0.7124 -0.1240
 3172TIP3    H230932   0.138   6.183  12.264 -0.0836  0.1861  0.4003
 3173TIP3   OH230933   5.665   4.219  12.660 -0.3371  0.0839  0.1938
 3173TIP3    H130934   5.752   4.204  12.695 -0.6074  1.4951  1.5703
 3173TIP3    H230935   5.663   4.313  12.640 -1.6939  0.1684  0.6281
 3174TIP3   OH230936   3.125   5.644   3.218 -0.1044 -0.3612  0.2714
 3174TIP3    H130937   3.133   5.557   3.181 -1.4041  0.4452 -2.0927
 3174TIP3    H230938   3.047   5.640   3.273 -0.2243 -0.6429  0.0787
 3175TIP3   OH230939   2.144   2.037  17.097  0.1027 -0.3066 -0.2533
 3175TIP3    H130940   2.202   1.962  17.084 -1.1516 -1.5092  0.7787
 3175TIP3    H230941   2.090   2.039  17.017 -0.5161 -1.1313  0.1336
 3176TIP3   OH230942   2.578   5.175   4.079  0.0019 -0.0018  0.1799
 3176TIP3    H130943   2.525   5.230   4.021  1.7389 -0.3892 -1.8630
 3176TIP3    H230944   2.540   5.087   4.070  0.5690 -0.1547 -0.7691
 3177TIP3   OH230945   2.160   4.362  16.838 -0.6531  0.2735  0.3602
 3177TIP3    H130946   2.068   4.337  16.829 -0.3078 -0.5827 -1.1543
 3177TIP3    H230947   2.158   4.449  16.878 -2.2427  1.3095 -1.7680
 3178TIP3   OH230948   1.000   1.441  14.815 -0.1422  0.7838 -0.7863
 3178TIP3    H130949   1.022   1.520  14.767 -0.0800  0.9331 -0.5165
 3178TIP3    H230950   0.937   1.470  14.881  1.4231  1.0286  0.6840
 3179TIP3   OH230951   6.276   5.918  15.339 -0.1228 -0.2270 -0.1657
 3179TIP3    H130952   6.186   5.936  15.312 -0.5449  2.8913  2.6988
 3179TIP3    H230953   6.268   5.880  15.426  1.3051  0.2292  0.1910
 3180TIP3   OH230954   3.049   1.616   5.066  0.5804  0.0235  0.2152
 3180TIP3    H130955   3.115   1.564   5.021 -0.3997 -3.5663  2.5388
 3180TIP3    H230956   2.974   1.616   5.007  1.7422  2.1557 -1.4122
 3181TIP3   OH230957   0.488   0.435   4.846  0.4861 -0.1695  0.4597
 3181TIP3    H130958   0.514   0.396   4.762  1.3710 -0.1092  0.6936
 3181TIP3    H230959   0.568   0.434   4.898  0.4211  1.4594  0.6548
 3182TIP3   OH230960   5.109   2.926  15.333  0.6603 -0.3203  0.4955
 3182TIP3    H130961   5.039   2.873  15.295  1.4831  0.3333 -2.1666
 3182TIP3    H230962   5.103   2.910  15.427 -2.5185 -0.9021  0.2968
 3183TIP3   OH230963   4.999   1.678   4.930 -0.1922  0.0745  0.1122
 3183TIP3    H130964   5.086   1.703   4.900  0.1294  0.9882  1.7224
 3183TIP3    H230965   4.984   1.730   5.009 -1.5751 -1.1914  0.7421
 3184TIP3   OH230966   0.313   4.613  13.852 -0.6395  0.0633 -0.7086
 3184TIP3    H130967   0.283   4.577  13.935  0.8106  1.3844  0.4452
 3184TIP3    H230968   0.247   4.678  13.829 -0.3540  0.6596  0.1249
 3185TIP3   OH230969   2.329   5.390   6.190  0.2720  0.1163  0.0009
 3185TIP3    H130970   2.414   5.351   6.173 -0.4209 -0.6306 -2.0045
 3185TIP3    H230971   2.286   5.328   6.250 -0.0711 -1.2686 -1.6115
 3186TIP3   OH230972   3.672   2.486  10.908  0.6391 -0.2718 -0.6286
 3186TIP3    H130973   3.731   2.559  10.888  0.5068  1.0506  3.1008
 3186TIP3    H230974   3.731   2.412  10.926  0.9854  0.0048 -0.6097
 3187TIP3   OH230975   4.347   3.956   1.604  0.7295 -0.4434  0.1059
 3187TIP3    H130976   4.346   3.865   1.636 -0.1089 -0.6861 -0.5779
 3187TIP3    H230977   4.298   3.953   1.521 -0.4334  0.8669  0.7029
 3188TIP3   OH230978   3.318   6.375  15.112  0.4424 -0.9367 -0.4991
 3188TIP3    H130979   3.409   6.400  15.096 -0.0026 -0.0663 -1.8781
 3188TIP3    H230980   3.288   6.435  15.180  1.1988 -1.9564  0.7596
 3189TIP3   OH230981   5.135   3.728   2.182 -0.7937  0.0828  0.4253
 3189TIP3    H130982   5.219   3.775   2.187 -0.9016  0.5088 -1.0993
 3189TIP3    H230983   5.069   3.797   2.190 -1.0734 -0.3840  2.8548
 3190TIP3   OH230984   6.513   4.036  13.758 -0.0290  0.2112  0.0324
 3190TIP3    H130985   6.576   3.970  13.786  0.1317 -0.2186 -1.2522
 3190TIP3    H230986   6.427   3.998  13.777  0.0608  0.7950  1.7811
 3191TIP3   OH230987   1.713   5.930  15.814 -0.3515  0.6002  0.2785
 3191TIP3    H130988   1.675   5.870  15.877 -0.1521 -0.2293 -0.3683
 3191TIP3    H230989   1.653   5.929  15.740  0.4759 -0.0873 -0.4140
 3192TIP3   OH230990   0.276   1.630  14.449 -0.4177 -0.5592  0.3626
 3192TIP3    H130991   0.252   1.673  14.368 -0.7571  0.2306  0.8707
 3192TIP3    H230992   0.192   1.611  14.492 -0.3305 -2.4607 -0.2002
 3193TIP3   OH230993   6.434   1.680   3.001  0.5010 -0.4550  0.2070
 3193TIP3    H130994   6.361   1.618   3.002 -0.0164  0.1277  1.9981
 3193TIP3    H230995   6.509   1.628   3.029  0.4110 -0.6361  0.1193
 3194TIP3   OH230996   4.250   1.566   2.264 -0.2564  0.3165 -0.6645
 3194TIP3    H130997   4.300   1.487   2.244  1.1340  0.1635  2.7453
 3194TIP3    H230998   4.316   1.635   2.272 -1.2017  1.3242 -1.1956
 3195TIP3   OH230999   4.271   0.938  12.488  0.5343 -0.0836 -0.1458
 3195TIP3    H131000   4.346   0.992  12.515  0.8239 -0.3815 -0.3557
 3195TIP3    H231001   4.281   0.857  12.538 -0.2153  0.2704  0.6008
 3196TIP3   OH231002   6.104   2.783  15.152 -0.0575 -0.1268  1.3287
 3196TIP3    H131003   6.165   2.709  15.155  1.6517  1.2034  1.0964
 3196TIP3    H231004   6.061   2.782  15.237 -0.1918 -1.4608  1.2729
 3197TIP3   OH231005   5.739   5.933  12.387  0.5311 -0.3428 -0.4532
 3197TIP3    H131006   5.715   6.023  12.364 -4.0341 -1.3548 -0.6295
 3197TIP3    H231007   5.755   5.936  12.481  0.4938  0.6717 -0.4661
 3198TIP3   OH231008   0.558   4.659  14.745 -0.0143  0.2973 -0.3819
 3198TIP3    H131009   0.621   4.691  14.681  0.6036  3.1786  1.4697
 3198TIP3    H231010   0.473   4.669  14.703  0.4698  0.3796 -1.3709
 3199TIP3   OH231011   0.229   6.517  17.123  0.3662  0.5721 -0.1513
 3199TIP3    H131012   0.160   6.468  17.081 -0.6190  1.0581  0.8403
 3199TIP3    H231013   0.205   6.519  17.216  1.6550  0.8305  0.2110
 3200TIP3   OH231014   3.679   2.490  11.335  0.5050  0.2027  0.3852
 3200TIP3    H131015   3.757   2.448  11.372 -0.3976  0.2752  2.5151
 3200TIP3    H231016   3.652   2.431  11.264 -0.3674 -2.6297  2.8696
 3201TIP3   OH231017   1.376   4.090   3.039  0.5398  0.5954  0.6274
 3201TIP3    H131018   1.403   4.059   3.125 -1.5149 -0.0207  1.1072
 3201TIP3    H231019   1.342   4.178   3.055  0.9371  0.8136  0.2858
 3202TIP3   OH231020   3.879   4.297   1.206 -0.3213  0.8724 -0.0806
 3202TIP3    H131021   3.955   4.345   1.239 -0.4636  2.0382 -1.3828
 3202TIP3    H231022   3.806   4.327   1.261 -0.1771  1.1865 -0.0560
 3203TIP3   OH231023   2.698   2.444  15.782 -0.3963  0.0326  0.4958
 3203TIP3    H131024   2.623   2.487  15.822  1.4362  2.3921  1.6651
 3203TIP3    H231025   2.762   2.436  15.852  0.7219 -1.2725 -0.6125
 3204TIP3   OH231026   6.520   3.560   2.998 -0.0673  0.1971 -0.3583
 3204TIP3    H131027   6.486   3.634   2.948  1.1539  0.9295 -0.1627
 3204TIP3    H231028   6.443   3.520   3.039 -0.8072  1.0093 -0.9420
 3205TIP3   OH231029   0.215   5.108  15.934  0.3942  0.1932  0.1035
 3205TIP3    H131030   0.300   5.111  15.891  0.6921  1.3210  0.7135
 3205TIP3    H231031   0.172   5.031  15.898  1.5083 -0.1556 -0.5229
 3206TIP3   OH231032   6.156   3.384  15.321  0.0589  0.1639 -0.5606
 3206TIP3    H131033   6.157   3.288  15.319  0.1411  0.1831 -1.4509
 3206TIP3    H231034   6.099   3.405  15.395  0.9217 -0.5693  0.3617
 3207TIP3   OH231035   3.278   4.405   4.997 -0.2138 -0.0828  0.2037
 3207TIP3    H131036   3.360   4.379   4.955  1.7838  3.6097  1.3257
 3207TIP3    H231037   3.253   4.487   4.953 -2.8074 -0.5667  0.5837
 3208TIP3   OH231038   5.035   0.630   6.354 -0.6992  0.2771 -0.1381
 3208TIP3    H131039   4.961   0.654   6.410 -0.8681 -0.8438  0.1289
 3208TIP3    H231040   5.100   0.699   6.370 -1.1261  0.4945  0.6950
 3209TIP3   OH231041   5.794   1.398   2.473  0.0987 -0.2954  0.3769
 3209TIP3    H131042   5.745   1.317   2.460 -2.4196  0.9194  1.4954
 3209TIP3    H231043   5.882   1.369   2.500 -0.3446 -2.6087 -0.4552
 3210TIP3   OH231044   6.767   5.361   0.326 -0.3137 -0.4934  0.4013
 3210TIP3    H131045   6.720   5.375   0.408  0.0958 -0.2990  0.6084
 3210TIP3    H231046   6.794   5.449   0.299 -0.0736 -0.6031  0.2819
 3211TIP3   OH231047   0.672   6.528  15.240 -0.3085  0.1804 -0.1371
 3211TIP3    H131048   0.589   6.482  15.250 -0.5961  0.7825  0.2773
 3211TIP3    H231049   0.731   6.463  15.201 -1.3646  0.1835 -1.8274
 3212TIP3   OH231050   4.081   4.237  12.294 -0.0519  0.3185 -0.0507
 3212TIP3    H131051   3.993   4.238  12.257  0.2726  3.6231 -1.0908
 3212TIP3    H231052   4.138   4.259  12.220  1.5243 -0.5958  0.8500
 3213TIP3   OH231053   4.125   1.103  11.533  0.2840 -0.0811  0.0928
 3213TIP3    H131054   4.217   1.121  11.514  0.2725  1.1440  1.0552
 3213TIP3    H231055   4.098   1.175  11.589 -1.1712 -0.6271  0.1333
 3214TIP3   OH231056   4.473   5.263   0.113  0.3545 -0.5524  0.0147
 3214TIP3    H131057   4.473   5.336   0.175 -1.1436 -0.3155 -0.2106
 3214TIP3    H231058   4.563   5.232   0.111  0.5299 -0.2519  1.9289
 3215TIP3   OH231059   6.484   4.287   2.048 -0.0454  0.5095  0.3204
 3215TIP3    H131060   6.506   4.295   1.955 -0.8582 -0.8743 -0.0218
 3215TIP3    H231061   6.465   4.376   2.076 -0.6438  0.8429 -1.0749
 3216TIP3   OH231062   2.165   2.214   0.405 -0.4786  0.2099 -0.4258
 3216TIP3    H131063   2.217   2.148   0.451 -0.3912 -0.2279 -1.1273
 3216TIP3    H231064   2.186   2.296   0.448 -0.4121 -0.1889  0.3209
 3217TIP3   OH231065   1.910   1.708  14.098 -0.4965  0.3929 -0.0180
 3217TIP3    H131066   1.916   1.622  14.057 -2.6878  0.8226 -1.4539
 3217TIP3    H231067   1.835   1.701  14.158  0.4401  0.8121  1.2445
 3218TIP3   OH231068   0.146   2.361  12.024  0.4513  0.0408 -0.0039
 3218TIP3    H131069   0.227   2.380  11.978  0.4361  1.4441  0.4894
 3218TIP3    H231070   0.090   2.319  11.959  1.9160 -1.9650 -0.0693
 3219TIP3   OH231071   6.663   6.605   0.883  0.0326 -0.6294  0.2695
 3219TIP3    H131072   6.737   6.664   0.893  0.5410 -0.8049 -1.9469
 3219TIP3    H231073   6.687   6.548   0.810 -2.4849 -0.3624 -0.8664
 3220TIP3   OH231074   3.366   5.619  11.310 -0.4193 -0.1153 -0.8698
 3220TIP3    H131075   3.447   5.586  11.271  0.9182 -0.0324  1.6428
 3220TIP3    H231076   3.379   5.713  11.317 -0.4581 -0.1797  0.1443
 3221TIP3   OH231077   1.661   5.815   2.773  0.3909 -0.0198 -0.4737
 3221TIP3    H131078   1.606   5.744   2.808  0.9315 -0.1983  0.0240
 3221TIP3    H231079   1.604   5.891   2.773 -0.3551 -0.5463 -1.4757
 3222TIP3   OH231080   5.388   3.888  15.592 -0.1937 -0.3748 -0.5347
 3222TIP3    H131081   5.372   3.797  15.570 -3.4235  0.0886 -0.6927
 3222TIP3    H231082   5.327   3.906  15.664 -0.6827  1.9671 -1.4389
 3223TIP3   OH231083   2.458   2.130   1.181  0.1568 -0.4373  0.1880
 3223TIP3    H131084   2.455   2.225   1.182 -0.4241 -0.4507  0.3568
 3223TIP3    H231085   2.376   2.104   1.138  0.3119 -0.8571  0.1410
 3224TIP3   OH231086   4.724   2.520  11.826  0.2310  0.4133 -0.1368
 3224TIP3    H131087   4.633   2.500  11.849  0.1733  0.7073 -0.0960
 3224TIP3    H231088   4.717   2.583  11.754  0.3400  2.3516  1.4363
 3225TIP3   OH231089   2.829   1.782  16.471  0.1421 -0.6315  0.3495
 3225TIP3    H131090   2.814   1.834  16.392  1.4740  0.0645  0.5213
 3225TIP3    H231091   2.748   1.732  16.483 -1.0195  1.0688 -0.0698
 3226TIP3   OH231092   4.517   6.235   4.548  0.9642 -0.4093 -0.0018
 3226TIP3    H131093   4.488   6.296   4.616 -1.6532 -1.0080 -0.4787
 3226TIP3    H231094   4.593   6.191   4.587 -0.0720 -0.3177  2.3320
 3227TIP3   OH231095   5.935   5.804   3.133 -0.2617 -0.3845  0.5638
 3227TIP3    H131096   5.947   5.883   3.080 -2.2370 -0.7474 -0.5257
 3227TIP3    H231097   5.985   5.820   3.213  1.5016  0.8624 -0.7068
 3228TIP3   OH231098   4.923   5.491  10.899  0.1917  0.2515  0.4795
 3228TIP3    H131099   4.839   5.529  10.874  0.5580  1.3347  0.8117
 3228TIP3    H231100   4.980   5.509  10.824  0.4421  0.6228  0.7547
 3229TIP3   OH231101   3.099   6.515   3.406 -0.3301 -0.0490  0.0319
 3229TIP3    H131102   3.104   6.585   3.471 -0.7295  0.8247 -0.8547
 3229TIP3    H231103   3.139   6.440   3.449  0.2641  0.7627  0.9520
 3230TIP3   OH231104   0.274   2.378   2.153  0.2301 -0.4037  0.3554
 3230TIP3    H131105   0.243   2.415   2.236  0.0796 -1.9889  1.0343
 3230TIP3    H231106   0.202   2.321   2.124  0.5865 -0.4350 -0.4928
 3231TIP3   OH231107   0.266   5.179  14.868  0.1742 -0.7774 -0.7688
 3231TIP3    H131108   0.247   5.172  14.961  0.3955  2.1207 -0.4002
 3231TIP3    H231109   0.191   5.225  14.831  1.5756  1.2336 -1.2927
 3232TIP3   OH231110   6.669   6.345  13.902 -1.0979 -0.0967  0.2846
 3232TIP3    H131111   6.615   6.279  13.945 -0.9119 -0.1805  0.3879
 3232TIP3    H231112   6.637   6.428  13.938  0.2117 -0.2568  1.8996
 3233TIP3   OH231113   3.207   3.167  12.633 -0.1327 -0.4017 -0.2150
 3233TIP3    H131114   3.226   3.261  12.634 -0.4294 -0.3132  1.6927
 3233TIP3    H231115   3.173   3.150  12.545 -0.5370  1.3706 -0.4456
 3234TIP3   OH231116   3.145   5.021  12.854  0.1714 -0.2812 -0.8261
 3234TIP3    H131117   3.103   4.953  12.802 -0.3033  0.0817 -0.9247
 3234TIP3    H231118   3.077   5.052  12.914  0.8417 -1.0150  0.3524
 3235TIP3   OH231119   0.849   2.684   4.297 -0.1828 -0.2425  0.1860
 3235TIP3    H131120   0.893   2.616   4.245  0.4204 -3.5731  4.4290
 3235TIP3    H231121   0.757   2.660   4.296 -0.5436  1.0467 -1.0161
 3236TIP3   OH231122   5.429   2.980  12.492 -0.5343 -0.1428  0.2772
 3236TIP3    H131123   5.413   2.975  12.586 -2.3969  0.2633  0.0149
 3236TIP3    H231124   5.465   3.068  12.479  0.7770 -0.5897  0.7180
 3237TIP3   OH231125   3.784   5.189  10.898  0.0801  0.3937  0.2840
 3237TIP3    H131126   3.692   5.217  10.898 -0.0637  0.0150  2.1513
 3237TIP3    H231127   3.785   5.113  10.841 -0.8520  0.1827  0.5251
 3238TIP3   OH231128   5.096   0.292  12.526 -0.3163 -0.2429 -0.1857
 3238TIP3    H131129   5.020   0.239  12.500  0.0411 -0.5058 -0.7045
 3238TIP3    H231130   5.168   0.257  12.475 -0.0774  0.7830 -0.5649
 3239TIP3   OH231131   5.608   3.481  14.468  0.1938  0.2560 -0.3590
 3239TIP3    H131132   5.582   3.407  14.523  0.7606  0.2183 -0.1344
 3239TIP3    H231133   5.557   3.555  14.502  0.6386  0.2623  0.3202
 3240TIP3   OH231134   6.244   4.529  16.919 -0.1719  0.0325 -0.2456
 3240TIP3    H131135   6.252   4.580  17.000  1.0155  0.7755 -0.7983
 3240TIP3    H231136   6.233   4.594  16.850 -1.0819 -0.5878 -0.7050
 3241TIP3   OH231137   3.292   0.398   0.789  0.5389  0.2567 -0.5295
 3241TIP3    H131138   3.310   0.333   0.721  0.4636  0.0387 -0.3461
 3241TIP3    H231139   3.236   0.463   0.747 -0.3195 -0.3924 -0.4131
 3242TIP3   OH231140   0.369   3.920  16.563  0.4333  0.3137  0.0883
 3242TIP3    H131141   0.442   3.943  16.504  0.0795 -1.0511 -0.9464
 3242TIP3    H231142   0.404   3.848  16.616 -0.2415 -0.6423 -0.7082
 3243TIP3   OH231143   4.853   6.652   3.997 -0.1430  0.1703  0.2368
 3243TIP3    H131144   4.933   6.610   4.030 -0.7934 -1.8726 -0.6836
 3243TIP3    H231145   4.793   6.580   3.980 -0.8082  1.3220 -2.8429
 3244TIP3   OH231146   1.123   0.814  12.179 -0.1283 -0.0532  0.3239
 3244TIP3    H131147   1.188   0.844  12.243  0.3395 -0.5708  0.0988
 3244TIP3    H231148   1.114   0.720  12.197  0.4165 -0.3125 -0.7314
 3245TIP3   OH231149   3.397   6.723  11.834  0.0407  0.0642  0.1826
 3245TIP3    H131150   3.442   6.803  11.808 -0.3380 -0.1695 -1.2736
 3245TIP3    H231151   3.467   6.658  11.843  0.2570  0.3415  0.5502
 3246TIP3   OH231152   4.419   4.081  13.685 -0.3433  0.2240  0.2116
 3246TIP3    H131153   4.475   4.018  13.729 -2.6561 -1.5343  0.8095
 3246TIP3    H231154   4.479   4.136  13.635  1.9545 -0.8507  1.6618
 3247TIP3   OH231155   0.701   3.780   4.329 -0.3754 -0.8127 -0.6878
 3247TIP3    H131156   0.775   3.739   4.284  2.6543  0.9340  2.2468
 3247TIP3    H231157   0.716   3.874   4.320 -2.6215 -0.3602 -0.4536
 3248TIP3   OH231158   2.381   0.993  13.544  0.1085  0.4299 -0.2888
 3248TIP3    H131159   2.434   0.969  13.620  1.3701 -2.3422 -1.8761
 3248TIP3    H231160   2.337   1.074  13.570  1.0696  0.0419  3.0581
 3249TIP3   OH231161   4.724   3.030  13.410 -0.6086 -0.4483  0.1198
 3249TIP3    H131162   4.718   3.045  13.504  0.4848  0.1720  0.1106
 3249TIP3    H231163   4.816   3.008  13.395 -0.8059 -0.7075 -0.7824
 3250TIP3   OH231164   1.731   4.534   6.204 -0.2565 -0.4456 -0.5743
 3250TIP3    H131165   1.760   4.465   6.145 -0.4092 -1.8743  0.9614
 3250TIP3    H231166   1.721   4.491   6.288 -0.0945  1.5200  0.5061
 3251TIP3   OH231167   2.610   0.140  11.838 -0.4140 -0.5757 -0.5358
 3251TIP3    H131168   2.617   0.053  11.798  0.6152 -0.8419  0.1797
 3251TIP3    H231169   2.697   0.156  11.874 -1.0012  0.1348  0.6069
 3252TIP3   OH231170   3.737   1.991  10.846 -0.3559  0.0502 -0.5606
 3252TIP3    H131171   3.739   2.054  10.918  0.3154 -1.6221  0.9605
 3252TIP3    H231172   3.645   1.964  10.841 -0.3400 -0.0915 -0.0941
 3253TIP3   OH231173   1.237   0.843  16.310 -0.1039 -0.1515 -0.0450
 3253TIP3    H131174   1.193   0.759  16.293  0.3769 -0.5668  0.6974
 3253TIP3    H231175   1.311   0.820  16.367  0.1320  0.7579  0.0272
 3254TIP3   OH231176   3.379   0.524  13.076 -0.0932 -0.0389 -0.1670
 3254TIP3    H131177   3.306   0.496  13.131  0.3269  1.7303  1.3659
 3254TIP3    H231178   3.455   0.479  13.111 -0.3686 -1.8564 -1.7433
 3255TIP3   OH231179   3.329   4.685  12.883  0.6122  0.5374  0.3074
 3255TIP3    H131180   3.299   4.756  12.826  1.1874 -0.6971 -1.6553
 3255TIP3    H231181   3.310   4.715  12.972 -0.0016  2.7223 -0.4993
 3256TIP3   OH231182   1.034   1.641  14.626  0.0905 -0.6171  0.0148
 3256TIP3    H131183   0.970   1.677  14.564  1.3660  0.6250 -0.6388
 3256TIP3    H231184   1.116   1.685  14.604  1.0677 -1.7694  1.1843
 3257TIP3   OH231185   0.347   1.194   6.146  0.3554  0.4503 -0.0060
 3257TIP3    H131186   0.396   1.124   6.104 -1.1027 -0.1354 -0.8039
 3257TIP3    H231187   0.360   1.270   6.088  0.1350  0.2342 -0.3436
 3258TIP3   OH231188   0.157   6.198  11.669 -0.8029  0.3357  0.1308
 3258TIP3    H131189   0.227   6.263  11.676  1.8612 -2.0763 -1.8322
 3258TIP3    H231190   0.155   6.175  11.576 -0.7914 -3.0921  0.8441
 3259TIP3   OH231191   2.225   5.774  16.838 -0.2004  0.5903 -0.3681
 3259TIP3    H131192   2.157   5.840  16.831  1.7329  3.2898  2.9580
 3259TIP3    H231193   2.199   5.720  16.913 -0.8556 -1.4303 -1.9520
 3260TIP3   OH231194   1.063   6.266  11.502 -0.1396 -0.4447  0.3426
 3260TIP3    H131195   1.132   6.309  11.552  0.3953 -0.8830 -0.0065
 3260TIP3    H231196   1.062   6.312  11.418 -0.0217 -0.6753  0.2142
 3261TIP3   OH231197   4.743   2.354   4.772  0.3236  0.1213 -0.2118
 3261TIP3    H131198   4.745   2.289   4.701  1.4074 -0.6229  0.4657
 3261TIP3    H231199   4.651   2.378   4.779  0.0468 -0.5429 -1.2015
 3262TIP3   OH231200   5.614   3.841  15.806 -0.2380  0.1417  0.7691
 3262TIP3    H131201   5.580   3.760  15.767  0.3213 -0.4856  1.5478
 3262TIP3    H231202   5.709   3.836  15.793 -0.1643  0.4805  1.1580
 3263TIP3   OH231203   1.232   6.314   5.925 -1.2891  0.3561  0.4455
 3263TIP3    H131204   1.306   6.277   5.877 -2.1393 -0.7302 -0.0662
 3263TIP3    H231205   1.206   6.390   5.873  0.8602  2.1650  1.8349
 3264TIP3   OH231206   2.863   2.798  13.219 -0.3106  0.1663 -0.0339
 3264TIP3    H131207   2.790   2.787  13.158 -0.2347 -0.4748 -0.0204
 3264TIP3    H231208   2.822   2.805  13.305 -0.3307 -1.1414  0.0839
 3265TIP3   OH231209   3.176   5.836  12.447 -0.2340 -0.3596 -0.5119
 3265TIP3    H131210   3.185   5.841  12.352 -1.0302  1.1325 -0.5430
 3265TIP3    H231211   3.264   5.853  12.481  0.1822 -1.5242 -0.9690
 3266TIP3   OH231212   1.867   2.446  12.411  0.4060 -0.1414 -0.0918
 3266TIP3    H131213   1.913   2.511  12.464  0.2361 -0.1629  0.0826
 3266TIP3    H231214   1.919   2.366  12.422  1.6981  0.4053 -1.8057
 3267TIP3   OH231215   0.877   1.524  10.984  0.0123  0.0067 -0.8666
 3267TIP3    H131216   0.924   1.608  10.987 -0.9193  0.5923 -2.0076
 3267TIP3    H231217   0.823   1.524  11.063 -0.4202  0.7537 -1.1523
 3268TIP3   OH231218   4.456   3.709  11.634  0.5482 -0.2450  0.0449
 3268TIP3    H131219   4.372   3.745  11.605  0.4057 -0.7671 -0.1892
 3268TIP3    H231220   4.452   3.616  11.613  1.4192 -0.1723 -0.5393
 3269TIP3   OH231221   5.374   0.980   2.131  0.4434 -0.0378 -0.5457
 3269TIP3    H131222   5.434   1.016   2.066  0.2048  0.3140 -0.5743
 3269TIP3    H231223   5.361   1.052   2.193 -0.7656  0.2407 -1.0985
 3270TIP3   OH231224   1.515   2.211   0.740  0.1137 -0.0631 -0.2070
 3270TIP3    H131225   1.424   2.185   0.752  0.2283 -0.2217  0.3261
 3270TIP3    H231226   1.566   2.136   0.770  0.4155 -0.4392 -1.5773
 3271TIP3   OH231227   1.470   4.492  14.880 -0.0933 -0.2660  0.2192
 3271TIP3    H131228   1.509   4.508  14.794 -0.6151 -0.7769 -0.1170
 3271TIP3    H231229   1.521   4.420  14.916 -0.1930 -0.3869  0.1225
 3272TIP3   OH231230   2.780   6.169   2.505  0.1933  0.3292  0.3826
 3272TIP3    H131231   2.769   6.153   2.411  0.0390 -2.1710  0.7378
 3272TIP3    H231232   2.874   6.155   2.520  0.0521 -0.3201  0.7240
 3273TIP3   OH231233   3.765   5.896  17.271 -0.2938 -0.2676  0.3164
 3273TIP3    H131234   3.854   5.862  17.268 -0.5283 -0.8472 -1.7727
 3273TIP3    H231235   3.764   5.968  17.208 -1.3835 -0.5171  0.0219
 3274TIP3   OH231236   0.800   0.107  14.546  0.4473 -0.1961  0.1055
 3274TIP3    H131237   0.780   0.114  14.639 -0.9008  1.1356 -0.2589
 3274TIP3    H231238   0.724   0.143  14.501  0.9776 -0.9993 -1.5360
 3275TIP3   OH231239   2.352   3.633   3.332  0.5744 -0.0771 -0.0140
 3275TIP3    H131240   2.288   3.665   3.269 -1.5762  0.0736  2.0844
 3275TIP3    H231241   2.436   3.665   3.299 -0.2755 -0.7945 -3.2108
 3276TIP3   OH231242   0.934   0.970  11.499  0.2172 -0.0196  0.1962
 3276TIP3    H131243   1.005   1.007  11.448  1.0366 -1.8462 -0.0561
 3276TIP3    H231244   0.932   1.022  11.579  0.5852  1.2482 -0.5948
 3277TIP3   OH231245   4.576   2.281  15.600 -0.1765 -0.1592 -0.3891
 3277TIP3    H131246   4.492   2.285  15.646  0.5017 -1.1727  1.0072
 3277TIP3    H231247   4.572   2.353  15.537 -1.7596  0.3356  0.2256
 3278TIP3   OH231248   0.348   0.040  15.994 -0.0058 -0.0949  0.0188
 3278TIP3    H131249   0.386   0.028  15.907  1.2517  0.6956  0.4226
 3278TIP3    H231250   0.367  -0.041  16.041  0.9023  0.1589  0.1022
 3279TIP3   OH231251   0.665   2.007   0.939 -0.2431  0.3476  0.2467
 3279TIP3    H131252   0.651   1.962   1.022  0.6025 -0.2293  0.0864
 3279TIP3    H231253   0.577   2.016   0.902 -0.4986 -0.5868  0.5980
 3280TIP3   OH231254   1.515   1.134  16.579  0.5458 -0.0738 -0.2561
 3280TIP3    H131255   1.534   1.224  16.603  0.2147 -0.7117  2.8209
 3280TIP3    H231256   1.426   1.137  16.544  0.5622  0.8067 -0.2395
 3281TIP3   OH231257   2.897   4.234   1.799  0.2210  0.2465  0.4668
 3281TIP3    H131258   2.919   4.328   1.798  0.5653  0.1674  0.2430
 3281TIP3    H231259   2.941   4.199   1.722  2.3467 -0.6176  1.9877
 3282TIP3   OH231260   0.554   2.874   0.635  0.3695 -0.2763 -0.2207
 3282TIP3    H131261   0.581   2.941   0.572 -0.3149  0.6591  0.4432
 3282TIP3    H231262   0.470   2.906   0.669 -0.1445 -1.6535 -0.1292
 3283TIP3   OH231263   1.668   1.222  12.610  0.4806  0.5615 -0.3988
 3283TIP3    H131264   1.681   1.127  12.612 -0.8541  0.3380 -0.9660
 3283TIP3    H231265   1.683   1.246  12.518 -1.8840  0.4291 -0.8812
 3284TIP3   OH231266   4.944   6.078   1.694 -0.2581  0.3486 -0.2115
 3284TIP3    H131267   4.881   6.140   1.655 -0.2665  0.1320 -0.5489
 3284TIP3    H231268   4.997   6.049   1.620 -0.5003 -0.3351 -0.1252
 3285TIP3   OH231269   1.996   5.661  10.842  0.4929  0.2316 -0.1544
 3285TIP3    H131270   1.904   5.669  10.866  0.1267 -1.9689 -0.6178
 3285TIP3    H231271   2.012   5.734  10.782 -1.0037  0.5315 -0.2266
 3286TIP3   OH231272   5.742   6.624   5.511  0.5596 -0.1292 -0.1293
 3286TIP3    H131273   5.715   6.535   5.535 -0.1515  0.1850  0.2716
 3286TIP3    H231274   5.819   6.641   5.565  0.3624 -0.3038  0.2124
 3287TIP3   OH231275   5.741   3.094  16.717  0.0006 -0.3380 -0.9274
 3287TIP3    H131276   5.648   3.073  16.723 -0.1445 -0.2439 -2.4676
 3287TIP3    H231277   5.743   3.184  16.684  0.6460  0.7495  1.8115
 3288TIP3   OH231278   5.668   5.655   3.348  0.1376 -0.0584  0.5737
 3288TIP3    H131279   5.648   5.708   3.270  1.8543 -1.5306 -0.9600
 3288TIP3    H231280   5.725   5.711   3.401  1.0788  0.0595 -0.5163
 3289TIP3   OH231281   2.375   2.730  16.708  0.1259  0.3797 -0.1040
 3289TIP3    H131282   2.419   2.770  16.633  0.8175  1.8039  1.0264
 3289TIP3    H231283   2.387   2.792  16.779 -1.6911 -0.3197  0.8639
 3290TIP3   OH231284   4.996   4.617   3.626  0.0694  0.5530  0.2322
 3290TIP3    H131285   5.046   4.690   3.661 -1.7081  2.6609 -1.3259
 3290TIP3    H231286   4.905   4.641   3.641 -0.5827 -1.5484 -0.0045
 3291TIP3   OH231287   4.154   2.097   3.513  0.0487 -0.1701 -0.6068
 3291TIP3    H131288   4.164   2.159   3.585  0.1658 -0.5381 -0.3026
 3291TIP3    H231289   4.140   2.152   3.436 -0.5186  0.2132 -0.2372
 3292TIP3   OH231290   2.770   4.483  11.858  0.8429  0.2146 -0.6712
 3292TIP3    H131291   2.738   4.562  11.901 -0.7958 -0.9284  0.3535
 3292TIP3    H231292   2.826   4.441  11.924 -1.6338 -1.5170  0.4855
 3293TIP3   OH231293   2.732   3.066   5.912  0.0131  0.1332 -0.5041
 3293TIP3    H131294   2.826   3.065   5.926  0.1040  1.6459 -0.8483
 3293TIP3    H231295   2.695   3.094   5.996 -0.0784  0.3872 -0.6309
 3294TIP3   OH231296   6.592   5.906   2.685 -0.1252 -0.2668  0.3175
 3294TIP3    H131297   6.645   5.879   2.610  0.5283 -2.0610  1.3420
 3294TIP3    H231298   6.629   5.989   2.713  1.5238 -0.9951  0.3852
 3295TIP3   OH231299   4.604   5.304   0.480  0.3259  0.0296  0.6515
 3295TIP3    H131300   4.595   5.361   0.403  0.2367 -3.0751 -1.8520
 3295TIP3    H231301   4.698   5.289   0.488  0.2427 -3.6830 -2.3671
 3296TIP3   OH231302   2.915   5.432  15.748 -0.2412 -0.0918  0.6052
 3296TIP3    H131303   2.949   5.487  15.677 -1.5873  1.2032  0.9253
 3296TIP3    H231304   2.851   5.487  15.793  0.7137 -0.7767  2.9835
 3297TIP3   OH231305   4.980   2.123   1.313  0.1942  0.3987  0.2743
 3297TIP3    H131306   4.974   2.116   1.408 -0.4599 -2.3427  0.1073
 3297TIP3    H231307   5.060   2.075   1.291 -0.9153 -1.1159 -0.6763
 3298TIP3   OH231308   2.064   2.323   1.677  0.1042  0.5752 -0.1383
 3298TIP3    H131309   2.159   2.311   1.668  0.2901 -0.3710  2.2606
 3298TIP3    H231310   2.026   2.273   1.605  1.4064  0.3937 -0.7248
 3299TIP3   OH231311   5.916   1.839   5.213 -0.1403  0.3726  0.6207
 3299TIP3    H131312   5.899   1.862   5.122 -0.3441  0.8285  0.7735
 3299TIP3    H231313   5.848   1.775   5.234  0.4340 -0.3940  0.1957
 3300TIP3   OH231314   0.490   0.447  14.149 -0.3159  0.0476 -0.3551
 3300TIP3    H131315   0.440   0.380  14.194 -2.0709  0.9275 -0.8976
 3300TIP3    H231316   0.446   0.529  14.172  1.0239  0.8922 -0.6824
 3301TIP3   OH231317   6.508   2.343   1.960  0.2096 -0.1761 -0.5979
 3301TIP3    H131318   6.485   2.269   1.905 -1.0838  0.0516 -0.4116
 3301TIP3    H231319   6.425   2.367   2.003  1.0051  0.1481  0.8274
 3302TIP3   OH231320   0.196   1.163   2.071  0.2179  0.0203 -0.0387
 3302TIP3    H131321   0.177   1.256   2.084  1.2068  0.2454 -0.1690
 3302TIP3    H231322   0.127   1.133   2.012 -0.4639  0.5191  0.4832
 3303TIP3   OH231323   0.211   4.942   2.206 -0.6468  0.3759  0.2556
 3303TIP3    H131324   0.159   5.020   2.188  0.3586  0.7698 -1.0787
 3303TIP3    H231325   0.296   4.975   2.235 -0.4996 -0.2352  0.5396
 3304TIP3   OH231326   4.546   5.270   0.753  0.5299  0.4663 -0.0296
 3304TIP3    H131327   4.553   5.242   0.662  1.1343  0.5344 -0.0114
 3304TIP3    H231328   4.475   5.334   0.753 -1.3413 -1.4927  0.0555
 3305TIP3   OH231329   5.910   3.764   3.172  0.2292 -0.5659 -0.0414
 3305TIP3    H131330   5.937   3.851   3.143 -1.1376  0.4224  1.4680
 3305TIP3    H231331   5.836   3.742   3.116 -0.0099 -0.3321  0.1791
 3306TIP3   OH231332   1.390   2.418   1.476 -0.7655  0.9676 -0.1860
 3306TIP3    H131333   1.417   2.390   1.564 -3.3712  0.8118  0.6245
 3306TIP3    H231334   1.316   2.362   1.455 -1.6197  2.5322 -1.5435
 3307TIP3   OH231335   1.876   1.359   2.619  0.1720 -0.0391 -0.5261
 3307TIP3    H131336   1.963   1.383   2.653  0.0946  0.9833 -1.0229
 3307TIP3    H231337   1.893   1.283   2.564  0.7826  0.2581 -0.7585
 3308TIP3   OH231338   3.264   0.807  11.501 -0.2739 -0.3467 -0.1482
 3308TIP3    H131339   3.200   0.873  11.526 -0.8216 -0.4485 -1.2224
 3308TIP3    H231340   3.349   0.847  11.522 -0.5009  1.4205 -2.2707
 3309TIP3   OH231341   3.592   3.877   1.012  0.2407  0.3134  0.6760
 3309TIP3    H131342   3.645   3.804   0.980 -1.6140 -0.4133 -0.9709
 3309TIP3    H231343   3.652   3.951   1.014  0.8935  0.1577 -3.5819
 3310TIP3   OH231344   2.633   4.197   2.750  0.1783 -0.2161 -0.3779
 3310TIP3    H131345   2.550   4.204   2.796  0.2984  1.0841 -0.3365
 3310TIP3    H231346   2.609   4.190   2.658 -0.0918 -3.4839 -0.1695
 3311TIP3   OH231347   2.436   4.077  16.366  0.0628  0.3945  0.8197
 3311TIP3    H131348   2.370   4.039  16.423 -0.3726  1.5369  1.1050
 3311TIP3    H231349   2.393   4.152  16.324  1.4535  1.8426  1.8469
 3312TIP3   OH231350   0.659   6.045   1.226 -0.4920  0.2212  0.2026
 3312TIP3    H131351   0.663   6.080   1.137 -1.5248  0.0087  0.0529
 3312TIP3    H231352   0.700   5.959   1.220  0.7862  0.8160  0.2663
 3313TIP3   OH231353   2.155   3.383   0.043 -0.0975  0.5003 -0.0380
 3313TIP3    H131354   2.154   3.417  -0.047  3.4665 -2.5909 -1.5054
 3313TIP3    H231355   2.242   3.406   0.076 -0.9851  0.7061  2.3132
 3314TIP3   OH231356   1.089   5.762  13.096 -0.4434 -0.7293 -0.0159
 3314TIP3    H131357   1.148   5.687  13.093 -2.1537 -2.1432 -0.1607
 3314TIP3    H231358   1.014   5.732  13.147 -0.4079  1.5152  1.4889
 3315TIP3   OH231359   1.100   0.615  16.252  0.6461  0.4100 -0.0660
 3315TIP3    H131360   1.066   0.543  16.306  0.5748  0.5079  0.0207
 3315TIP3    H231361   1.025   0.642  16.199  0.4689  0.9033  0.4274
 3316TIP3   OH231362   5.791   3.126   0.731 -0.3801  0.1435 -0.0253
 3316TIP3    H131363   5.801   3.106   0.638  1.7722  1.6789 -0.2195
 3316TIP3    H231364   5.881   3.132   0.763 -1.0533  1.2410  1.7901
 3317TIP3   OH231365   4.972   4.748  14.694 -0.1133 -0.4611  0.2007
 3317TIP3    H131366   5.060   4.784  14.684 -0.7523  0.8477 -1.2177
 3317TIP3    H231367   4.974   4.703  14.778  0.9436  2.4576  1.8988
 3318TIP3   OH231368   6.512   5.160   2.209  0.1216 -0.2513 -0.3980
 3318TIP3    H131369   6.519   5.255   2.200  0.3634  0.1108  2.5392
 3318TIP3    H231370   6.438   5.136   2.154 -0.1651  1.6926 -0.9312
 3319TIP3   OH231371   2.824   1.434  12.190 -0.0515  0.3973  0.2420
 3319TIP3    H131372   2.811   1.519  12.232 -1.1365  1.0986 -1.4191
 3319TIP3    H231373   2.812   1.451  12.097 -2.2738 -1.9417  0.0116
 3320TIP3   OH231374   2.410   1.320   1.240  0.5607  0.1290  0.5692
 3320TIP3    H131375   2.339   1.356   1.293 -0.6332 -0.0525 -0.8407
 3320TIP3    H231376   2.472   1.393   1.229  1.6415 -0.2363  3.4111
 3321TIP3   OH231377   2.562   0.497   2.190 -0.1896 -0.3073 -0.5078
 3321TIP3    H131378   2.597   0.478   2.103  0.2641 -1.0587 -0.1736
 3321TIP3    H231379   2.603   0.432   2.247 -0.8649 -0.1427  0.1834
 3322TIP3   OH231380   6.464   1.315  11.620  0.3010 -0.2822 -0.4415
 3322TIP3    H131381   6.531   1.380  11.641  1.1956 -0.9649 -1.0678
 3322TIP3    H231382   6.443   1.331  11.527 -0.1076 -0.3375 -0.3613
 3323TIP3   OH231383   1.426   6.392  11.977  0.2406 -0.0294 -0.1898
 3323TIP3    H131384   1.382   6.342  12.046  1.7272  0.7289  1.3856
 3323TIP3    H231385   1.439   6.329  11.906  1.8961 -1.9146  1.6439
 3324TIP3   OH231386   6.361   5.872  16.069  0.3952  0.1220 -0.1899
 3324TIP3    H131387   6.430   5.938  16.070  0.5300  0.0270 -1.7190
 3324TIP3    H231388   6.281   5.920  16.089  0.7412  0.4058  0.5611
 3325TIP3   OH231389   0.741   1.625  13.566 -0.0078 -0.2137  0.1866
 3325TIP3    H131390   0.787   1.574  13.500  0.8848  0.3089  0.3915
 3325TIP3    H231391   0.734   1.713  13.527  2.1646  0.6059  1.4816
 3326TIP3   OH231392   5.814   1.607   3.846 -0.9606  0.0681 -0.0211
 3326TIP3    H131393   5.843   1.516   3.858 -0.0901  0.3856  0.3315
 3326TIP3    H231394   5.781   1.633   3.932  1.0637  0.8624  0.5709
 3327TIP3   OH231395   1.286   2.732  12.746  0.7388  0.1591  0.8324
 3327TIP3    H131396   1.226   2.685  12.687  0.4994 -0.1060  1.2800
 3327TIP3    H231397   1.232   2.802  12.783  0.2811 -0.9102  2.2951
 3328TIP3   OH231398   3.214   3.039  16.569 -0.0529 -0.2625 -0.0197
 3328TIP3    H131399   3.172   3.121  16.593  0.5439  0.4107 -1.2109
 3328TIP3    H231400   3.240   3.050  16.478 -0.5055 -2.0145 -0.3979
 3329TIP3   OH231401   4.848   2.808   2.587  0.4485 -0.2655  0.3011
 3329TIP3    H131402   4.917   2.784   2.648 -0.4134 -1.7804  0.7489
 3329TIP3    H231403   4.888   2.871   2.527  1.6302  0.4006  1.7398
 3330TIP3   OH231404   5.327   5.811  11.116 -0.6768 -0.1773  0.2344
 3330TIP3    H131405   5.371   5.768  11.188  0.3007  3.5078  2.0911
 3330TIP3    H231406   5.388   5.804  11.042  0.6174  0.2410  1.2347
 3331TIP3   OH231407   4.002   1.664  11.216 -0.4875 -0.0879 -0.6841
 3331TIP3    H131408   4.081   1.702  11.256 -1.8407  2.6892 -0.4032
 3331TIP3    H231409   3.978   1.726  11.147 -2.0702 -1.2171 -1.2110
 3332TIP3   OH231410   5.760   6.027  16.608 -0.0153  0.3623 -0.1942
 3332TIP3    H131411   5.815   5.968  16.659 -0.2565  0.4375  0.1610
 3332TIP3    H231412   5.780   6.114  16.642  1.2628  0.6393 -1.5669
 3333TIP3   OH231413   5.118   0.835  11.835  0.2489  0.2959  0.1869
 3333TIP3    H131414   5.150   0.830  11.745  1.1376  2.2027  0.3360
 3333TIP3    H231415   5.024   0.847  11.827  0.5175  2.3596 -0.6317
 3334TIP3   OH231416   4.588   2.896  16.410  0.2920  0.5455 -0.5093
 3334TIP3    H131417   4.626   2.885  16.497 -1.6170 -0.5298  0.2533
 3334TIP3    H231418   4.625   2.978  16.378 -0.1316  1.8033  1.9814
 3335TIP3   OH231419   2.856   4.576  14.446  0.2807 -0.3343 -0.0304
 3335TIP3    H131420   2.861   4.548  14.537 -1.4082  2.8545  1.2099
 3335TIP3    H231421   2.929   4.637  14.435 -0.4665  0.5418 -0.2681
 3336TIP3   OH231422   3.294   4.822  15.887  0.4698  0.4522 -0.0845
 3336TIP3    H131423   3.250   4.907  15.895 -1.0588 -0.2506 -0.5404
 3336TIP3    H231424   3.305   4.809  15.793  0.0855 -0.1347 -0.0560
 3337TIP3   OH231425   4.314   5.828  12.277 -0.3641 -0.0225 -0.2219
 3337TIP3    H131426   4.252   5.756  12.291  0.9013 -1.1852 -0.4071
 3337TIP3    H231427   4.284   5.869  12.196 -1.2191 -0.2055 -0.0096
 3338TIP3   OH231428   0.664   6.765  16.182  0.3972  0.0279  0.4262
 3338TIP3    H131429   0.631   6.749  16.094 -0.2079  3.5317 -0.1174
 3338TIP3    H231430   0.749   6.720  16.185 -0.6152 -2.1715 -1.0137
 3339TIP3   OH231431   3.999   3.852  12.248  0.0846 -0.2497  0.5717
 3339TIP3    H131432   4.002   3.878  12.156 -0.3332 -0.3691  0.5216
 3339TIP3    H231433   3.923   3.899  12.284 -0.3383 -0.9495  0.6175
 3340TIP3   OH231434   5.612   3.429   2.620  0.1772  0.0426  0.5589
 3340TIP3    H131435   5.540   3.484   2.652  0.4134 -0.0060  1.1954
 3340TIP3    H231436   5.593   3.342   2.656  0.3210 -0.0742  0.3573
 3341TIP3   OH231437   4.548   0.645   6.082  0.8053 -0.4279 -0.3341
 3341TIP3    H131438   4.619   0.690   6.127  1.1680 -0.4352 -0.8882
 3341TIP3    H231439   4.529   0.569   6.137  1.1334 -0.3543 -0.1149
 3342TIP3   OH231440   0.843   3.818  15.645  0.3784  1.0155  0.4697
 3342TIP3    H131441   0.770   3.760  15.663  0.9002 -0.2882 -1.3379
 3342TIP3    H231442   0.812   3.876  15.576  1.5670 -0.8595 -1.7906
 3343TIP3   OH231443   1.888   6.086  14.437  0.0458  0.0175  0.1909
 3343TIP3    H131444   1.965   6.029  14.442 -0.1017 -0.1478  0.6884
 3343TIP3    H231445   1.882   6.111  14.345  1.5186  1.1902  0.3854
 3344TIP3   OH231446   5.648   5.377   3.376  0.1639 -0.4602  0.4222
 3344TIP3    H131447   5.663   5.471   3.380  2.6917 -0.7977  0.8343
 3344TIP3    H231448   5.582   5.361   3.443  1.0052  0.8560  1.6494
 3345TIP3   OH231449   5.010   0.647   4.658 -0.4978  0.1997 -0.3764
 3345TIP3    H131450   4.958   0.601   4.593 -1.4341  0.7990 -0.0805
 3345TIP3    H231451   4.995   0.740   4.638  0.0688  0.3808  0.0265
 3346TIP3   OH231452   2.112   4.090   0.627  0.0165 -0.1554 -0.1291
 3346TIP3    H131453   2.066   4.159   0.578 -2.4474 -0.8733  1.0199
 3346TIP3    H231454   2.054   4.014   0.620  1.4859 -1.3952  0.7021
 3347TIP3   OH231455   5.836   3.623  13.239  0.4535 -0.1654 -0.0168
 3347TIP3    H131456   5.870   3.534  13.252 -0.2701 -0.5756 -0.8239
 3347TIP3    H231457   5.802   3.623  13.150 -1.6234  0.2426  0.7205
 3348TIP3   OH231458   6.488   3.059  12.823  0.2654  0.0988  0.2308
 3348TIP3    H131459   6.493   3.077  12.729  1.5895  3.2250  0.7754
 3348TIP3    H231460   6.394   3.064  12.843  0.0551  0.4008 -0.7626
 3349TIP3   OH231461   5.039   0.935  12.151 -0.0858 -1.1872 -0.2976
 3349TIP3    H131462   5.059   0.965  12.239  2.7731 -1.3631 -0.7825
 3349TIP3    H231463   4.960   0.882  12.160  0.0726 -1.0971  2.1106
 3350TIP3   OH231464   6.076   3.668  12.075 -0.1142  0.4815 -0.0723
 3350TIP3    H131465   6.161   3.647  12.114 -0.0861  1.2814  0.3255
 3350TIP3    H231466   6.091   3.751  12.029 -0.7922  0.8922  0.4240
 3351TIP3   OH231467   0.759   4.723  13.019  0.4494  0.1599  0.3306
 3351TIP3    H131468   0.854   4.713  13.025  0.3027 -0.4732  2.8658
 3351TIP3    H231469   0.727   4.698  13.106 -1.8736  2.4697  0.2543
 3352TIP3   OH231470   3.251   3.133   1.265 -0.3955  0.5414  0.1139
 3352TIP3    H131471   3.159   3.130   1.292 -0.5823  3.1092 -0.0036
 3352TIP3    H231472   3.299   3.154   1.344 -0.2816  2.1612 -0.3526
 3353TIP3   OH231473   3.116   5.548  13.926 -0.0565  0.1402  0.3244
 3353TIP3    H131474   3.048   5.508  13.980  0.2923 -1.2756 -0.2571
 3353TIP3    H231475   3.134   5.484  13.858  0.2335  1.4622 -0.9031
 3354TIP3   OH231476   5.624   0.800  15.814  0.0744  0.1314 -0.5747
 3354TIP3    H131477   5.605   0.894  15.808 -0.8849 -0.0580 -0.6732
 3354TIP3    H231478   5.627   0.782  15.907  0.0206  0.2180 -0.5561
 3355TIP3   OH231479   1.475   2.026  12.200 -0.0825  0.1428  0.2537
 3355TIP3    H131480   1.536   2.067  12.262  0.4034 -1.4020  0.8486
 3355TIP3    H231481   1.523   2.026  12.117  0.2154  0.1072  0.4223
 3356TIP3   OH231482   6.007   0.420  11.688  0.3605 -0.1361  0.1608
 3356TIP3    H131483   6.083   0.362  11.691  1.0304  0.6932 -0.3243
 3356TIP3    H231484   6.002   0.450  11.597 -1.3881 -1.2428 -0.1647
 3357TIP3   OH231485   6.401   2.833   5.913 -0.1244 -0.5329  0.3076
 3357TIP3    H131486   6.340   2.832   5.987 -1.6702  0.4437 -0.8931
 3357TIP3    H231487   6.393   2.747   5.874 -0.7786 -0.4046  0.1451
 3358TIP3   OH231488   0.975   6.671  16.094 -0.0194  0.0512 -0.1084
 3358TIP3    H131489   1.016   6.586  16.105 -0.2807 -0.0465  0.1333
 3358TIP3    H231490   1.047   6.731  16.075  0.4748  0.2130  2.0182
 3359TIP3   OH231491   2.148   2.199  15.729  0.0618  0.7786  0.3461
 3359TIP3    H131492   2.053   2.212  15.726 -0.0069  0.2105 -0.4033
 3359TIP3    H231493   2.161   2.134  15.798 -0.0631  1.0395  0.6203
 3360TIP3   OH231494   0.628   0.681  15.816  0.2766 -0.5745 -0.0017
 3360TIP3    H131495   0.608   0.588  15.821  0.8079 -0.6917 -0.0713
 3360TIP3    H231496   0.564   0.715  15.753  0.1864 -0.9202 -0.1002
 3361TIP3   OH231497   6.480   6.338   0.156  0.0248 -0.6508  0.2360
 3361TIP3    H131498   6.568   6.316   0.184  0.5366 -0.0144 -0.8033
 3361TIP3    H231499   6.490   6.370   0.066 -1.0796  0.6625  0.5324
 3362TIP3   OH231500   2.329   3.314  15.773 -0.6296 -0.2144  0.7669
 3362TIP3    H131501   2.257   3.263  15.808 -0.5605  0.0352  1.2865
 3362TIP3    H231502   2.321   3.306  15.678 -0.7317 -1.0206  0.8376
 3363TIP3   OH231503   2.876   3.507   3.048 -0.0856  0.2025  0.2132
 3363TIP3    H131504   2.959   3.480   3.087  0.6573  2.4937  0.3488
 3363TIP3    H231505   2.858   3.592   3.087 -2.3030 -0.0440 -0.1478
 3364TIP3   OH231506   6.139   6.746   3.747  0.7160  0.1350  0.0811
 3364TIP3    H131507   6.185   6.729   3.665  2.1346  0.5249  0.7596
 3364TIP3    H231508   6.084   6.822   3.728  1.4137  0.5413 -0.3879
 3365TIP3   OH231509   2.084   2.660   2.245 -0.6197 -0.2280  0.0036
 3365TIP3    H131510   2.094   2.565   2.253  0.0046 -0.0586  1.9219
 3365TIP3    H231511   2.173   2.695   2.249 -0.7973  0.4358 -1.2439
 3366TIP3   OH231512   0.442   2.413  12.744  0.0847 -0.0126  0.3116
 3366TIP3    H131513   0.373   2.421  12.678  0.7046  0.9950 -0.2557
 3366TIP3    H231514   0.442   2.321  12.769 -2.3723  0.2066  1.3479
 3367TIP3   OH231515   4.740   4.826  12.145 -0.0745  0.6476 -0.0488
 3367TIP3    H131516   4.797   4.878  12.202 -0.4093  1.2291 -0.2364
 3367TIP3    H231517   4.652   4.844  12.176 -0.2322  0.6362 -0.4781
 3368TIP3   OH231518   1.539   1.848   2.157  0.5552  0.6520 -0.1779
 3368TIP3    H131519   1.618   1.880   2.201  0.4675  0.7788 -0.1135
 3368TIP3    H231520   1.552   1.870   2.064  0.1871  1.5024 -0.0374
 3369TIP3   OH231521   4.027   0.369  16.201  0.2066 -0.2841 -0.3441
 3369TIP3    H131522   4.073   0.336  16.279  0.4766  0.1052 -0.3351
 3369TIP3    H231523   3.969   0.438  16.235  0.0832 -0.3408 -0.4414
 3370TIP3   OH231524   5.590   4.914  16.362 -0.6439 -0.3518 -0.0223
 3370TIP3    H131525   5.677   4.927  16.399 -0.6398  2.3513 -0.7112
 3370TIP3    H231526   5.531   4.911  16.437 -0.0884 -0.8508  0.3956
 3371TIP3   OH231527   1.459   3.222   4.874 -0.4085 -0.1606  0.3384
 3371TIP3    H131528   1.442   3.178   4.957 -0.9771 -0.1963  0.2069
 3371TIP3    H231529   1.374   3.257   4.848 -0.4686 -1.1047 -0.7800
 3372TIP3   OH231530   0.740   2.986   2.513  0.3473  0.1269  0.1257
 3372TIP3    H131531   0.806   3.039   2.558  2.6283  0.4056 -3.2229
 3372TIP3    H231532   0.714   3.039   2.438  0.4001 -2.1649 -1.6244
 3373TIP3   OH231533   4.841   0.455  12.806 -0.6900 -0.1473  0.0812
 3373TIP3    H131534   4.850   0.377  12.751  0.0540 -1.2326  1.6604
 3373TIP3    H231535   4.746   0.465  12.817 -0.8418 -0.0959 -1.0962
 3374TIP3   OH231536   6.752   2.070  15.126 -0.4263  0.4837  0.6955
 3374TIP3    H131537   6.802   2.000  15.083 -0.7573 -0.3750  1.6582
 3374TIP3    H231538   6.670   2.074  15.076  0.0692  1.0069 -0.0908
 3375TIP3   OH231539   5.138   2.699   0.878  0.6885  0.3759  0.0647
 3375TIP3    H131540   5.073   2.668   0.941  1.0929  1.4312  1.0233
 3375TIP3    H231541   5.221   2.690   0.923  0.9900  1.0751 -0.3434
 3376TIP3   OH231542   2.605   5.453  16.872  0.6847  0.5923  0.1906
 3376TIP3    H131543   2.529   5.493  16.829 -0.4930 -2.6394 -0.9894
 3376TIP3    H231544   2.650   5.405  16.803  1.7766 -0.4445  1.5519
 3377TIP3   OH231545   5.173   2.719   2.304 -0.1574  0.6024 -0.3163
 3377TIP3    H131546   5.204   2.629   2.294  2.4824  1.3944 -0.0081
 3377TIP3    H231547   5.247   2.773   2.275 -1.4865  2.6866 -0.0099
 3378TIP3   OH231548   2.490   3.791   5.173 -0.6979  0.3230 -0.1516
 3378TIP3    H131549   2.521   3.703   5.192 -1.8187 -0.3101 -1.1643
 3378TIP3    H231550   2.565   3.836   5.136 -0.9220 -1.2281 -2.7237
 3379TIP3   OH231551   1.927   6.735  14.947  0.1892 -0.3447  0.0031
 3379TIP3    H131552   1.931   6.830  14.959 -2.1552 -0.1759 -0.1723
 3379TIP3    H231553   1.845   6.719  14.901 -1.2363 -2.6927  2.9910
 3380TIP3   OH231554   5.767   4.379  16.671  0.3181  0.2172 -0.1851
 3380TIP3    H131555   5.844   4.406  16.620 -1.2080  2.4553 -1.4736
 3380TIP3    H231556   5.715   4.326  16.611  0.1828 -0.1285  0.2306
 3381TIP3   OH231557   5.071   6.497   4.043 -0.4310  0.2382  0.1731
 3381TIP3    H131558   5.125   6.531   4.115  1.5234 -0.7893 -0.7345
 3381TIP3    H231559   5.073   6.402   4.054 -0.5514  0.0933 -0.9142
 3382TIP3   OH231560   1.990   5.556  14.843 -0.1088  0.0393 -0.2783
 3382TIP3    H131561   1.906   5.536  14.885  0.2205  0.8921  0.8413
 3382TIP3    H231562   2.036   5.472  14.841 -0.4196 -0.1562  0.4415
 3383TIP3   OH231563   5.464   4.229   0.254 -0.2833 -0.0171  0.5630
 3383TIP3    H131564   5.404   4.192   0.188 -1.1623  0.2321  1.2041
 3383TIP3    H231565   5.415   4.224   0.336  1.5721 -2.3798  1.6821
 3384TIP3   OH231566   1.092   6.026   1.318  0.9054  0.1601 -0.5942
 3384TIP3    H131567   1.028   6.074   1.266  0.0881  2.0459  1.9481
 3384TIP3    H231568   1.173   6.031   1.266 -0.5331 -0.9351 -3.1429
 3385TIP3   OH231569   3.240   5.531  13.556 -0.2498 -0.3295 -0.1419
 3385TIP3    H131570   3.246   5.602  13.621  0.0048 -0.7475  0.2960
 3385TIP3    H231571   3.159   5.485  13.579 -0.1051 -0.5407 -0.0566
 3386TIP3   OH231572   1.947   5.875  12.778 -0.7771 -0.0194  0.0823
 3386TIP3    H131573   1.898   5.956  12.764 -0.0567  0.3945 -0.1001
 3386TIP3    H231574   2.030   5.890  12.733  0.3615  0.1072  2.1364
 3387TIP3   OH231575   5.445   4.787   3.519  0.0366 -0.6898 -0.2205
 3387TIP3    H131576   5.419   4.846   3.589 -0.9255  0.9689 -1.8997
 3387TIP3    H231577   5.374   4.791   3.456  1.2452 -1.4588 -1.7015
 3388TIP3   OH231578   3.411   6.703  15.283  0.5455 -0.0060  0.3918
 3388TIP3    H131579   3.462   6.637  15.329 -1.2839 -0.4358  1.9261
 3388TIP3    H231580   3.393   6.770  15.349 -2.7040 -0.9498  0.6554
 3389TIP3   OH231581   6.222   5.676  12.370 -0.2721  0.2672  0.0768
 3389TIP3    H131582   6.254   5.751  12.421 -1.1018  0.2745  0.5977
 3389TIP3    H231583   6.262   5.687  12.284  1.0119  0.3608  0.6583
 3390TIP3   OH231584   0.456   2.239   2.438 -0.0160  0.4042 -0.2675
 3390TIP3    H131585   0.513   2.164   2.457 -0.7658  0.3981  2.1893
 3390TIP3    H231586   0.513   2.300   2.390  1.3185 -0.6596 -0.1052
 3391TIP3   OH231587   6.111   4.197   0.758  0.0714 -0.2780  0.5746
 3391TIP3    H131588   6.151   4.110   0.764 -1.1313 -0.7927  1.4778
 3391TIP3    H231589   6.129   4.225   0.668 -0.1210 -1.7777  0.0387
 3392TIP3   OH231590   1.595   4.898   2.928 -0.6837  0.8828 -0.2099
 3392TIP3    H131591   1.538   4.963   2.887 -0.7826  0.6184 -0.4934
 3392TIP3    H231592   1.548   4.815   2.917 -0.3873  0.7098 -0.1702
 3393TIP3   OH231593   5.310   0.729   4.105  0.1097 -0.0932 -0.3136
 3393TIP3    H131594   5.279   0.692   4.188  0.5778 -0.3366 -0.2393
 3393TIP3    H231595   5.330   0.653   4.051  0.9584  0.0425 -0.2059
 3394TIP3   OH231596   5.517   1.481  12.014 -0.3794 -0.0834  0.1502
 3394TIP3    H131597   5.497   1.412  12.078  0.1539  1.0371  1.5679
 3394TIP3    H231598   5.589   1.446  11.962 -0.8502 -1.0311  0.1195
 3395TIP3   OH231599   3.837   0.906  16.534 -0.2362  0.3463 -0.0445
 3395TIP3    H131600   3.765   0.965  16.556 -0.1701  0.6653 -0.6629
 3395TIP3    H231601   3.846   0.913  16.439 -1.3973 -2.0333 -0.3906
 3396TIP3   OH231602   2.270   0.417   3.325 -0.0052  0.2152  0.3690
 3396TIP3    H131603   2.338   0.376   3.378  0.2295  2.6342  2.0972
 3396TIP3    H231604   2.316   0.446   3.246  0.2718 -0.8838  0.1119
 3397TIP3   OH231605   5.084   4.126  10.664  0.3585 -0.0878 -0.2937
 3397TIP3    H131606   5.042   4.040  10.674  0.0207 -0.0788 -1.4660
 3397TIP3    H231607   5.174   4.106  10.640  0.4009 -0.1175 -0.1073
 3398TIP3   OH231608   0.215   5.789   1.703 -0.3140 -0.0602 -0.2461
 3398TIP3    H131609   0.134   5.756   1.663  0.7480 -1.6541 -1.2022
 3398TIP3    H231610   0.278   5.792   1.630  1.0348 -0.7821  0.8373
 3399TIP3   OH231611   3.402   6.648  12.839 -0.2097 -0.0901  0.4452
 3399TIP3    H131612   3.339   6.585  12.807 -0.8029  0.2856  0.8577
 3399TIP3    H231613   3.350   6.711  12.890  0.1453  1.4798 -1.0300
 3400TIP3   OH231614   6.761   0.124  10.765  0.4331 -0.2349  0.0100
 3400TIP3    H131615   6.723   0.105  10.851 -0.9293 -0.5163 -0.6223
 3400TIP3    H231616   6.808   0.207  10.778  0.3673 -0.3434  1.0579
 3401TIP3   OH231617   2.112   3.408   1.047 -0.1914 -0.2165  0.0158
 3401TIP3    H131618   2.039   3.462   1.017 -1.0199 -0.3279  1.7503
 3401TIP3    H231619   2.118   3.425   1.141  1.0657 -1.3436  0.1686
 3402TIP3   OH231620   3.600   3.110  14.291  0.3950 -0.1442  0.2025
 3402TIP3    H131621   3.565   3.036  14.341  0.5383 -0.7594 -0.5839
 3402TIP3    H231622   3.522   3.156  14.261  0.2822 -0.4600 -0.0016
 3403TIP3   OH231623   1.813   0.474  11.291  0.0090 -0.2980  0.2894
 3403TIP3    H131624   1.757   0.409  11.248 -0.8444 -0.1659  1.1709
 3403TIP3    H231625   1.852   0.523  11.218 -0.1647 -1.0884 -0.3637
 3404TIP3   OH231626   4.377   5.440   1.395 -0.5156  0.0223  0.4692
 3404TIP3    H131627   4.427   5.425   1.315 -0.0141 -0.0464  0.7947
 3404TIP3    H231628   4.328   5.358   1.409 -0.2142 -0.1504  0.5092
 3405TIP3   OH231629   6.452   0.241   4.820 -0.2848  0.0529  0.8124
 3405TIP3    H131630   6.371   0.234   4.769 -0.7315 -1.1474  1.6664
 3405TIP3    H231631   6.508   0.297   4.766 -0.5107 -1.6223 -1.3228
 3406TIP3   OH231632   6.542   1.324   3.960 -0.2603  0.1598 -1.0373
 3406TIP3    H131633   6.456   1.343   3.921 -1.0228 -1.6174 -0.3202
 3406TIP3    H231634   6.530   1.341   4.054  0.0255 -0.4941 -0.8742
 3407TIP3   OH231635   5.913   2.097  16.839 -0.1604 -0.0111 -0.2006
 3407TIP3    H131636   5.944   2.021  16.889 -0.1378  1.4173  2.0833
 3407TIP3    H231637   5.824   2.113  16.872 -0.3026  0.7412 -0.9144
 3408TIP3   OH231638   5.579   3.488  14.194 -0.0532 -0.5570  0.5615
 3408TIP3    H131639   5.568   3.495  14.288 -1.6214  0.8165  0.3067
 3408TIP3    H231640   5.672   3.467  14.183  0.0499 -1.2616  2.4016
 3409TIP3   OH231641   6.700   1.870  16.392 -0.3841 -0.3371  0.0410
 3409TIP3    H131642   6.791   1.880  16.422  0.1176  0.9715 -1.7106
 3409TIP3    H231643   6.683   1.949  16.341 -2.9349 -0.0133  1.2254
 3410TIP3   OH231644   6.000   4.651   3.928 -0.0183  0.2397  0.3749
 3410TIP3    H131645   5.951   4.732   3.922 -0.6583 -0.1213  0.6276
 3410TIP3    H231646   6.007   4.634   4.022  3.1521  1.7999  0.5671
 3411TIP3   OH231647   3.858   0.247   3.869  0.5035 -0.4807  0.5700
 3411TIP3    H131648   3.907   0.165   3.868 -2.7544 -2.5953 -0.7071
 3411TIP3    H231649   3.805   0.242   3.949 -0.3072 -0.0217  0.0695
 3412TIP3   OH231650   2.070   6.326   5.043 -0.1253 -0.1780  0.2264
 3412TIP3    H131651   1.975   6.313   5.047 -0.0735 -0.2360  2.2219
 3412TIP3    H231652   2.094   6.301   4.954 -2.1537  1.1569 -0.7632
 3413TIP3   OH231653   3.935   2.400  11.408 -0.1149 -0.0944  0.4806
 3413TIP3    H131654   3.934   2.358  11.322 -1.7960  1.1079 -0.1413
 3413TIP3    H231655   3.997   2.348  11.459 -1.2906 -2.7014 -0.5440
 3414TIP3   OH231656   4.433   5.585  16.567 -0.2275 -0.3208 -0.8419
 3414TIP3    H131657   4.369   5.554  16.631 -0.2228  2.7105  0.8462
 3414TIP3    H231658   4.381   5.620  16.496 -0.3052 -1.1666 -1.2139
 3415TIP3   OH231659   2.188   3.563  16.350  0.3042 -0.2366  0.1349
 3415TIP3    H131660   2.192   3.564  16.446 -1.3334 -0.5891  0.2289
 3415TIP3    H231661   2.230   3.645  16.324 -0.1882  0.3786  1.2040
 3416TIP3   OH231662   0.420   3.225   0.348 -0.3789 -0.8056  0.0113
 3416TIP3    H131663   0.337   3.272   0.352 -0.7062 -1.4394  1.6223
 3416TIP3    H231664   0.396   3.132   0.350  0.3395 -1.0001  0.0131
 3417TIP3   OH231665   4.940   2.510   1.730 -0.2730 -0.1013 -0.1655
 3417TIP3    H131666   4.876   2.541   1.793 -0.1478  2.4216 -1.1211
 3417TIP3    H231667   4.997   2.586   1.715  0.5714 -1.0462 -2.1978
 3418TIP3   OH231668   0.622   3.011   5.436 -0.0647  0.0161  0.1311
 3418TIP3    H131669   0.567   2.996   5.359  1.6016  0.5549 -1.2479
 3418TIP3    H231670   0.602   2.939   5.495 -2.8619  0.6833  0.1109
 3419TIP3   OH231671   6.591   4.248   5.134  0.0594  0.1131 -0.0184
 3419TIP3    H131672   6.498   4.230   5.148 -0.2838  1.9436  0.3020
 3419TIP3    H231673   6.632   4.161   5.129 -1.0906 -0.8314  3.5416
 3420TIP3   OH231674   1.963   3.831   1.334 -0.0163  0.4884  0.2588
 3420TIP3    H131675   1.996   3.921   1.341  0.0386  0.5440 -0.6344
 3420TIP3    H231676   2.040   3.777   1.352  0.3050  0.6261 -0.6060
 3421TIP3   OH231677   5.378   1.384   5.172 -0.1534  0.0339  0.5490
 3421TIP3    H131678   5.465   1.345   5.166  1.1539  2.7187  0.6277
 3421TIP3    H231679   5.336   1.339   5.245  0.6301 -2.2154 -0.3191
 3422TIP3   OH231680   1.220   4.673   2.627  0.3134 -0.9724 -0.3591
 3422TIP3    H131681   1.191   4.593   2.583  2.1671 -1.5539 -0.6056
 3422TIP3    H231682   1.242   4.644   2.716 -2.5888  0.0289  0.8097
 3423TIP3   OH231683   4.109   1.882   3.354  0.3597 -0.4652 -0.5704
 3423TIP3    H131684   4.105   1.964   3.404 -1.2890  0.7414 -2.5047
 3423TIP3    H231685   4.186   1.892   3.298  0.0140 -0.0836 -0.9908
 3424TIP3   OH231686   2.091   3.479   0.450  0.1739 -0.0841 -0.1359
 3424TIP3    H131687   2.158   3.459   0.516  0.2001 -0.2010 -0.1973
 3424TIP3    H231688   2.141   3.489   0.368  0.1046 -0.2693 -0.2002
 3425TIP3   OH231689   3.844   6.064   4.366 -0.5381  0.7524 -0.6660
 3425TIP3    H131690   3.770   6.027   4.319 -1.4576  0.2475  1.0831
 3425TIP3    H231691   3.806   6.101   4.446  1.1443 -0.1522  0.6248
 3426TIP3   OH231692   6.124   1.002  15.645 -0.1393  0.1481 -0.1842
 3426TIP3    H131693   6.155   1.048  15.723  0.8641 -0.4922 -0.1893
 3426TIP3    H231694   6.029   1.001  15.655 -0.0282  0.0287  1.0611
 3427TIP3   OH231695   4.757   3.912   5.052  0.3762  0.6371 -0.2733
 3427TIP3    H131696   4.683   3.875   5.004 -0.1141  1.3584 -0.0823
 3427TIP3    H231697   4.741   3.887   5.143  1.9510 -1.8184 -0.5802
 3428TIP3   OH231698   1.901   1.248   0.965 -0.0548  0.0347  0.1482
 3428TIP3    H131699   1.857   1.330   0.943 -1.3458  0.5638  4.0484
 3428TIP3    H231700   1.981   1.275   1.010 -0.8092 -0.7317  2.0555
 3429TIP3   OH231701   3.394   5.198  12.433 -0.3057  0.4768  0.3084
 3429TIP3    H131702   3.402   5.104  12.445  0.1793  0.0795 -2.4455
 3429TIP3    H231703   3.363   5.231  12.517 -1.0401 -2.1875  1.1609
 3430TIP3   OH231704   3.464   1.032  13.278  0.0858  0.1331  0.3301
 3430TIP3    H131705   3.461   1.022  13.373  0.5972  1.3210  0.4934
 3430TIP3    H231706   3.556   1.017  13.256 -0.1824 -0.9843 -0.1020
 3431TIP3   OH231707   3.697   0.710  12.340 -0.3534  0.2254 -0.1284
 3431TIP3    H131708   3.756   0.760  12.397  1.7136 -0.6697 -1.3682
 3431TIP3    H231709   3.653   0.777  12.288 -1.0244  0.9567  1.3174
 3432TIP3   OH231710   3.240   0.648   0.151  0.0977  0.1901 -0.0551
 3432TIP3    H131711   3.153   0.619   0.121  1.4256 -2.5436 -1.6004
 3432TIP3    H231712   3.252   0.605   0.235  1.2225 -2.3271 -1.3975
 3433TIP3   OH231713   6.272   4.092  10.998  0.0881  0.0918 -0.1456
 3433TIP3    H131714   6.302   4.178  11.030  3.3031 -1.0268  0.2527
 3433TIP3    H231715   6.257   4.041  11.078 -3.1406  0.5473 -0.3328
 3434TIP3   OH231716   2.110   5.615   3.518 -0.1402 -0.0218  0.3439
 3434TIP3    H131717   2.070   5.660   3.591 -2.5860  0.2256 -1.0511
 3434TIP3    H231718   2.127   5.683   3.453 -2.0695 -0.7331 -1.0055
 3435TIP3   OH231719   2.020   4.502   1.413  0.0533  0.0442 -0.7141
 3435TIP3    H131720   1.938   4.523   1.457 -1.3499 -1.7099 -2.3299
 3435TIP3    H231721   2.031   4.408   1.426  2.0694  0.3063 -0.1821
 3436TIP3   OH231722   5.832   0.527  12.870 -0.2704  0.3018 -0.0855
 3436TIP3    H131723   5.891   0.468  12.823 -0.2440  0.9687 -0.9040
 3436TIP3    H231724   5.748   0.519  12.825 -0.9019 -0.8072  1.2084
 3437TIP3   OH231725   4.150   5.688  13.077 -0.0129 -0.0020  0.0706
 3437TIP3    H131726   4.206   5.658  13.006  0.0011 -1.7772  0.7839
 3437TIP3    H231727   4.082   5.621  13.084 -0.7389  0.7893  0.9163
 3438TIP3   OH231728   5.578   6.257   0.876 -0.2478  0.1835 -0.1368
 3438TIP3    H131729   5.531   6.308   0.810 -3.8216 -1.1311  1.1330
 3438TIP3    H231730   5.646   6.210   0.827 -0.6968  1.6417 -2.2677
 3439TIP3   OH231731   5.872   1.667   0.547 -0.3696  0.7292 -0.3998
 3439TIP3    H131732   5.874   1.581   0.590 -0.8145 -0.3496 -2.3977
 3439TIP3    H231733   5.849   1.728   0.617 -0.2775 -0.7955  1.0367
 3440TIP3   OH231734   1.912   3.826   4.140  0.2415 -0.2314 -0.1607
 3440TIP3    H131735   1.938   3.917   4.149 -1.4876  0.1452  1.9926
 3440TIP3    H231736   1.992   3.780   4.115  1.0676  1.8957 -1.6684
 3441TIP3   OH231737   4.657   0.438  11.886  0.3304  0.7980 -0.3219
 3441TIP3    H131738   4.724   0.465  11.949  0.9067  2.3693 -1.5511
 3441TIP3    H231739   4.593   0.509  11.887 -0.8234 -0.2140  0.0932
 3442TIP3   OH231740   1.311   6.475   0.431 -0.3272  0.0048  0.4364
 3442TIP3    H131741   1.225   6.476   0.473 -0.4234  0.1451  0.2384
 3442TIP3    H231742   1.371   6.506   0.499 -0.4471 -0.0049  0.5469
 3443TIP3   OH231743   2.759   6.414  11.636 -0.0386  0.6469  0.0480
 3443TIP3    H131744   2.724   6.487  11.585  2.7465  1.8922 -0.2304
 3443TIP3    H231745   2.849   6.404  11.606  1.2605  0.3696  3.5797
 3444TIP3   OH231746   5.691   5.338  13.404  0.0521  0.0574  0.1158
 3444TIP3    H131747   5.647   5.293  13.477 -1.2853 -0.7219 -1.1057
 3444TIP3    H231748   5.745   5.404  13.446  0.1484 -1.0575  1.8650
 3445TIP3   OH231749   5.799   6.038   4.322  0.0795 -0.0704 -0.1230
 3445TIP3    H131750   5.771   6.097   4.252  1.1889  0.9378  0.2439
 3445TIP3    H231751   5.748   6.065   4.398  1.5252  1.3661  0.3916
 3446TIP3   OH231752   2.580   6.662  14.499 -0.2122 -0.1352  0.4942
 3446TIP3    H131753   2.582   6.585  14.556 -1.1541  0.0884  0.8453
 3446TIP3    H231754   2.489   6.691  14.500 -0.3373 -0.3026 -1.3615
 3447TIP3   OH231755   3.374   5.696   5.229 -0.5382  0.0911 -0.1575
 3447TIP3    H131756   3.310   5.652   5.284  0.0165  1.5930  1.7990
 3447TIP3    H231757   3.441   5.727   5.290  1.1090  0.1703 -1.9157
 3448TIP3   OH231758   5.364   3.333  16.393 -0.2068 -0.2273 -0.1420
 3448TIP3    H131759   5.327   3.386  16.464  1.9700  0.5740  0.4635
 3448TIP3    H231760   5.423   3.272  16.437  0.7176 -0.1202 -1.1863
 3449TIP3   OH231761   4.257   1.950  13.739  0.2674 -0.0804  0.4669
 3449TIP3    H131762   4.311   1.906  13.805  0.0973  1.2869  1.5740
 3449TIP3    H231763   4.206   2.014  13.789 -1.8565 -0.8019 -0.6263
 3450TIP3   OH231764   0.892   2.926  13.902  0.3528 -0.3419 -0.3241
 3450TIP3    H131765   0.942   3.006  13.915 -3.6524  2.2873  0.9763
 3450TIP3    H231766   0.865   2.900  13.990 -2.1493 -0.3376 -1.0111
 3451TIP3   OH231767   0.443   4.359   4.232 -0.1627  0.1468 -0.6577
 3451TIP3    H131768   0.358   4.330   4.263  0.4180  0.2211  1.1369
 3451TIP3    H231769   0.460   4.305   4.155 -1.1146 -1.0304 -0.0876
 3452TIP3   OH231770   2.891   4.021  15.697  0.1175  0.0479  0.0469
 3452TIP3    H131771   2.916   4.059  15.613  1.6870  2.2544  1.4069
 3452TIP3    H231772   2.864   4.095  15.750 -1.7007 -1.3967  1.2654
 3453TIP3   OH231773   1.668   1.492   5.642  0.2450 -0.4617 -0.3270
 3453TIP3    H131774   1.670   1.562   5.707 -3.4913  0.0559 -0.6059
 3453TIP3    H231775   1.760   1.480   5.618  1.3756  1.9319  2.2251
 3454TIP3   OH231776   1.027   5.954  14.674  0.2269  0.2671 -0.1453
 3454TIP3    H131777   1.014   5.926  14.584  0.4324  3.4587 -1.2717
 3454TIP3    H231778   1.121   5.969  14.682  0.4674 -1.5603  1.1948
 3455TIP3   OH231779   5.295   1.809  16.576  0.7744  0.4511 -0.3896
 3455TIP3    H131780   5.205   1.793  16.548  0.6746 -0.7829  0.5415
 3455TIP3    H231781   5.336   1.723  16.576  2.2038  1.0854 -1.5493
 3456TIP3   OH231782   3.428   4.469  15.874  0.3150 -0.1112  0.0261
 3456TIP3    H131783   3.474   4.546  15.842  1.0921  0.0777  1.5012
 3456TIP3    H231784   3.497   4.407  15.897 -0.1507 -0.0970  1.6136
 3457TIP3   OH231785   5.176   1.376  14.762  0.2264  0.8066  0.1932
 3457TIP3    H131786   5.216   1.335  14.685 -0.8570  0.9738 -0.4823
 3457TIP3    H231787   5.161   1.466  14.735 -1.4305  0.5265  0.0838
 3458TIP3   OH231788   2.773   3.282  16.040  0.2647 -0.2786 -0.5483
 3458TIP3    H131789   2.707   3.325  15.984 -0.9225 -0.5948  0.5566
 3458TIP3    H231790   2.812   3.353  16.090 -0.5460 -0.2842  0.1078
 3459TIP3   OH231791   2.408   3.631   1.163 -0.5811 -0.8488 -0.0830
 3459TIP3    H131792   2.474   3.700   1.147  0.1239 -1.0660  1.6151
 3459TIP3    H231793   2.342   3.645   1.095  0.8087 -0.1022 -1.3481
 3460TIP3   OH231794   3.704   5.334   5.587  0.1537 -0.0223 -0.1011
 3460TIP3    H131795   3.686   5.242   5.605  0.7879  0.0010  0.7551
 3460TIP3    H231796   3.629   5.365   5.537 -0.2519 -0.9036 -0.0466
 3461TIP3   OH231797   4.822   3.434   2.547 -0.3669  0.5834 -0.0728
 3461TIP3    H131798   4.817   3.355   2.493 -1.6222 -0.5291  1.5660
 3461TIP3    H231799   4.909   3.431   2.586 -0.7456 -0.5632  0.7414
 3462TIP3   OH231800   0.385   5.015   3.935 -0.1302 -0.1466  0.1884
 3462TIP3    H131801   0.437   4.994   4.013  0.9988  1.9994  0.0846
 3462TIP3    H231802   0.310   5.063   3.969  0.3309  0.7361 -0.0118
 3463TIP3   OH231803   5.087   3.626   2.590  0.2791  0.2629  0.8506
 3463TIP3    H131804   5.099   3.719   2.568  0.1709  0.4844  1.6755
 3463TIP3    H231805   5.037   3.627   2.672  1.2023 -0.4886  1.4512
 3464TIP3   OH231806   0.629   5.870   1.815  0.2845  0.0868 -0.2519
 3464TIP3    H131807   0.725   5.867   1.812  0.2592 -0.3927 -0.7833
 3464TIP3    H231808   0.605   5.806   1.883  0.3101 -0.5676 -0.8455
 3465TIP3   OH231809   4.724   6.122  13.739 -0.3212  0.3284 -0.2553
 3465TIP3    H131810   4.770   6.038  13.740 -2.3714 -0.9512 -2.6778
 3465TIP3    H231811   4.636   6.101  13.708 -1.2928  3.2298  0.2388
 3466TIP3   OH231812   2.096   1.307  14.991  0.6343  0.1353 -0.3822
 3466TIP3    H131813   2.005   1.286  15.012  0.6423  0.5942  0.1156
 3466TIP3    H231814   2.091   1.376  14.925  0.5749  2.4619  1.8798
 3467TIP3   OH231815   0.907   4.750  17.314 -0.0005  0.5723  0.1067
 3467TIP3    H131816   0.960   4.802  17.374 -1.6790  2.3743  0.1179
 3467TIP3    H231817   0.819   4.750  17.353 -0.6698  0.0943 -1.3325
 3468TIP3   OH231818   6.688   2.192   6.042 -0.1698  0.3066  0.7590
 3468TIP3    H131819   6.674   2.129   5.971 -2.0795  1.3984  0.0614
 3468TIP3    H231820   6.760   2.247   6.012  0.0217 -0.1571  0.3559
 3469TIP3   OH231821   1.434   5.279   0.491 -0.2209 -0.2339 -0.3114
 3469TIP3    H131822   1.470   5.203   0.537 -0.8163  0.5241  1.4756
 3469TIP3    H231823   1.505   5.343   0.493 -0.4956  0.0544  0.1851
 3470TIP3   OH231824   2.502   0.167   0.874  0.1910  0.6277  0.7122
 3470TIP3    H131825   2.593   0.195   0.858 -0.2179  1.4740 -0.2458
 3470TIP3    H231826   2.506   0.072   0.878  0.9811  0.6086 -0.2910
 3471TIP3   OH231827   5.918   5.496  11.796  0.2059 -0.8832 -0.0664
 3471TIP3    H131828   5.992   5.535  11.843  1.7648 -0.1560 -2.9035
 3471TIP3    H231829   5.956   5.463  11.715 -2.5346 -0.8500 -1.4723
 3472TIP3   OH231830   1.836   6.357   1.858  0.2987 -0.2513 -0.1126
 3472TIP3    H131831   1.888   6.421   1.811  1.9015 -0.3726  1.3722
 3472TIP3    H231832   1.748   6.395   1.862  0.3170  0.1282 -2.3729
 3473TIP3   OH231833   3.994   6.118   4.725 -0.1866  0.9874 -0.5656
 3473TIP3    H131834   3.900   6.106   4.714 -0.3344 -0.7355  1.8269
 3473TIP3    H231835   4.032   6.037   4.689  0.1434  0.5195  0.7885
 3474TIP3   OH231836   6.323   1.948  16.315 -0.0084  0.1611  0.2823
 3474TIP3    H131837   6.262   2.019  16.337 -2.2626 -1.3695 -0.5972
 3474TIP3    H231838   6.289   1.872  16.362  1.8291 -0.5700  0.5050
 3475TIP3   OH231839   6.400   3.485   0.577  0.0578 -0.0869 -0.7532
 3475TIP3    H131840   6.321   3.517   0.534  0.0992 -0.5985 -1.2327
 3475TIP3    H231841   6.446   3.564   0.605  0.1456  0.2772 -1.8713
 3476TIP3   OH231842   0.895   0.568  15.911  0.3097  0.6134 -0.4261
 3476TIP3    H131843   0.832   0.553  15.982  0.3688  0.1274 -0.4775
 3476TIP3    H231844   0.905   0.483  15.869 -0.9116  1.2224 -2.0267
 3477TIP3   OH231845   5.160   3.023   1.344 -0.1848  0.3831  0.2458
 3477TIP3    H131846   5.193   3.048   1.258  0.1939 -0.1356  0.2352
 3477TIP3    H231847   5.240   3.009   1.396 -0.4088  1.1519  0.8147
 3478TIP3   OH231848   1.497   4.993   2.510  0.3636  0.2790  0.1232
 3478TIP3    H131849   1.478   4.984   2.416  2.5852 -0.4189 -0.3146
 3478TIP3    H231850   1.415   4.970   2.553 -0.1531 -1.4038 -1.6074
 3479TIP3   OH231851   3.042   5.565  15.065 -0.2757  0.6079 -0.2545
 3479TIP3    H131852   3.091   5.483  15.051 -0.5620  0.3595  0.1467
 3479TIP3    H231853   3.104   5.622  15.111 -0.2577  0.3995 -0.0118
 3480TIP3   OH231854   0.003   6.742  16.610  0.0576 -0.1888 -0.3172
 3480TIP3    H131855  -0.002   6.684  16.686  1.3062  1.2330  0.9139
 3480TIP3    H231856  -0.081   6.731  16.566 -0.2769 -1.8579  0.6499
 3481TIP3   OH231857   6.134   4.813   0.001 -0.1523 -0.3028  0.5617
 3481TIP3    H131858   6.213   4.803   0.055 -0.4484  2.6757  1.7536
 3481TIP3    H231859   6.091   4.892   0.036 -2.2011 -0.2189 -1.8615
 3482TIP3   OH231860   2.482   0.086  12.563  0.2954  0.3968 -0.0023
 3482TIP3    H131861   2.505   0.124  12.478  3.9181  1.3799  1.1930
 3482TIP3    H231862   2.550   0.020  12.579  0.1320  0.6912  2.3454
 3483TIP3   OH231863   5.806   3.395  16.684 -0.4663 -0.7162 -0.2895
 3483TIP3    H131864   5.873   3.436  16.738  1.5701 -1.7896 -1.8941
 3483TIP3    H231865   5.774   3.466  16.628  0.6446 -0.5701 -0.7618
 3484TIP3   OH231866   6.513   0.976  16.956  0.1399  0.3074  0.6016
 3484TIP3    H131867   6.537   1.034  17.027 -1.3559  0.3542  1.1028
 3484TIP3    H231868   6.435   1.015  16.918  0.9823  0.3696 -1.1959
 3485TIP3   OH231869   4.316   5.169  11.831  0.6103 -0.0428  0.0917
 3485TIP3    H131870   4.250   5.213  11.778 -1.4564 -0.6657  1.9936
 3485TIP3    H231871   4.399   5.189  11.787 -0.5786  2.6124 -1.1908
 3486TIP3   OH231872   5.702   4.327  16.274 -0.8303  0.0072  0.4816
 3486TIP3    H131873   5.643   4.306  16.202  0.5989  0.6222 -0.9515
 3486TIP3    H231874   5.727   4.418  16.259  2.2645 -0.8579 -0.4024
 3487TIP3   OH231875   4.210   6.367   4.481 -0.2012  0.2153  0.4785
 3487TIP3    H131876   4.266   6.304   4.526 -0.8825 -0.3376  0.5782
 3487TIP3    H231877   4.147   6.395   4.548 -1.9781 -1.5138 -0.3800
 3488TIP3   OH231878   1.243   2.512  11.506  0.3632 -0.1724 -0.2384
 3488TIP3    H131879   1.226   2.481  11.418  2.0063  0.1349 -0.6824
 3488TIP3    H231880   1.328   2.555  11.501 -0.8408  2.5881  0.7916
 3489TIP3   OH231881   4.268   2.102  16.865  0.2564 -0.1556 -0.1745
 3489TIP3    H131882   4.249   2.174  16.926 -0.9042 -0.4946 -0.1301
 3489TIP3    H231883   4.262   2.023  16.918 -0.0862 -0.4068 -0.5844
 3490TIP3   OH231884   6.055   3.378   1.145  0.8030  0.1401 -0.9268
 3490TIP3    H131885   6.121   3.318   1.111  1.0155  0.1218 -0.4978
 3490TIP3    H231886   6.057   3.364   1.240 -1.7376 -1.8177 -1.0785
 3491TIP3   OH231887   6.757   0.312   5.337  0.4729  0.0865  0.5657
 3491TIP3    H131888   6.732   0.228   5.376  1.6612 -1.0590 -1.0066
 3491TIP3    H231889   6.841   0.333   5.378  0.0246  0.7060  1.1952
 3492TIP3   OH231890   5.827   0.398   5.771 -0.1269 -0.2745  0.1175
 3492TIP3    H131891   5.752   0.431   5.821 -0.3926 -0.5839 -0.0755
 3492TIP3    H231892   5.794   0.319   5.727  0.3773 -0.5469  0.2205
 3493TIP3   OH231893   3.651   4.834  13.138  0.5751 -0.7281 -0.6993
 3493TIP3    H131894   3.641   4.929  13.129  0.0907 -0.9229 -2.8466
 3493TIP3    H231895   3.653   4.818  13.232  0.2544  1.3723 -0.3001
 3494TIP3   OH231896   5.234   1.034   5.416  0.1788 -0.8102 -0.2488
 3494TIP3    H131897   5.169   1.035   5.487  1.1536 -0.6838  0.6721
 3494TIP3    H231898   5.201   1.097   5.352  0.7210  1.3355  1.4712
 3495TIP3   OH231899   5.684   1.952  12.272 -0.0363 -0.0279 -0.4356
 3495TIP3    H131900   5.619   1.927  12.338 -0.4925 -0.7903 -1.1512
 3495TIP3    H231901   5.652   1.912  12.191 -0.0593  1.7972 -1.3707
 3496TIP3   OH231902   0.705   6.544  14.829 -0.4908  0.1832 -0.1201
 3496TIP3    H131903   0.636   6.554  14.894 -1.1109  0.6253 -0.8301
 3496TIP3    H231904   0.659   6.532  14.746  0.2751  0.9111 -0.6708
 3497TIP3   OH231905   5.853   2.326  17.129 -0.1385 -0.1645 -0.3265
 3497TIP3    H131906   5.790   2.260  17.100 -0.5226  0.1526 -0.2217
 3497TIP3    H231907   5.887   2.364  17.048  1.5882 -1.8640 -0.4687
 3498TIP3   OH231908   4.580   5.569  16.997  0.4504 -0.0928  0.0057
 3498TIP3    H131909   4.618   5.484  16.974 -0.7977 -0.3890 -1.0263
 3498TIP3    H231910   4.533   5.552  17.079  2.3110  0.2440  1.2195
 3499TIP3   OH231911   0.006   1.691  15.755  0.2076  0.7146 -0.1512
 3499TIP3    H131912  -0.073   1.644  15.728  0.6151  1.7640 -3.7210
 3499TIP3    H231913  -0.018   1.734  15.837 -2.7226  0.4844 -0.7826
 3500TIP3   OH231914   3.833   3.956   6.044  0.4534 -0.4925 -0.0897
 3500TIP3    H131915   3.858   4.040   6.083  0.9015 -0.0438 -1.3277
 3500TIP3    H231916   3.835   3.895   6.118 -0.4018  0.6719  0.9406
 3501TIP3   OH231917   0.017   4.334   4.847 -0.1326  0.7731  0.1518
 3501TIP3    H131918   0.027   4.420   4.887  1.4288  0.7422 -0.0781
 3501TIP3    H231919   0.075   4.277   4.897 -1.3094 -0.2190  0.4385
 3502TIP3   OH231920   2.699   1.001   3.858 -0.4786  1.1999 -0.0903
 3502TIP3    H131921   2.616   0.957   3.834 -0.2770 -0.4386  1.9267
 3502TIP3    H231922   2.765   0.933   3.847  0.4455  2.1299 -0.4306
 3503TIP3   OH231923   6.659   3.692  16.097  0.1965  0.1202  0.0593
 3503TIP3    H131924   6.649   3.705  16.003  0.4283  0.2902  0.0570
 3503TIP3    H231925   6.583   3.735  16.136  0.8939  1.4153  0.0492
 3504TIP3   OH231926   5.900   1.454  16.536  0.6377 -0.3449 -0.1573
 3504TIP3    H131927   5.875   1.471  16.445  2.1299  2.7919 -0.1250
 3504TIP3    H231928   5.927   1.362  16.537 -0.5981 -0.8082 -2.5555
 3505TIP3   OH231929   0.573   4.856  14.057 -0.4085  0.2415  0.0487
 3505TIP3    H131930   0.575   4.906  13.975 -1.3389  0.8612  0.3869
 3505TIP3    H231931   0.627   4.907  14.117 -0.6740  0.3987  0.1538
 3506TIP3   OH231932   5.918   1.577  15.054 -0.0983 -0.1820 -0.0026
 3506TIP3    H131933   5.963   1.563  14.971 -0.3976 -0.5848 -0.1011
 3506TIP3    H231934   5.936   1.497  15.104 -1.3749 -0.7166 -0.3549
 3507TIP3   OH231935   6.586   4.654  15.587 -0.4021 -0.4903 -0.4524
 3507TIP3    H131936   6.625   4.567  15.592 -1.9095 -1.1416  0.9360
 3507TIP3    H231937   6.511   4.650  15.646  1.0808  2.5974  1.9528
 3508TIP3   OH231938   6.262   2.480   3.733 -0.0780  0.3003  0.5074
 3508TIP3    H131939   6.202   2.546   3.699 -0.3624  0.7187  1.7624
 3508TIP3    H231940   6.349   2.509   3.705 -0.3151  0.4896 -0.0481
 3509TIP3   OH231941   0.139   0.222   2.809  0.7504 -0.0392 -0.6547
 3509TIP3    H131942   0.085   0.241   2.732 -0.5382  1.0793  0.4718
 3509TIP3    H231943   0.080   0.237   2.883  2.5150  0.8934  0.6227
 3510TIP3   OH231944   3.181   1.429   5.355  0.7397  0.1475  0.5383
 3510TIP3    H131945   3.115   1.366   5.329  2.2300 -1.6731  0.9432
 3510TIP3    H231946   3.135   1.513   5.357 -1.1577 -0.7968 -0.6430
 3511TIP3   OH231947   4.171   5.117  12.552  0.2577 -0.1165 -0.5516
 3511TIP3    H131948   4.241   5.111  12.617  1.2125  0.4038 -1.4984
 3511TIP3    H231949   4.144   5.209  12.553 -0.2882 -0.2736 -0.3326
 3512TIP3   OH231950   4.848   6.230  11.307 -0.4483  0.1905 -0.7085
 3512TIP3    H131951   4.851   6.166  11.378 -2.2473  0.7052 -0.1102
 3512TIP3    H231952   4.857   6.315  11.351  1.0792  0.4454 -1.4073
 3513TIP3   OH231953   0.846   3.855   6.445  0.0238 -0.0900 -0.7182
 3513TIP3    H131954   0.858   3.782   6.506  0.3480  0.8141  0.3442
 3513TIP3    H231955   0.825   3.814   6.362  1.1249 -1.4406 -0.3719
 3514TIP3   OH231956   6.381   2.897   5.048  0.2241  0.5747 -0.5856
 3514TIP3    H131957   6.300   2.861   5.013 -0.7636  1.2583  0.9128
 3514TIP3    H231958   6.389   2.983   5.007 -0.9254  1.3697  0.7939
 3515TIP3   OH231959   6.529   5.988   0.063 -0.1558 -0.6402 -0.8204
 3515TIP3    H131960   6.576   6.071   0.057 -2.4345  0.6828 -1.5794
 3515TIP3    H231961   6.545   5.957   0.152  0.8741  0.5132 -0.5803
 3516TIP3   OH231962   2.129   3.455   1.349 -0.4912 -0.3534 -0.5864
 3516TIP3    H131963   2.090   3.418   1.428  0.4024 -0.9974 -0.4331
 3516TIP3    H231964   2.214   3.412   1.341  0.0390  0.7452 -1.1259
 3517TIP3   OH231965   4.134   1.984  11.501  1.0326 -0.0092  0.0598
 3517TIP3    H131966   4.194   1.991  11.427  3.4977 -0.4937  1.8915
 3517TIP3    H231967   4.147   1.895  11.534  0.5127  0.4362  1.5104
 3518TIP3   OH231968   2.706   4.542   1.734  0.1169  0.0009  0.1083
 3518TIP3    H131969   2.710   4.623   1.683 -0.7461 -0.1851 -0.2781
 3518TIP3    H231970   2.797   4.515   1.743  0.2898 -0.1514 -1.6636
 3519TIP3   OH231971   1.506   2.978  13.310  0.0331  0.1319 -0.4380
 3519TIP3    H131972   1.452   3.055  13.288  1.7199  0.7971 -2.4780
 3519TIP3    H231973   1.445   2.904  13.303 -0.7346  0.8800 -2.3847
 3520TIP3   OH231974   6.562   0.656  16.437  1.2813  0.0292 -0.5792
 3520TIP3    H131975   6.527   0.598  16.370 -1.2625  1.4422 -0.5973
 3520TIP3    H231976   6.507   0.734  16.432  2.8976  1.3777  1.1957
 3521TIP3   OH231977   6.495   2.645   1.254 -0.2127  0.2797 -0.8376
 3521TIP3    H131978   6.566   2.581   1.257 -0.6327 -0.1847  1.9977
 3521TIP3    H231979   6.528   2.714   1.195  1.7115 -0.8765 -1.2125
 3522TIP3   OH231980   3.228   3.069   2.034  0.2960  0.1381 -0.4017
 3522TIP3    H131981   3.154   3.119   2.070 -0.7747 -1.6945  0.0618
 3522TIP3    H231982   3.240   3.106   1.946 -1.9841 -0.2803 -0.9711
 3523TIP3   OH231983   2.795   3.151   0.285 -0.0251  0.2382  0.4022
 3523TIP3    H131984   2.729   3.112   0.343 -1.9684  0.2662 -1.6515
 3523TIP3    H231985   2.820   3.081   0.226 -1.3388  1.2111 -1.4275
 3524TIP3   OH231986   5.496   5.131  14.115  0.6113  0.6025 -0.5218
 3524TIP3    H131987   5.500   5.131  14.211  1.2446  0.1445 -0.5486
 3524TIP3    H231988   5.455   5.048  14.092 -0.2667  1.0445 -0.6332
 3525TIP3   OH231989   0.972   6.434  14.743  0.0734 -0.1902  0.4076
 3525TIP3    H131990   0.885   6.473  14.751  1.3006  2.5814  1.4189
 3525TIP3    H231991   0.980   6.377  14.819  0.2078  1.9332  2.0703
 3526TIP3   OH231992   0.489   2.161  13.839 -0.1978 -0.3031 -0.0061
 3526TIP3    H131993   0.423   2.099  13.871  0.0715 -1.1099 -0.9323
 3526TIP3    H231994   0.536   2.189  13.917 -0.5257 -1.0526  0.4752
 3527TIP3   OH231995   2.787   0.816  15.610 -0.2617 -0.3955  0.5913
 3527TIP3    H131996   2.719   0.835  15.544  0.3584  1.1210  0.3615
 3527TIP3    H231997   2.829   0.736  15.577 -0.0517  0.2572 -0.8054
 3528TIP3   OH231998   2.958   1.357   1.493 -0.2220  0.3952  0.1878
 3528TIP3    H131999   3.027   1.316   1.440  0.1035  0.2386  0.7264
 3528TIP3    H232000   2.886   1.294   1.492 -0.3683  0.5626 -0.3842
 3529TIP3   OH232001   2.119   3.434  11.989 -0.2583  0.0317  0.5105
 3529TIP3    H132002   2.033   3.475  11.985 -0.2498 -0.0551 -1.0204
 3529TIP3    H232003   2.172   3.495  12.041 -1.1753  0.1774  1.3032
 3530TIP3   OH232004   5.443   5.318  12.767 -0.3952 -0.3655  0.4819
 3530TIP3    H132005   5.510   5.355  12.709 -1.0709  1.0662  0.5814
 3530TIP3    H232006   5.378   5.280  12.708 -1.0869  1.0951  0.2795
 3531TIP3   OH232007   5.240   0.750  15.306  0.0142  0.9235  0.2757
 3531TIP3    H132008   5.271   0.804  15.379 -0.0522  0.1336  0.8991
 3531TIP3    H232009   5.300   0.772  15.234  1.0841  0.5556  1.0206
 3532TIP3   OH232010   4.265   5.728  13.521  0.0307 -0.3830  0.8114
 3532TIP3    H132011   4.318   5.802  13.493  0.1020 -1.1456 -1.2398
 3532TIP3    H232012   4.191   5.767  13.568 -0.1774  1.0200 -0.6328
 3533TIP3   OH232013   2.906   0.171   3.648  0.4960 -0.0820  0.1854
 3533TIP3    H132014   2.888   0.194   3.739 -1.2515 -2.7024  0.6230
 3533TIP3    H232015   2.986   0.117   3.652  0.1117 -0.6569  0.2766
 3534TIP3   OH232016   3.065   6.703   5.268 -0.2243  0.1083 -0.2996
 3534TIP3    H132017   3.142   6.726   5.320 -0.7245 -0.1663  0.5741
 3534TIP3    H232018   3.071   6.609   5.255 -0.4000  0.0885 -0.2462
 3535TIP3   OH232019   3.607   4.902  11.623  0.5039  0.3960  0.2929
 3535TIP3    H132020   3.552   4.931  11.696 -0.7298  1.5670 -1.0454
 3535TIP3    H232021   3.553   4.837  11.577  1.0457  0.0801  0.0998
 3536TIP3   OH232022   1.376   3.499   1.363  0.1301  0.1376  0.1389
 3536TIP3    H132023   1.375   3.405   1.348 -0.2753  0.0299  0.7641
 3536TIP3    H232024   1.334   3.536   1.286  2.0157 -0.0280 -1.0061
 3537TIP3   OH232025   0.051   5.493   4.297  0.1834 -0.2624  0.1376
 3537TIP3    H132026   0.060   5.398   4.303 -3.0368 -0.6489  1.1558
 3537TIP3    H232027   0.008   5.508   4.213 -2.3997 -0.1914  1.3421
 3538TIP3   OH232028   4.236   0.961   3.814 -0.4114  0.0621 -0.6478
 3538TIP3    H132029   4.271   1.050   3.821  1.2446 -0.6054  0.1629
 3538TIP3    H232030   4.270   0.929   3.731  0.5780 -0.4236 -0.0788
 3539TIP3   OH232031   6.307   2.062   5.466 -0.0764  0.0627 -0.0270
 3539TIP3    H132032   6.302   2.155   5.447 -1.9993 -0.0550 -0.3157
 3539TIP3    H232033   6.221   2.028   5.442  1.0388 -2.0721 -1.2911
 3540TIP3   OH232034   3.955   3.270  14.885  0.5632  0.8992  0.1471
 3540TIP3    H132035   3.999   3.205  14.831  1.6283  2.7187 -1.3167
 3540TIP3    H232036   3.958   3.235  14.974  0.0994 -1.4987 -0.7118
 3541TIP3   OH232037   5.275   2.300   5.213  0.2321  0.0244  0.0558
 3541TIP3    H132038   5.335   2.296   5.139 -0.5129  1.6389 -0.6899
 3541TIP3    H232039   5.321   2.353   5.278  0.1787  0.0871  0.0428
 3542TIP3   OH232040   2.852   1.648  15.916  0.1842  0.1611  0.2725
 3542TIP3    H132041   2.837   1.639  15.821 -2.3517  1.9538  0.4180
 3542TIP3    H232042   2.793   1.584  15.955  1.3128 -0.6578  0.6998
 3543TIP3   OH232043   4.223   3.436  13.236 -0.2225  0.2725  0.4131
 3543TIP3    H132044   4.172   3.436  13.155 -0.6095  0.2552  0.6564
 3543TIP3    H232045   4.162   3.406  13.303  0.2002 -0.0790  0.6468
 3544TIP3   OH232046   3.835   3.113  11.845 -0.0036 -0.2370 -0.7216
 3544TIP3    H132047   3.819   3.046  11.778  2.0537 -0.0798 -1.4408
 3544TIP3    H232048   3.920   3.090  11.881  0.4353  1.6085 -0.4990
 3545TIP3   OH232049   5.890   6.646   4.709 -0.2785  0.1606 -0.5094
 3545TIP3    H132050   5.943   6.620   4.784 -0.6629  0.8837  0.0282
 3545TIP3    H232051   5.802   6.615   4.730 -0.2939 -0.0450 -0.8767
 3546TIP3   OH232052   0.125   0.095  15.631  0.3614  0.0897 -0.3406
 3546TIP3    H132053   0.131  -0.000  15.631  0.1137  0.0704  0.1624
 3546TIP3    H232054   0.045   0.114  15.680  0.4685  0.5575 -0.3395
 3547TIP3   OH232055   0.505   2.833   5.587 -0.3819  0.1554 -0.2872
 3547TIP3    H132056   0.585   2.786   5.610  0.0067 -0.2149 -2.1957
 3547TIP3    H232057   0.439   2.798   5.646  0.5980 -0.4333  0.5001
 3548TIP3   OH232058   4.168   3.143  13.818 -0.2809 -0.1846 -0.0440
 3548TIP3    H132059   4.199   3.111  13.734 -0.3316 -1.9324  0.5644
 3548TIP3    H232060   4.166   3.238  13.809  1.2562 -0.2557 -1.4696
 3549TIP3   OH232061   0.538   3.837   0.400  0.2642 -0.2701 -0.0825
 3549TIP3    H132062   0.488   3.888   0.465  0.8009  0.8299 -0.5149
 3549TIP3    H232063   0.497   3.751   0.402 -0.1117 -0.0923  1.3034
 3550TIP3   OH232064   1.725   1.772   5.091 -0.4312  0.5547 -0.2247
 3550TIP3    H132065   1.644   1.804   5.130  0.3355  0.3311  1.6647
 3550TIP3    H232066   1.727   1.679   5.112  0.4665  0.6270  0.0531
 3551TIP3   OH232067   4.123   3.314   1.488  0.1799  0.1015  0.2129
 3551TIP3    H132068   4.204   3.269   1.466  0.1553 -0.1929  0.7175
 3551TIP3    H232069   4.133   3.401   1.449 -0.6566 -0.9616 -2.6518
 3552TIP3   OH232070   5.700   0.467   2.251 -0.1770 -0.1165 -0.1594
 3552TIP3    H132071   5.760   0.447   2.179 -0.8090  1.5831 -1.2092
 3552TIP3    H232072   5.626   0.407   2.238  0.1397 -0.4707 -0.3572
 3553TIP3   OH232073   6.371   3.839   6.002  0.1115  0.2894 -0.2017
 3553TIP3    H132074   6.333   3.848   6.089 -1.8083 -0.0044 -0.9330
 3553TIP3    H232075   6.446   3.781   6.013 -0.7978 -0.6921  1.0930
 3554TIP3   OH232076   0.689   6.491   0.421  0.2732 -0.8243 -0.1610
 3554TIP3    H132077   0.772   6.448   0.404  1.0778  1.1489 -1.7433
 3554TIP3    H232078   0.641   6.485   0.338  0.0048  0.3548 -0.1209
 3555TIP3   OH232079   3.357   0.362   0.050  0.3885 -0.0363  0.0284
 3555TIP3    H132080   3.448   0.335   0.052  0.7498  1.1309  1.5458
 3555TIP3    H232081   3.358   0.450   0.014 -0.0637  0.1815  0.5184
 3556TIP3   OH232082   6.285   5.409  14.812 -0.7371  0.0266  0.0762
 3556TIP3    H132083   6.232   5.466  14.867 -3.0458 -1.7262 -0.1302
 3556TIP3    H232084   6.224   5.379  14.744  1.0340 -0.7560 -1.2535
 3557TIP3   OH232085   4.951   3.302  13.096 -0.0591 -0.5682  0.0343
 3557TIP3    H132086   4.894   3.225  13.091  0.1476 -1.1828  3.8316
 3557TIP3    H232087   4.897   3.374  13.063 -1.8423 -1.6827  0.3972
 3558TIP3   OH232088   3.282   0.649  16.248  0.1990 -0.6201  0.1770
 3558TIP3    H132089   3.337   0.687  16.180 -0.8844  0.9870  0.1224
 3558TIP3    H232090   3.233   0.724  16.283 -0.0790 -1.5746  1.9678
 3559TIP3   OH232091   1.456   0.777  12.558  0.1195  0.2238  0.2270
 3559TIP3    H132092   1.499   0.714  12.500  1.8112  1.2896  0.2585
 3559TIP3    H232093   1.521   0.846  12.571 -1.1377  1.2436  1.3963
 3560TIP3   OH232094   3.485   3.473  13.571  0.1554  0.1352 -0.1142
 3560TIP3    H132095   3.422   3.534  13.609  0.3676  1.4901 -1.8048
 3560TIP3    H232096   3.558   3.473  13.633  0.1659  1.6649 -0.0819
 3561TIP3   OH232097   4.382   0.564  13.027 -0.0568  0.6340 -0.5214
 3561TIP3    H132098   4.401   0.532  13.115 -0.5865 -0.0966 -0.6732
 3561TIP3    H232099   4.287   0.562  13.020  0.0128 -0.2418 -1.4521
 3562TIP3   OH232100   2.539   5.691  15.072  0.2327  0.1992  0.1109
 3562TIP3    H132101   2.510   5.732  15.153  0.8859  2.4557 -0.7189
 3562TIP3    H232102   2.615   5.639  15.098  1.7870  2.6052  0.6997
 3563TIP3   OH232103   3.223   5.985  13.416 -0.7072  1.3744 -0.0271
 3563TIP3    H132104   3.293   6.045  13.389 -0.3134  1.4773  1.1871
 3563TIP3    H232105   3.232   5.979  13.511 -0.7484 -0.6007 -0.1100
 3564TIP3   OH232106   3.811   2.774  17.266 -0.0633  0.2607  0.5049
 3564TIP3    H132107   3.870   2.830  17.216  0.2785 -0.9147 -0.4214
 3564TIP3    H232108   3.730   2.825  17.272  0.9570  1.8425  1.6979
 3565TIP3   OH232109   2.919   4.140   3.196  0.3068 -0.0434  0.7842
 3565TIP3    H132110   2.902   4.232   3.175  1.9714  0.3148  0.8860
 3565TIP3    H232111   2.948   4.102   3.113  1.1767 -0.0695  1.0916
 3566TIP3   OH232112   1.934   2.805  14.813  0.3296  0.4441  0.3708
 3566TIP3    H132113   1.951   2.890  14.854 -0.6009  1.1468 -0.6380
 3566TIP3    H232114   1.926   2.825  14.719 -0.6192 -0.6394  0.2035
 3567TIP3   OH232115   2.533   2.584   4.652 -0.0679  0.5651 -0.0839
 3567TIP3    H132116   2.447   2.625   4.660 -0.6388 -0.3629 -1.1803
 3567TIP3    H232117   2.550   2.582   4.558  2.1154  2.6101  0.1532
 3568TIP3   OH232118   3.065   4.359   5.300  0.2522  0.3109 -0.0960
 3568TIP3    H132119   3.065   4.449   5.332  3.8286  1.3661 -2.4637
 3568TIP3    H232120   2.974   4.343   5.272 -0.8272  2.5322  1.8034
 3569TIP3   OH232121   3.789   1.761  15.436 -0.0095  0.2960 -0.3006
 3569TIP3    H132122   3.709   1.805  15.407  0.0519 -0.7906 -2.3098
 3569TIP3    H232123   3.773   1.668  15.417  1.2345 -0.0937  0.4624
 3570TIP3   OH232124   3.300   3.772   1.453 -0.5511  0.9974  0.0312
 3570TIP3    H132125   3.214   3.810   1.473 -1.1281  0.4362 -1.2768
 3570TIP3    H232126   3.351   3.785   1.533 -2.2074  0.3192  1.2659
 3571TIP3   OH232127   4.869   4.824  15.585 -0.3811 -0.1446 -0.0629
 3571TIP3    H132128   4.797   4.792  15.640 -0.7578  0.1556 -0.3757
 3571TIP3    H232129   4.907   4.896  15.636 -0.0035 -0.5982  0.3089
 3572TIP3   OH232130   5.703   0.751  15.011  0.3582  0.5027  0.3272
 3572TIP3    H132131   5.732   0.833  15.053 -0.1261  1.3625 -0.9427
 3572TIP3    H232132   5.784   0.709  14.983  0.9317 -1.3200  4.0950
 3573TIP3   OH232133   0.751   4.108  14.422 -1.0517 -0.0345  0.1138
 3573TIP3    H132134   0.697   4.161  14.481  1.2386  1.1649  1.2661
 3573TIP3    H232135   0.804   4.054  14.481  0.9554  0.8386 -0.8334
 3574TIP3   OH232136   1.135   1.362  14.476 -0.2223  0.1680 -0.5810
 3574TIP3    H132137   1.161   1.271  14.490 -0.3679 -0.0730 -1.7648
 3574TIP3    H232138   1.199   1.413  14.525  1.0156 -0.5123 -1.4261
 3575TIP3   OH232139   4.604   0.289   0.556  0.5591  0.1534 -0.1795
 3575TIP3    H132140   4.531   0.298   0.495  0.5257  1.2093  0.0118
 3575TIP3    H232141   4.592   0.358   0.620  0.5292 -1.0128  1.1205
 3576TIP3   OH232142   2.039   0.271   4.745 -0.4449 -0.0245 -0.1529
 3576TIP3    H132143   2.105   0.301   4.682 -0.5584 -0.5336 -0.5181
 3576TIP3    H232144   1.961   0.258   4.693 -0.3055 -1.2997 -0.0677
 3577TIP3   OH232145   2.322   6.592  12.392  0.1737  0.3193  0.1728
 3577TIP3    H132146   2.247   6.532  12.387  0.8300 -0.4251 -0.8887
 3577TIP3    H232147   2.318   6.643  12.311  1.3720 -0.4112 -0.3673
 3578TIP3   OH232148   1.082   4.537  17.240  0.2391  0.6027 -0.3232
 3578TIP3    H132149   1.018   4.603  17.268 -1.1978 -0.9943  0.3637
 3578TIP3    H232150   1.043   4.454  17.266  1.9315 -0.5448 -1.2682
 3579TIP3   OH232151   5.465   6.472   4.573 -0.0069  0.0753  0.2387
 3579TIP3    H132152   5.407   6.402   4.604 -1.7112  1.4147  0.2003
 3579TIP3    H232153   5.504   6.437   4.493  1.9182 -2.1681  2.0115
 3580TIP3   OH232154   4.534   3.950   0.201  0.4463 -0.4277  0.1709
 3580TIP3    H132155   4.483   4.005   0.260 -2.2644 -2.0784 -0.4220
 3580TIP3    H232156   4.548   3.869   0.249 -1.3187 -1.5860 -1.1231
 3581TIP3   OH232157   3.715   5.589  14.279  0.6666  0.0709 -0.2067
 3581TIP3    H132158   3.675   5.504  14.294  0.4976  0.2523  0.3918
 3581TIP3    H232159   3.670   5.624  14.202  0.9494 -0.5086 -0.6394
 3582TIP3   OH232160   3.675   1.744   2.991 -0.3507 -0.6532  0.3549
 3582TIP3    H132161   3.740   1.740   3.061 -1.6134  2.3167  1.8783
 3582TIP3    H232162   3.594   1.713   3.031 -0.7923 -0.1929 -0.1622
 3583TIP3   OH232163   5.857   6.374   5.801 -0.3689  0.0032 -0.3790
 3583TIP3    H132164   5.950   6.371   5.826 -0.6404 -0.1093  0.6903
 3583TIP3    H232165   5.844   6.463   5.770 -0.1774  0.4113  0.6636
 3584TIP3   OH232166   5.528   1.489  14.852 -0.0730  0.2081 -0.0510
 3584TIP3    H132167   5.560   1.578  14.836 -2.8252  1.0668 -1.4134
 3584TIP3    H232168   5.492   1.461  14.768 -0.2799 -1.7856  0.6507
 3585TIP3   OH232169   3.592   0.989  17.160  0.0046 -0.0996  0.3607
 3585TIP3    H132170   3.518   0.929  17.155  0.3259 -0.4882  0.2235
 3585TIP3    H232171   3.665   0.941  17.121  0.1794  0.5151 -0.0903
 3586TIP3   OH232172   5.470   1.770  14.349 -0.1380 -0.1238 -0.1613
 3586TIP3    H132173   5.473   1.704  14.419 -1.1502  0.4567  0.4429
 3586TIP3    H232174   5.550   1.754  14.299  1.1617  0.1160  1.7347
 3587TIP3   OH232175   1.896   2.849  12.564  0.2926  0.3102  0.2631
 3587TIP3    H132176   1.951   2.795  12.621  0.7984  0.2669 -0.2525
 3587TIP3    H232177   1.958   2.887  12.501 -0.3912 -0.6446 -1.0522
 3588TIP3   OH232178   2.471   1.929   2.829 -0.5182  0.6873 -0.3350
 3588TIP3    H132179   2.536   1.876   2.874 -1.3707  0.7364  0.9971
 3588TIP3    H232180   2.488   1.914   2.736  2.5744  2.1513 -0.1272
 3589TIP3   OH232181   5.431   1.162   4.855 -0.0349 -0.0673 -0.3471
 3589TIP3    H132182   5.488   1.188   4.927  1.0045 -4.0303  0.5090
 3589TIP3    H232183   5.353   1.216   4.866  1.7158  2.3482  1.1939
 3590TIP3   OH232184   6.035   5.186   2.008 -0.2751  0.5377 -0.3314
 3590TIP3    H132185   5.997   5.107   1.969 -0.7747  0.4628  0.2896
 3590TIP3    H232186   6.099   5.216   1.943 -0.5194 -0.0280 -0.8495
 3591TIP3   OH232187   2.437   4.007  12.031  0.6758 -0.5066 -0.2708
 3591TIP3    H132188   2.532   4.014  12.016  0.7896 -0.5011  0.4117
 3591TIP3    H232189   2.416   4.085  12.083  0.6336 -1.4732  1.1837
 3592TIP3   OH232190   5.922   1.908  14.062  0.4680 -0.3231 -0.1116
 3592TIP3    H132191   5.887   1.937  14.146  2.7795 -0.1521  0.8503
 3592TIP3    H232192   5.930   1.989  14.011  0.9860 -0.1433  0.2542
 3593TIP3   OH232193   4.203   0.353   3.555 -0.2174 -0.6331  0.0475
 3593TIP3    H132194   4.119   0.379   3.594 -1.0199 -0.4575 -1.7105
 3593TIP3    H232195   4.197   0.384   3.465  1.5079 -1.1773 -0.2728
 3594TIP3   OH232196   1.256   1.716  12.860 -0.4958  0.3632 -0.1631
 3594TIP3    H132197   1.295   1.679  12.939 -0.0284  1.4653  0.1381
 3594TIP3    H232198   1.252   1.642  12.798  1.0418 -0.0426  0.1733
 3595TIP3   OH232199   5.324   0.603  14.450 -0.2218  0.1066  0.2797
 3595TIP3    H132200   5.255   0.670  14.454 -1.1106 -0.2452 -4.1185
 3595TIP3    H232201   5.277   0.520  14.445  0.1593 -0.0932 -3.7177
 3596TIP3   OH232202   2.061   1.455  11.843 -0.2850 -0.5370  0.0469
 3596TIP3    H132203   2.002   1.425  11.774 -0.3053  1.1537 -0.7354
 3596TIP3    H232204   2.022   1.538  11.872  1.3968  0.3300 -0.0823
 3597TIP3   OH232205   1.613   0.401  15.505  0.3951  0.0303 -0.3700
 3597TIP3    H132206   1.560   0.472  15.469 -0.0973  1.3899  2.7250
 3597TIP3    H232207   1.553   0.327  15.513 -0.3415  0.7204  0.6020
 3598TIP3   OH232208   0.062   4.449   3.568 -0.0125 -0.0575 -0.0457
 3598TIP3    H132209  -0.005   4.503   3.526 -0.6713  0.2509  1.3555
 3598TIP3    H232210   0.076   4.489   3.654  0.2536 -1.4980  0.6206
 3599TIP3   OH232211   2.149   3.991   4.329  0.7283 -0.0561  0.3821
 3599TIP3    H132212   2.202   3.947   4.263 -0.3011 -0.6035 -0.0915
 3599TIP3    H232213   2.151   3.931   4.404  1.9295  0.5836  0.9008
 3600TIP3   OH232214   0.463   3.691   4.228  0.4230 -0.4554 -0.0249
 3600TIP3    H132215   0.446   3.613   4.280  1.3616 -0.9611 -0.4543
 3600TIP3    H232216   0.534   3.735   4.274  0.3024 -0.1721 -0.1086
 3601TIP3   OH232217   4.674   0.560  15.551 -0.5433  0.4721 -0.9193
 3601TIP3    H132218   4.711   0.472  15.563  0.3402  0.8180 -0.9814
 3601TIP3    H232219   4.749   0.618  15.560 -0.5836  1.0638 -3.5225
 3602TIP3   OH232220   0.665   2.149  17.299  0.2347  0.2248 -0.4076
 3602TIP3    H132221   0.747   2.190  17.271  0.6823 -0.3460  0.0449
 3602TIP3    H232222   0.681   2.055  17.290 -0.2764  0.1022 -0.0567
 3603TIP3   OH232223   3.360   1.209   0.132 -0.3826 -0.1679  0.2487
 3603TIP3    H132224   3.339   1.251   0.049  0.8242  0.7314  0.3692
 3603TIP3    H232225   3.367   1.281   0.194 -0.1412 -0.7286  0.8791
 3604TIP3   OH232226   3.594   4.442  16.171  0.3181  0.3614  0.6384
 3604TIP3    H132227   3.645   4.447  16.090 -0.6684  0.1113 -0.0203
 3604TIP3    H232228   3.653   4.473  16.239  0.7422  1.8232 -0.3625
 3605TIP3   OH232229   4.215   4.423   1.144 -0.0013 -0.2801  0.5626
 3605TIP3    H132230   4.210   4.332   1.173  2.3913 -0.1148  1.7342
 3605TIP3    H232231   4.226   4.473   1.225 -1.2581  1.1075 -0.0608
 3606TIP3   OH232232   0.171   3.636  14.196  0.2082  0.0405  0.1015
 3606TIP3    H132233   0.197   3.650  14.105  0.1756 -0.5654 -0.0102
 3606TIP3    H232234   0.237   3.576  14.231 -0.5258 -0.8305  0.0637
 3607TIP3   OH232235   1.589   2.668   3.838  0.3617  0.4492  0.2602
 3607TIP3    H132236   1.628   2.755   3.828  0.7724  0.2295 -0.0610
 3607TIP3    H232237   1.496   2.686   3.855  0.4994  0.9573  0.5132
 3608TIP3   OH232238   3.576   5.480   0.430  0.3625  0.5630 -0.0079
 3608TIP3    H132239   3.636   5.532   0.376 -0.2452 -0.2727 -1.5361
 3608TIP3    H232240   3.496   5.532   0.434 -0.2316 -0.1691 -1.5033
 3609TIP3   OH232241   4.924   5.403  14.989  0.2803  0.3898 -0.0383
 3609TIP3    H132242   5.001   5.371  14.941 -0.1238  0.0274 -0.4534
 3609TIP3    H232243   4.884   5.467  14.929  0.3577  0.7095  0.2500
 3610TIP3   OH232244   4.902   6.210   5.579 -0.1016 -0.2816 -0.1455
 3610TIP3    H132245   4.942   6.237   5.662  0.1533  1.1080 -0.6827
 3610TIP3    H232246   4.957   6.139   5.547  0.0498 -0.5387  0.6616
 3611TIP3   OH232247   6.206   5.556   0.417 -0.5415 -0.0843 -0.4971
 3611TIP3    H132248   6.138   5.532   0.480 -0.1452  0.2246  0.0605
 3611TIP3    H232249   6.289   5.536   0.462 -0.2315  1.2355 -0.4405
 3612TIP3   OH232250   0.756   4.684  15.984 -0.5625  0.6905  0.2111
 3612TIP3    H132251   0.851   4.688  15.970 -0.1954  0.4102  2.2322
 3612TIP3    H232252   0.724   4.770  15.960  0.2732  0.9414 -0.0439
 3613TIP3   OH232253   3.174   2.346  14.130  0.4405  0.0359  0.4292
 3613TIP3    H132254   3.269   2.348  14.138  0.3798  1.9560  1.1501
 3613TIP3    H232255   3.144   2.294  14.204  0.8480  1.1015  1.3553
 3614TIP3   OH232256   3.624   2.992   4.453 -0.4605 -0.6127 -0.1178
 3614TIP3    H132257   3.692   2.931   4.423  0.3331 -0.0776  0.5725
 3614TIP3    H232258   3.549   2.935   4.471 -0.3410 -1.1682 -1.2529
 3615TIP3   OH232259   6.131   2.390  14.963  0.0961  0.4306 -0.3108
 3615TIP3    H132260   6.177   2.348  15.036  0.8174 -1.2265 -1.6622
 3615TIP3    H232261   6.044   2.350  14.963 -0.5329  1.7224  0.6822
 3616TIP3   OH232262   3.868   5.752  12.358  0.1840  0.4123 -0.2131
 3616TIP3    H132263   3.808   5.826  12.364 -1.3585 -0.5866 -2.1931
 3616TIP3    H232264   3.874   5.720  12.448 -0.6040  1.7794  0.3726
 3617TIP3   OH232265   3.764   0.789  11.875  0.3777  0.5619  0.1711
 3617TIP3    H132266   3.763   0.871  11.924  0.2953  0.7163 -0.0861
 3617TIP3    H232267   3.765   0.816  11.783  0.2153  0.2759  0.0825
 3618TIP3   OH232268   3.908   1.998   2.360  0.0113  1.0366 -0.0439
 3618TIP3    H132269   3.846   1.945   2.411  0.0560  0.6591 -0.3816
 3618TIP3    H232270   3.866   2.008   2.275  0.2381  1.1144 -0.1455
 3619TIP3   OH232271   0.309   4.231   1.802 -0.3404 -0.3631  0.3951
 3619TIP3    H132272   0.312   4.323   1.776 -2.0329  0.1237  1.7404
 3619TIP3    H232273   0.307   4.232   1.897 -2.7108 -1.6131  0.4599
 3620TIP3   OH232274   5.118   1.380  15.662 -0.8324  0.3181  0.0728
 3620TIP3    H132275   5.165   1.348  15.586  0.0018  0.3562  0.5658
 3620TIP3    H232276   5.185   1.391  15.730 -1.8686 -2.2033  1.6537
 3621TIP3   OH232277   5.965   5.975   1.108  0.6380  0.3457 -0.4749
 3621TIP3    H132278   6.012   6.007   1.185 -0.5636 -0.3331  0.5729
 3621TIP3    H232279   5.929   6.055   1.067  0.4992  0.6384  0.2071
 3622TIP3   OH232280   6.106   1.058   0.351  0.3675 -0.1538  0.5112
 3622TIP3    H132281   6.100   1.088   0.442 -0.2616  1.7023 -0.0984
 3622TIP3    H232282   6.184   1.003   0.350  1.4414  1.2310  1.8150
 3623TIP3   OH232283   2.668   6.130  17.259  0.1564  0.2454  0.3275
 3623TIP3    H132284   2.723   6.197  17.218  1.5580  1.2593  3.5559
 3623TIP3    H232285   2.700   6.047  17.222  0.7138  1.0897 -1.2147
 3624TIP3   OH232286   5.410   2.477  13.503  0.5745 -0.1161 -0.5554
 3624TIP3    H132287   5.336   2.479  13.564  1.6566  0.2501  0.7756
 3624TIP3    H232288   5.423   2.384  13.484 -1.0611 -0.1183 -1.8882
 3625TIP3   OH232289   1.574   5.670  16.319 -0.0714  0.1602 -0.2297
 3625TIP3    H132290   1.546   5.671  16.411 -2.1825 -0.9435 -0.7942
 3625TIP3    H232291   1.551   5.757  16.287 -0.8075  0.0348 -0.0820
 3626TIP3   OH232292   3.061   4.718   2.409 -0.4197  0.4962 -0.2470
 3626TIP3    H132293   3.028   4.641   2.362 -0.5139  1.1610 -1.3157
 3626TIP3    H232294   3.082   4.781   2.340  1.8527  0.6018  0.4659
 3627TIP3   OH232295   5.536   6.291  12.809 -0.2672  0.3190 -0.1608
 3627TIP3    H132296   5.576   6.378  12.804  2.7208 -1.0360 -2.2419
 3627TIP3    H232297   5.523   6.265  12.718  0.7609 -2.1842  0.3394
 3628TIP3   OH232298   3.768   2.786  14.961 -0.3964  0.1137 -0.0298
 3628TIP3    H132299   3.712   2.781  15.038 -0.2996 -1.6746 -0.0367
 3628TIP3    H232300   3.745   2.709  14.910  1.3351 -0.0922 -0.5543
 3629TIP3   OH232301   0.502   0.490  15.053  0.2252  0.2893 -0.2412
 3629TIP3    H132302   0.477   0.543  14.978  1.8700  1.0171 -0.3206
 3629TIP3    H232303   0.453   0.408  15.043 -0.7843  0.9922 -1.2250
 3630TIP3   OH232304   0.237   4.777  15.298 -0.4247  0.0435 -0.0330
 3630TIP3    H132305   0.314   4.828  15.273 -0.7604  0.1857 -0.7808
 3630TIP3    H232306   0.165   4.839  15.298 -0.5280 -0.0602  0.8062
 3631TIP3   OH232307   4.455   2.819  14.901 -0.6628  0.5977  0.0668
 3631TIP3    H132308   4.503   2.737  14.894  0.7757  1.2760  1.4024
 3631TIP3    H232309   4.487   2.871  14.826 -0.1762  0.6114  0.2794
 3632TIP3   OH232310   2.356   1.426  10.880  0.3301  0.2871 -0.5844
 3632TIP3    H132311   2.294   1.425  10.953 -0.0443 -4.1153 -0.6935
 3632TIP3    H232312   2.442   1.434  10.921 -0.0083  0.7572  0.0455
 3633TIP3   OH232313   6.590   3.365  16.250 -0.0347  0.1863  0.0112
 3633TIP3    H132314   6.629   3.444  16.287 -0.0804  0.1730  0.0900
 3633TIP3    H232315   6.650   3.295  16.275 -1.8232 -0.4210  3.2577
 3634TIP3   OH232316   1.130   1.601  12.275  0.2904  0.2159  0.0836
 3634TIP3    H132317   1.207   1.655  12.253  1.0205 -0.3413  1.1901
 3634TIP3    H232318   1.167   1.514  12.295 -0.8110 -0.5779 -1.1586
 3635TIP3   OH232319   0.488   4.268  11.811 -0.0561 -0.3359 -0.2463
 3635TIP3    H132320   0.489   4.327  11.885  0.0007 -1.2650  0.5155
 3635TIP3    H232321   0.579   4.259  11.785  0.1182 -1.2688  0.6241
 3636TIP3   OH232322   2.832   6.749   1.808 -0.0190 -0.1780  0.1417
 3636TIP3    H132323   2.781   6.764   1.728  0.5114 -1.2419 -0.4195
 3636TIP3    H232324   2.852   6.836   1.840  1.4073  0.3643 -1.9741
 3637TIP3   OH232325   3.940   1.586  13.032  0.5503  0.0713 -0.2196
 3637TIP3    H132326   3.874   1.646  13.000  1.0568 -0.0660 -1.5639
 3637TIP3    H232327   3.991   1.637  13.095 -1.2059 -0.0130  1.3877
 3638TIP3   OH232328   2.903   5.472   1.081 -0.3688 -0.2143 -0.0631
 3638TIP3    H132329   2.877   5.511   0.997  0.5702  0.5657 -0.0098
 3638TIP3    H232330   2.995   5.449   1.070 -0.7637 -1.9649  0.0997
 3639TIP3   OH232331   3.503   3.563  12.277  0.2533  0.1208 -0.5207
 3639TIP3    H132332   3.501   3.468  12.282  0.1872  0.1950  1.2110
 3639TIP3    H232333   3.424   3.591  12.323  1.4577  1.0534  1.0785
 3640TIP3   OH232334   6.171   1.354  14.306 -0.4380 -0.0928 -0.1303
 3640TIP3    H132335   6.129   1.409  14.240  2.8396  0.7519 -1.6785
 3640TIP3    H232336   6.214   1.285  14.256  1.9280  0.4202  1.0722
 3641TIP3   OH232337   5.276   0.300  13.923  0.0945 -0.1485 -0.0736
 3641TIP3    H132338   5.243   0.344  13.844 -2.3508 -1.4325  0.1344
 3641TIP3    H232339   5.339   0.236  13.890  0.8231  0.8889 -0.7434
 3642TIP3   OH232340   3.791   0.800   0.942 -0.2514 -0.4929  0.0975
 3642TIP3    H132341   3.834   0.878   0.908  0.2819  0.0713  1.9664
 3642TIP3    H232342   3.706   0.798   0.897  1.2365 -1.0870 -2.9365
 3643TIP3   OH232343   0.626   3.638   5.867 -0.0295 -0.4444  0.1880
 3643TIP3    H132344   0.708   3.682   5.846 -0.4260 -0.4456 -1.4396
 3643TIP3    H232345   0.653   3.554   5.905  0.7109  0.4369  1.7291
 3644TIP3   OH232346   6.562   4.782  13.723 -0.3173 -0.4630 -0.3133
 3644TIP3    H132347   6.620   4.815  13.791  0.0657  1.6646 -1.5600
 3644TIP3    H232348   6.605   4.703  13.691  0.4043 -0.5023  0.7212
 3645TIP3   OH232349   2.079   1.348  16.797 -0.2656  0.1915 -0.5195
 3645TIP3    H132350   2.011   1.412  16.816 -2.1862 -1.6133 -1.0150
 3645TIP3    H232351   2.033   1.274  16.757  1.4823 -2.5096  2.0612
 3646TIP3   OH232352   5.718   6.031   0.257 -0.0099 -0.4017 -0.1735
 3646TIP3    H132353   5.765   6.093   0.200 -1.4747  1.0026  0.0581
 3646TIP3    H232354   5.677   5.970   0.196 -1.9233  1.3414 -0.7731
 3647TIP3   OH232355   1.608   5.866   2.375 -0.2966  0.3606 -0.0603
 3647TIP3    H132356   1.662   5.853   2.452 -1.0242  0.1234  0.4214
 3647TIP3    H232357   1.652   5.935   2.325  0.9611 -0.4928 -0.1648
 3648TIP3   OH232358   5.877   5.995  13.225 -0.6668  0.1947 -0.1075
 3648TIP3    H132359   5.792   5.952  13.213 -0.0931 -0.4989 -2.1170
 3648TIP3    H232360   5.864   6.052  13.301 -1.4615 -3.4425  2.7714
 3649TIP3   OH232361   3.975   6.526  12.415  0.0294 -0.3759 -0.5161
 3649TIP3    H132362   4.053   6.491  12.458 -0.0160 -2.2915 -1.8633
 3649TIP3    H232363   3.904   6.468  12.442 -1.1959  1.8040  1.3384
 3650TIP3   OH232364   1.423   2.326   3.268 -0.4394  0.1745 -0.3231
 3650TIP3    H132365   1.339   2.317   3.314 -0.4156  2.4299  0.3190
 3650TIP3    H232366   1.399   2.334   3.175 -0.6532 -2.1919 -0.5225
 3651TIP3   OH232367   4.129   1.827  13.146 -0.4817 -0.5000  0.4044
 3651TIP3    H132368   4.196   1.803  13.082 -0.8657  1.3677 -0.7492
 3651TIP3    H232369   4.170   1.812  13.231  1.8615  1.6777 -0.2474
 3652TIP3   OH232370   5.383   0.982  16.532 -0.2665 -0.2752 -0.1860
 3652TIP3    H132371   5.378   0.890  16.557  1.6800 -0.3417  0.1621
 3652TIP3    H232372   5.428   1.024  16.606  0.7865  0.5250 -1.2333
 3653TIP3   OH232373   1.306   3.211  13.599 -0.4758 -0.1997  0.9241
 3653TIP3    H132374   1.240   3.278  13.616 -1.7628 -1.4111  0.8506
 3653TIP3    H232375   1.379   3.258  13.561 -1.3690  1.1502  0.8291
 3654TIP3   OH232376   6.544   4.175  12.049 -0.2839 -0.1912  0.0548
 3654TIP3    H132377   6.627   4.215  12.075 -0.9443  0.9063  0.5121
 3654TIP3    H232378   6.536   4.196  11.956 -0.3983  0.3349  0.1818
 3655TIP3   OH232379   5.092   5.819  14.184  0.0308 -0.0312  0.5856
 3655TIP3    H132380   5.052   5.733  14.175 -0.7821  0.4445 -0.4788
 3655TIP3    H232381   5.054   5.871  14.113  0.0153  1.3921  1.5976
 3656TIP3   OH232382   5.873   6.201  15.335 -0.0449  0.1077 -0.8535
 3656TIP3    H132383   5.831   6.276  15.376  2.0107  0.0394  1.6380
 3656TIP3    H232384   5.802   6.138  15.322 -1.0956  0.7835  1.2083
 3657TIP3   OH232385   1.016   1.565   3.042  0.3047  0.5752  0.4733
 3657TIP3    H132386   1.057   1.555   2.956  1.3676 -1.3746  1.1399
 3657TIP3    H232387   1.089   1.586   3.100  0.2286 -1.5617  1.4470
 3658TIP3   OH232388   2.060   4.107   1.289  0.5885 -0.3815 -0.0089
 3658TIP3    H132389   2.152   4.132   1.274  0.6400 -0.3144  0.4108
 3658TIP3    H232390   2.024   4.095   1.201  0.6669  0.8091 -0.2287
 3659TIP3   OH232391   4.461   0.698  16.696 -0.0206  0.3111 -0.0605
 3659TIP3    H132392   4.378   0.736  16.725 -0.0599 -0.7263  1.2739
 3659TIP3    H232393   4.504   0.769  16.648 -1.6724  0.8673 -0.8045
 3660TIP3   OH232394   3.847   3.459  16.287  0.1365 -0.1144 -0.5506
 3660TIP3    H132395   3.815   3.389  16.344  1.0967  0.7866  1.1896
 3660TIP3    H232396   3.936   3.433  16.265  1.3252  1.5089  1.9360
 3661TIP3   OH232397   6.048   4.595  10.424 -0.0391 -0.4915 -0.7750
 3661TIP3    H132398   6.033   4.530  10.493  0.3775  0.7435  0.5409
 3661TIP3    H232399   5.961   4.615  10.390 -0.3192 -0.6526 -0.1633
 3662TIP3   OH232400   4.472   2.262   5.300 -0.0405  0.2743 -0.3970
 3662TIP3    H132401   4.548   2.298   5.254 -1.2890  2.4720 -0.9065
 3662TIP3    H232402   4.507   2.227   5.382  1.9177 -1.6677 -1.9548
 3663TIP3   OH232403   1.187   5.631  11.327 -0.2942  0.0551  1.0638
 3663TIP3    H132404   1.249   5.639  11.254 -0.4769 -1.2816  0.7215
 3663TIP3    H232405   1.120   5.570  11.295 -1.7707  1.4173  1.4575
 3664TIP3   OH232406   4.723   1.190  13.349  0.2982 -0.4674 -0.1675
 3664TIP3    H132407   4.634   1.190  13.315 -0.2515 -2.4497  1.0989
 3664TIP3    H232408   4.724   1.261  13.413  0.7796  1.9826 -2.6434
 3665TIP3   OH232409   3.657   0.934  14.449 -0.4403 -0.0950  1.0122
 3665TIP3    H132410   3.751   0.939  14.429 -0.8233  0.2862 -0.9105
 3665TIP3    H232411   3.623   1.020  14.426 -1.3710 -0.4273  1.0957
 3666TIP3   OH232412   4.508   2.757   5.328 -0.4063 -0.0108 -0.4201
 3666TIP3    H132413   4.474   2.669   5.346  1.5274 -0.2657  2.7832
 3666TIP3    H232414   4.450   2.816   5.374  0.2197  0.0595  0.2914
 3667TIP3   OH232415   6.175   0.947  14.823 -0.7072  0.5597 -0.0484
 3667TIP3    H132416   6.103   0.916  14.768 -0.8137  0.8632 -0.0862
 3667TIP3    H232417   6.150   1.037  14.845 -0.2677  0.7185 -0.1888
 3668TIP3   OH232418   1.277   5.387   4.289 -0.2159  0.0552 -0.0007
 3668TIP3    H132419   1.315   5.438   4.218  1.5572 -0.6217  0.4249
 3668TIP3    H232420   1.343   5.322   4.311 -1.5478 -1.0591  0.9213
 3669TIP3   OH232421   5.952   6.747  16.405 -0.4597 -0.3202  0.0690
 3669TIP3    H132422   6.037   6.738  16.447 -0.0965  0.2765 -0.5114
 3669TIP3    H232423   5.939   6.663  16.360 -0.3341 -0.5385  0.4389
 3670TIP3   OH232424   0.055   2.923  12.879  0.1736  0.0178  0.6054
 3670TIP3    H132425   0.039   2.895  12.789 -0.0468  0.0680  0.6279
 3670TIP3    H232426  -0.030   2.912  12.922 -0.1494  1.5116  0.4038
 3671TIP3   OH232427   1.881   2.468  11.585 -0.3021  0.5939 -0.1024
 3671TIP3    H132428   1.789   2.453  11.564 -0.3720  2.1215 -1.0484
 3671TIP3    H232429   1.925   2.388  11.555 -1.2462  0.0114 -0.0002
 3672TIP3   OH232430   3.438   0.034  15.795  0.3191  0.3300  0.9017
 3672TIP3    H132431   3.450   0.125  15.822 -0.4175 -0.0652  2.6582
 3672TIP3    H232432   3.527   0.002  15.779  0.5663  1.4226 -0.0436
 3673TIP3   OH232433   4.136   4.669  13.610  0.8652 -0.9811  0.0671
 3673TIP3    H132434   4.087   4.690  13.530 -0.8060  0.3564  1.3617
 3673TIP3    H232435   4.101   4.585  13.639  0.4675 -0.7948  0.1325
 3674TIP3   OH232436   2.964   2.547   2.331 -0.2857 -0.4092 -0.0233
 3674TIP3    H132437   2.957   2.467   2.383 -0.1558 -1.3444 -1.4129
 3674TIP3    H232438   2.994   2.518   2.245  1.2395  1.2941 -0.1346
 3675TIP3   OH232439   3.003   3.802  16.496  0.2813 -0.1041 -0.4042
 3675TIP3    H132440   2.916   3.786  16.533  0.0097 -0.1302 -1.0352
 3675TIP3    H232441   2.994   3.780  16.403  0.7879  0.5119 -0.6089
 3676TIP3   OH232442   2.106   6.444  16.325 -0.7646  0.1775  0.5224
 3676TIP3    H132443   2.125   6.536  16.305  0.5291 -0.2416 -0.3054
 3676TIP3    H232444   2.012   6.436  16.310 -0.5960  0.9514 -1.3004
 3677TIP3   OH232445   2.411   4.878   2.152  0.2542  0.2487  0.5184
 3677TIP3    H132446   2.337   4.847   2.204  0.3256 -0.6087  0.1261
 3677TIP3    H232447   2.392   4.971   2.136 -0.9547 -0.0616  0.0448
 3678TIP3   OH232448   1.467   4.130  13.031  0.1932 -0.3440  0.2272
 3678TIP3    H132449   1.456   4.057  13.092 -0.5665  0.6352  1.3101
 3678TIP3    H232450   1.447   4.208  13.083 -0.3837  0.5445 -1.2567
 3679TIP3   OH232451   3.137   5.919  14.972 -0.5710 -0.0246 -0.0202
 3679TIP3    H132452   3.150   5.886  14.883 -0.9913 -0.4353  0.0645
 3679TIP3    H232453   3.048   5.955  14.971  0.0662  1.6320 -0.2640
 3680TIP3   OH232454   6.172   3.916  10.810  0.7435  0.1128  0.3181
 3680TIP3    H132455   6.195   3.966  10.887  1.3820  0.4885 -0.1093
 3680TIP3    H232456   6.157   3.827  10.842  0.3596  0.4044  0.9615
 3681TIP3   OH232457   1.328   2.105  11.410 -0.1900  0.5611 -0.0611
 3681TIP3    H132458   1.345   2.017  11.378 -0.3423  0.4867  0.0599
 3681TIP3    H232459   1.336   2.161  11.332  0.8677  0.5703  0.0417
 3682TIP3   OH232460   3.849   0.847  12.875  0.5546  0.0863  0.2335
 3682TIP3    H132461   3.802   0.929  12.889 -1.3391 -0.6245 -1.4120
 3682TIP3    H232462   3.791   0.780  12.910  0.6445 -0.7687 -1.1764
 3683TIP3   OH232463   6.514   3.316  12.362 -0.0633  0.2278 -0.1107
 3683TIP3    H132464   6.586   3.297  12.302 -0.2558  0.3133 -0.3709
 3683TIP3    H232465   6.452   3.367  12.310  0.8617  2.4328  0.8353
 3684TIP3   OH232466   0.301   2.278  15.454 -0.2943 -0.5036  0.2137
 3684TIP3    H132467   0.287   2.273  15.359 -4.2352 -0.6010  0.6464
 3684TIP3    H232468   0.297   2.188  15.484 -2.5879 -0.2712  0.7663
 3685TIP3   OH232469   0.674   1.716   6.390 -0.0908 -0.2947 -0.0489
 3685TIP3    H132470   0.604   1.667   6.433  0.1178 -1.8721 -1.4151
 3685TIP3    H232471   0.750   1.705   6.447  0.2556 -2.5926 -0.8676
 3686TIP3   OH232472   0.989   1.746  16.760  0.3042  0.1027 -0.5227
 3686TIP3    H132473   1.015   1.777  16.847 -1.4520  0.2407 -0.0071
 3686TIP3    H232474   1.054   1.783  16.700 -0.2041  2.6057  0.3846
 3687TIP3   OH232475   1.398   3.630   0.289 -0.0189  0.0958  0.1666
 3687TIP3    H132476   1.482   3.665   0.259 -1.0850  2.3505 -0.4045
 3687TIP3    H232477   1.344   3.625   0.210 -1.1790  1.0281  0.8668
 3688TIP3   OH232478   5.425   0.611   2.643 -0.2931  0.8953 -0.1854
 3688TIP3    H132479   5.390   0.626   2.555  1.0086 -2.3501 -1.4220
 3688TIP3    H232480   5.520   0.614   2.632 -0.0325 -1.9198  0.4788
 3689TIP3   OH232481   1.752   4.434   1.108  0.1065 -0.0275 -0.4170
 3689TIP3    H132482   1.705   4.502   1.158  0.6926  0.2754 -0.2750
 3689TIP3    H232483   1.725   4.352   1.149 -2.3940 -0.0988 -2.0038
 3690TIP3   OH232484   0.024   5.226  14.553  0.0510 -0.2521 -0.5519
 3690TIP3    H132485  -0.007   5.143  14.588 -0.7749  0.0919 -0.4421
 3690TIP3    H232486   0.108   5.205  14.513 -0.3737 -1.2350 -0.9623
 3691TIP3   OH232487   1.417   4.728   3.070 -0.1101 -0.1621  0.2334
 3691TIP3    H132488   1.367   4.809   3.079 -1.0985 -0.7520  0.1366
 3691TIP3    H232489   1.419   4.690   3.158 -0.6846 -0.6239  0.0553
 3692TIP3   OH232490   1.533   6.398   2.317 -0.7211 -0.7791 -0.3531
 3692TIP3    H132491   1.549   6.363   2.405 -0.9233 -1.3895 -0.5522
 3692TIP3    H232492   1.494   6.484   2.332  1.2191  0.0620  0.1485
 3693TIP3   OH232493   3.700   5.997  11.316 -0.2888 -0.3716  0.4529
 3693TIP3    H132494   3.660   5.930  11.261 -0.5294  0.1791 -0.0563
 3693TIP3    H232495   3.723   5.952  11.397 -2.5467 -0.5634  1.0342
 3694TIP3   OH232496   2.403   1.024   6.077  0.2347 -0.3793  0.1678
 3694TIP3    H132497   2.328   0.967   6.096  2.7755 -3.9717  0.5302
 3694TIP3    H232498   2.432   1.054   6.162  0.6513 -1.0847  0.2839
 3695TIP3   OH232499   4.611   4.453   4.736  0.6236  0.3584 -0.1123
 3695TIP3    H132500   4.684   4.392   4.732  0.8729  0.7056 -1.2055
 3695TIP3    H232501   4.636   4.524   4.677  0.3266  1.5011  1.1001
 3696TIP3   OH232502   1.663   4.986  12.435 -0.3030  0.0482  0.4089
 3696TIP3    H132503   1.739   4.992  12.378  1.4300  0.9861  2.6424
 3696TIP3    H232504   1.636   5.077  12.449 -2.1470 -0.2785 -0.6412
 3697TIP3   OH232505   6.507   0.083   0.615  0.4704 -0.1148  0.1122
 3697TIP3    H132506   6.526  -0.009   0.596  2.4795 -0.0341  1.4280
 3697TIP3    H232507   6.422   0.081   0.660  0.8906 -1.4242  0.8779
 3698TIP3   OH232508   1.107   2.020  11.112 -0.2440 -0.0949 -0.3323
 3698TIP3    H132509   1.054   2.001  11.190  0.6566  1.6943  0.7772
 3698TIP3    H232510   1.195   1.992  11.136  0.2745  1.5401 -0.2138
 3699TIP3   OH232511   0.142   2.858  14.971 -0.8763 -0.3786  0.0940
 3699TIP3    H132512   0.094   2.929  14.930 -0.7316  0.0564  0.6642
 3699TIP3    H232513   0.141   2.879  15.065 -0.3656 -0.8445  0.2124
 3700TIP3   OH232514   1.541   5.221   6.352  0.5097  0.2852 -0.1522
 3700TIP3    H132515   1.492   5.304   6.351 -1.0149 -0.5893 -1.3671
 3700TIP3    H232516   1.556   5.204   6.445 -2.8768 -0.1617  0.4139
 3701TIP3   OH232517   0.115   0.933  14.157 -0.2151 -0.3909 -0.2154
 3701TIP3    H132518   0.078   1.013  14.118 -1.0424 -0.3321  0.6467
 3701TIP3    H232519   0.132   0.876  14.082  1.3671  0.9560 -0.9582
 3702TIP3   OH232520   3.265   3.881   0.453 -0.3713 -0.6016  0.4355
 3702TIP3    H132521   3.307   3.799   0.480  3.7473  1.5772  1.5060
 3702TIP3    H232522   3.206   3.902   0.525 -0.3355 -1.9100  0.8716
 3703TIP3   OH232523   2.912   1.396   5.623 -0.0992  0.6436  0.5589
 3703TIP3    H132524   2.987   1.456   5.622 -1.2362  2.1524  1.3739
 3703TIP3    H232525   2.843   1.445   5.667 -1.8956 -0.3364 -1.0250
 3704TIP3   OH232526   1.656   1.225   2.608 -0.0416 -0.1883  0.1336
 3704TIP3    H132527   1.703   1.142   2.598 -0.2717 -0.5688  1.8547
 3704TIP3    H232528   1.723   1.288   2.635 -0.4773 -0.8497  3.1132
 3705TIP3   OH232529   5.613   3.847   0.795 -0.3819  0.5518  0.3608
 3705TIP3    H132530   5.687   3.907   0.800  0.3167 -0.0564 -1.5735
 3705TIP3    H232531   5.585   3.850   0.703 -2.1539  0.0356  0.8273
 3706TIP3   OH232532   0.580   6.429  16.898  0.5669 -0.3881  0.0309
 3706TIP3    H132533   0.616   6.501  16.951  1.1003 -0.9990  0.5258
 3706TIP3    H232534   0.601   6.351  16.949 -2.0714 -0.7510  0.6805
 3707TIP3   OH232535   4.212   2.414  10.598  0.0939  0.1871 -0.0726
 3707TIP3    H132536   4.278   2.366  10.648 -0.9481 -0.7921  0.4133
 3707TIP3    H232537   4.195   2.492  10.650  1.1294  0.6388 -0.3950
 3708TIP3   OH232538   1.655   1.227   1.111 -0.0509 -0.4126 -0.3636
 3708TIP3    H132539   1.626   1.155   1.168  0.5707  0.9355  1.7741
 3708TIP3    H232540   1.726   1.189   1.060  0.6580 -1.2065  1.1287
 3709TIP3   OH232541   6.648   3.020   6.039  0.0872 -0.3114 -0.4307
 3709TIP3    H132542   6.656   3.114   6.055 -0.9649 -0.3056  0.1478
 3709TIP3    H232543   6.612   2.985   6.120 -1.5550 -0.8913 -1.3808
 3710TIP3   OH232544   0.701   0.044   5.930  0.3943  0.9987  0.0205
 3710TIP3    H132545   0.760   0.095   5.874 -0.1215 -0.2621 -1.7720
 3710TIP3    H232546   0.624   0.029   5.875 -0.4776  0.3524  1.3745
 3711TIP3   OH232547   2.168   5.182   0.090  0.0329 -0.1855 -0.5053
 3711TIP3    H132548   2.158   5.133   0.172  0.1322  1.9113  0.8390
 3711TIP3    H232549   2.262   5.194   0.080  0.0638 -1.0440 -1.3353
 3712TIP3   OH232550   4.383   1.084  16.961  0.2489 -0.3502  0.3696
 3712TIP3    H132551   4.356   1.154  17.020 -1.4940 -0.9430  0.3487
 3712TIP3    H232552   4.431   1.023  17.017 -2.1034 -1.3181  1.4439
 3713TIP3   OH232553   4.568   0.245  14.856  0.2039  0.0751  0.2792
 3713TIP3    H132554   4.611   0.185  14.918  2.7706  1.8868  0.3926
 3713TIP3    H232555   4.580   0.204  14.771 -0.6186 -0.9300  0.6247
 3714TIP3   OH232556   0.985   1.582   5.032 -0.4252 -0.1412 -0.1183
 3714TIP3    H132557   0.971   1.613   5.121 -1.5796 -1.6754  0.2917
 3714TIP3    H232558   0.993   1.487   5.041 -1.5728 -0.4355 -1.7366
 3715TIP3   OH232559   6.354   2.409   6.269  0.2961  0.2391  0.2456
 3715TIP3    H132560   6.392   2.376   6.350 -1.1392  0.2092  0.9301
 3715TIP3    H232561   6.375   2.342   6.204  0.0749 -0.5281  0.9513
 3716TIP3   OH232562   4.128   1.038  13.175 -0.1927  0.1276  0.5533
 3716TIP3    H132563   4.097   0.968  13.117 -0.4897  0.5515  0.1919
 3716TIP3    H232564   4.088   1.118  13.140  0.8229  0.6089  0.4459
 3717TIP3   OH232565   4.601   0.942  16.062  0.2822  0.5225 -0.0599
 3717TIP3    H132566   4.584   0.857  16.023  1.9627  0.1144  0.0383
 3717TIP3    H232567   4.558   0.938  16.148 -1.7571  0.7280 -0.9930
 3718TIP3   OH232568   1.761   4.978  15.690  0.2103  0.7308 -0.1170
 3718TIP3    H132569   1.726   4.900  15.734 -1.4396  0.6402 -1.4574
 3718TIP3    H232570   1.686   5.037  15.685  0.2997  0.7350 -2.7163
 3719TIP3   OH232571   1.409   3.180  12.869 -0.1219 -0.0795 -0.0788
 3719TIP3    H132572   1.373   3.195  12.782 -0.1712 -0.4923 -0.1325
 3719TIP3    H232573   1.333   3.154  12.922  0.5408 -5.7229 -1.2587
 3720TIP3   OH232574   2.653   1.460  15.928 -0.5206  0.4392 -0.0521
 3720TIP3    H132575   2.610   1.462  15.842 -0.6323  1.0804  0.0134
 3720TIP3    H232576   2.638   1.371  15.960  0.2615 -0.0729 -1.0584
 3721TIP3   OH232577   3.943   2.943   2.657 -0.6044  0.2089 -0.2675
 3721TIP3    H132578   3.995   2.990   2.723  1.0090 -0.8240 -0.7363
 3721TIP3    H232579   3.916   2.862   2.701  0.9227 -0.7349 -0.9526
 3722TIP3   OH232580   0.212   3.421   0.410  0.0470 -0.2080 -0.7173
 3722TIP3    H132581   0.151   3.400   0.481  0.4743 -0.6635 -0.4806
 3722TIP3    H232582   0.159   3.469   0.347 -0.3760  0.0667 -0.1606
 3723TIP3   OH232583   4.694   0.895   2.678  0.3715  0.4028 -0.4664
 3723TIP3    H132584   4.760   0.840   2.720  0.6316  1.0693  0.0127
 3723TIP3    H232585   4.744   0.969   2.642  0.0937  0.0769 -1.5539
 3724TIP3   OH232586   0.756   0.315  11.017 -0.4496 -0.9488  0.0668
 3724TIP3    H132587   0.823   0.379  11.042 -0.4797 -0.3408 -1.2905
 3724TIP3    H232588   0.775   0.295  10.926 -1.1556 -2.0041  0.1332
 3725TIP3   OH232589   5.109   4.783  12.583  0.1292  0.0100  0.0908
 3725TIP3    H132590   5.096   4.706  12.527  1.5129  0.3354 -0.7177
 3725TIP3    H232591   5.143   4.747  12.665 -3.3537 -0.6272  1.4168
 3726TIP3   OH232592   3.759   4.195  12.513 -0.3766 -0.2816 -0.1515
 3726TIP3    H132593   3.829   4.157  12.461 -0.9095  1.0640 -1.9746
 3726TIP3    H232594   3.768   4.155  12.600  2.6815 -0.0809 -0.2744
 3727TIP3   OH232595   5.023   5.383  11.961  0.1202 -0.2892 -0.2934
 3727TIP3    H132596   4.986   5.419  12.041 -2.3664  1.1267 -1.9548
 3727TIP3    H232597   5.103   5.433  11.946  0.9780 -1.0162  1.5701
 3728TIP3   OH232598   5.871   1.240   0.186  0.0984  0.2694 -0.0853
 3728TIP3    H132599   5.882   1.156   0.229  0.6390 -0.1916 -1.0783
 3728TIP3    H232600   5.842   1.218   0.097 -3.2030  1.2513  0.6285
 3729TIP3   OH232601   1.878   0.849   3.772 -0.0734  0.2673 -0.0464
 3729TIP3    H132602   1.807   0.842   3.835 -0.4417 -1.3470 -0.5855
 3729TIP3    H232603   1.957   0.855   3.826 -0.4958  0.5585  0.5531
 3730TIP3   OH232604   5.507   3.964   1.453  0.2998  0.2192 -0.1692
 3730TIP3    H132605   5.541   4.032   1.395  2.1620  0.2910  0.9283
 3730TIP3    H232606   5.417   3.990   1.472  0.0418  0.8200 -2.0313
 3731TIP3   OH232607   2.344   1.847   0.281  0.2482 -0.5345  0.1370
 3731TIP3    H132608   2.269   1.886   0.237  0.3953  0.1383  0.4691
 3731TIP3    H232609   2.318   1.842   0.373  0.6872 -0.0814  0.2920
 3732TIP3   OH232610   4.996   3.988  13.046  0.7351  0.0451 -0.1253
 3732TIP3    H132611   4.901   4.000  13.047  0.7916  0.5035  0.8965
 3732TIP3    H232612   5.008   3.899  13.014 -0.0951 -0.3750  0.6642
 3733TIP3   OH232613   0.762   0.028  15.096  0.4692 -0.0744 -0.2879
 3733TIP3    H132614   0.802  -0.038  15.039  0.5898 -0.2897  0.0413
 3733TIP3    H232615   0.678   0.047  15.054  0.4167 -0.4636 -0.3709
 3734TIP3   OH232616   5.658   3.920  14.487  0.0121  0.0859 -0.4647
 3734TIP3    H132617   5.686   3.862  14.558  3.8132  0.6369 -1.2883
 3734TIP3    H232618   5.656   3.864  14.409  0.2812  0.3795 -0.6842
 3735TIP3   OH232619   1.602   2.918  14.607 -0.4945  0.4761 -0.1047
 3735TIP3    H132620   1.609   2.924  14.703 -1.1835 -1.0532  0.0690
 3735TIP3    H232621   1.692   2.922  14.576 -0.3668  3.5865  0.3737
 3736TIP3   OH232622   2.812   2.960  14.344 -0.3512  0.1432  0.3062
 3736TIP3    H132623   2.888   2.909  14.370 -1.1374 -0.9416  0.5869
 3736TIP3    H232624   2.745   2.937  14.408 -0.5766  2.0159  0.7973
 3737TIP3   OH232625   2.299   4.704   1.132 -0.3361 -0.7298  0.7742
 3737TIP3    H132626   2.251   4.623   1.116  1.0655 -1.8327  1.9663
 3737TIP3    H232627   2.350   4.687   1.211  0.7352  0.9821  0.5006
 3738TIP3   OH232628   1.852   4.044  12.224  0.3473  0.1230 -0.0171
 3738TIP3    H132629   1.809   3.962  12.198  0.9330 -0.2512  0.1707
 3738TIP3    H232630   1.786   4.091  12.275  0.3789 -0.7667  0.8753
 3739TIP3   OH232631   2.725   0.001  15.403  0.2697  0.5479  0.2440
 3739TIP3    H132632   2.666  -0.067  15.371 -0.2690  1.5267 -0.9066
 3739TIP3    H232633   2.723   0.070  15.336  1.3513  1.3918  1.0231
 3740TIP3   OH232634   5.513   2.718   1.230 -0.5285  0.0705 -0.4832
 3740TIP3    H132635   5.539   2.784   1.294 -1.3673  0.4823 -0.5624
 3740TIP3    H232636   5.595   2.694   1.186  0.0781 -0.3413  0.8349
 3741TIP3   OH232637   3.316   1.606  12.807 -0.5100 -0.0045 -0.0928
 3741TIP3    H132638   3.233   1.595  12.759 -0.0088 -0.4378 -0.8726
 3741TIP3    H232639   3.384   1.597  12.740  0.1587  0.9821  0.4290
 3742TIP3   OH232640   4.796   4.255   4.684 -0.1270 -0.3708  0.8062
 3742TIP3    H132641   4.744   4.176   4.702  0.2497 -0.5274  1.2344
 3742TIP3    H232642   4.872   4.222   4.635 -1.1698  0.0558 -1.2092
 3743TIP3   OH232643   4.141   5.398  12.541  0.5155  0.0575 -0.5141
 3743TIP3    H132644   4.131   5.464  12.610  0.8574  0.0280 -0.4347
 3743TIP3    H232645   4.081   5.426  12.472 -1.2213 -0.8997  0.5340
 3744TIP3   OH232646   0.005   1.395   2.101  0.4091  0.8890 -0.0412
 3744TIP3    H132647  -0.056   1.467   2.113 -0.5072  0.0659  0.3473
 3744TIP3    H232648   0.028   1.398   2.008 -1.3394  0.3681 -0.5232
 3745TIP3   OH232649   2.976   6.665   2.088  0.7778  0.4451 -0.5324
 3745TIP3    H132650   2.946   6.737   2.143  0.6953  0.9672 -1.2577
 3745TIP3    H232651   2.939   6.683   2.001 -1.6644 -1.9032 -0.1574
 3746TIP3   OH232652   3.719   3.400  13.357  0.5763  0.7695 -0.0704
 3746TIP3    H132653   3.784   3.354  13.410 -0.4044 -0.6565 -0.0642
 3746TIP3    H232654   3.763   3.481  13.330  2.5808 -0.4389 -0.5935
 3747TIP3   OH232655   5.230   2.028   2.049 -0.0465  0.2689 -0.4778
 3747TIP3    H132656   5.298   2.021   2.117 -1.0175  0.9799  0.6001
 3747TIP3    H232657   5.195   2.116   2.059 -2.0436 -0.5109 -0.0986
 3748TIP3   OH232658   3.306   4.454   6.731 -0.0195  1.0155 -0.0724
 3748TIP3    H132659   3.217   4.435   6.761 -0.0880  2.0372  0.3970
 3748TIP3    H232660   3.362   4.408   6.793 -0.2093 -0.7826 -1.1687
 3749TIP3   OH232661   1.735   4.127  12.890  0.1176  0.0788  0.2473
 3749TIP3    H132662   1.723   4.155  12.799 -1.8739 -0.8407  0.1755
 3749TIP3    H232663   1.646   4.127  12.926  0.7137 -0.9520  1.7836
 3750TIP3   OH232664   6.598   0.956  16.692 -0.1382 -0.3983  0.5355
 3750TIP3    H132665   6.512   0.918  16.673 -0.6524  1.0948 -0.2737
 3750TIP3    H232666   6.595   0.977  16.786 -2.0346  2.7417 -0.0699
 3751TIP3   OH232667   2.051   1.053  14.470  0.0678  0.1052 -0.2505
 3751TIP3    H132668   1.989   1.125  14.477 -0.2665 -0.2654  0.6998
 3751TIP3    H232669   2.055   1.034  14.376 -0.1108  1.1169 -0.4747
 3752TIP3   OH232670   0.531   2.591   4.671  0.3784  0.4005 -0.1887
 3752TIP3    H132671   0.505   2.507   4.708  0.6994 -0.5241 -1.9793
 3752TIP3    H232672   0.507   2.655   4.738  1.0097 -1.1874  1.6147
 3753TIP3   OH232673   1.781   4.910  13.698  0.2727  0.3378 -0.2347
 3753TIP3    H132674   1.864   4.899  13.745 -0.1200 -1.3610  0.1262
 3753TIP3    H232675   1.718   4.933  13.767 -0.0927 -1.1347 -0.0429
 3754TIP3   OH232676   2.258   1.496  11.263 -0.1752 -0.4737 -0.2885
 3754TIP3    H132677   2.214   1.443  11.329  1.6232 -0.0739  1.3317
 3754TIP3    H232678   2.343   1.517  11.302  0.4004  0.9777 -2.1646
 3755TIP3   OH232679   6.075   0.406  16.477  0.4083  0.0177 -0.6196
 3755TIP3    H132680   5.991   0.438  16.444 -0.4920  0.1450  1.5920
 3755TIP3    H232681   6.126   0.386  16.399 -0.7813  2.2489 -2.0576
 3756TIP3   OH232682   3.228   2.701   4.668  0.0678 -0.4414 -0.1224
 3756TIP3    H132683   3.219   2.778   4.724  0.3159 -2.1547  2.5102
 3756TIP3    H232684   3.138   2.671   4.654  0.0478 -0.6438  0.3931
 3757TIP3   OH232685   6.455   0.274   2.156  0.4800  0.0947 -0.2829
 3757TIP3    H132686   6.405   0.193   2.168 -0.3495  0.5524 -0.6236
 3757TIP3    H232687   6.400   0.329   2.101  1.0499  0.8913 -0.0746
 3758TIP3   OH232688   6.662   6.359  12.595 -0.0288 -0.7593 -0.2687
 3758TIP3    H132689   6.650   6.351  12.690 -1.4379  3.9401  0.2109
 3758TIP3    H232690   6.753   6.386  12.585  0.0667 -1.0719 -0.2568
 3759TIP3   OH232691   2.620   3.943   2.957  0.2220 -0.0084 -0.7821
 3759TIP3    H132692   2.625   4.013   2.892 -1.1750  1.2812  0.4060
 3759TIP3    H232693   2.572   3.873   2.912  1.5973 -0.2309 -1.9740
 3760TIP3   OH232694   1.405   1.517   1.682 -0.4740  0.1369 -0.1919
 3760TIP3    H132695   1.396   1.487   1.772  0.6215 -0.3035 -0.2126
 3760TIP3    H232696   1.338   1.584   1.672  0.0063  0.8768  1.2424
 3761TIP3   OH232697   2.086   4.836   4.663 -0.3854  0.0540  0.1836
 3761TIP3    H132698   2.010   4.778   4.671 -0.3548 -0.3610 -1.8948
 3761TIP3    H232699   2.157   4.789   4.707 -1.0351 -0.1484  1.0246
 3762TIP3   OH232700   3.783   4.753  15.080  0.6058 -0.0866 -0.5589
 3762TIP3    H132701   3.787   4.848  15.095 -0.0815 -0.0497 -0.5448
 3762TIP3    H232702   3.837   4.739  15.002 -0.8187  0.6091 -1.7336
 3763TIP3   OH232703   3.850   6.254  16.131  0.1586 -0.2285  0.0939
 3763TIP3    H132704   3.856   6.263  16.226 -1.8328  0.7420  0.1604
 3763TIP3    H232705   3.914   6.317  16.097 -0.6330  0.9662  0.7769
 3764TIP3   OH232706   1.869   5.123   3.062  0.4078  0.3905  0.1804
 3764TIP3    H132707   1.948   5.178   3.062  0.3606  0.4811 -0.9667
 3764TIP3    H232708   1.900   5.037   3.033  0.3140  0.0513  1.0565
 3765TIP3   OH232709   0.423   0.004  14.709  0.3849 -0.1957 -0.3142
 3765TIP3    H132710   0.466   0.054  14.778 -0.1766 -0.3200  0.1283
 3765TIP3    H232711   0.355   0.062  14.676 -1.3554 -1.2121  1.2980
 3766TIP3   OH232712   3.750   1.719  16.998 -0.6194 -0.4060  0.0309
 3766TIP3    H132713   3.810   1.645  16.991  0.2167  0.1661  0.9962
 3766TIP3    H232714   3.710   1.725  16.911  0.6283 -0.8653 -0.5942
 3767TIP3   OH232715   5.150   0.273   3.773 -0.1403 -0.2450  0.3435
 3767TIP3    H132716   5.146   0.273   3.677 -0.1517 -0.5071  0.3429
 3767TIP3    H232717   5.073   0.223   3.800 -0.5334  0.4311  0.5108
 3768TIP3   OH232718   5.122   3.419  13.581 -0.3914 -0.4416 -0.3553
 3768TIP3    H132719   5.038   3.443  13.541 -0.0929  0.3151 -0.5462
 3768TIP3    H232720   5.100   3.397  13.672 -0.8211 -0.4320 -0.4550
 3769TIP3   OH232721   1.011   2.477   2.916 -0.4637 -0.1853 -0.7142
 3769TIP3    H132722   1.092   2.476   2.865  2.3659 -0.5971  3.2525
 3769TIP3    H232723   0.963   2.399   2.888  0.3880  0.1264 -3.2578
 3770TIP3   OH232724   4.825   0.731   3.049  0.0508 -0.2365 -0.7771
 3770TIP3    H132725   4.782   0.646   3.051 -0.1748 -0.1179 -0.4101
 3770TIP3    H232726   4.886   0.730   3.122 -0.4856  0.1847 -0.3111
 3771TIP3   OH232727   3.798   2.434   3.225  0.0734  0.0332 -0.1055
 3771TIP3    H132728   3.827   2.412   3.136  1.0759 -1.2685  0.5145
 3771TIP3    H232729   3.803   2.352   3.273 -0.9376  0.6191  1.0495
 3772TIP3   OH232730   6.249   3.172   0.001  0.0338  0.2293 -0.4477
 3772TIP3    H132731   6.193   3.224  -0.057  1.2200  0.5205 -1.3814
 3772TIP3    H232732   6.193   3.100   0.030 -0.8564  0.5742 -1.2509
 3773TIP3   OH232733   1.367   2.283  12.986 -0.0134  0.2773 -0.1784
 3773TIP3    H132734   1.275   2.266  13.003  0.0446 -0.1776 -0.3006
 3773TIP3    H232735   1.413   2.238  13.057  0.1213  0.3795 -0.2004
 3774TIP3   OH232736   4.146   0.685  15.747  0.5386 -0.0924 -0.1493
 3774TIP3    H132737   4.092   0.702  15.824  1.4833  0.0277  0.5008
 3774TIP3    H232738   4.138   0.764  15.694  0.8834  0.3468  0.4388
 3775TIP3   OH232739   5.279   1.309   0.015 -0.0086 -0.6984  0.2754
 3775TIP3    H132740   5.220   1.380  -0.009  1.2786 -0.5287 -2.7866
 3775TIP3    H232741   5.366   1.349   0.021  0.5003 -1.7177  0.1025
 3776TIP3   OH232742   3.131   3.693   2.339 -1.0007 -0.4346 -0.2626
 3776TIP3    H132743   3.223   3.684   2.313 -0.6992 -2.2848  1.2320
 3776TIP3    H232744   3.082   3.654   2.267 -0.6945  1.0407 -1.3197
 3777TIP3   OH232745   2.598   4.000   2.342 -0.7846 -0.3783 -0.0728
 3777TIP3    H132746   2.566   4.064   2.406  1.2670 -0.5742  1.2652
 3777TIP3    H232747   2.688   4.027   2.325 -1.2915 -0.2607 -3.0839
 3778TIP3   OH232748   4.233   3.494   0.166  1.2095 -0.0251 -0.1213
 3778TIP3    H132749   4.226   3.449   0.250 -0.4019  0.6079  0.1243
 3778TIP3    H232750   4.274   3.431   0.107 -2.1656 -2.4209 -0.1672
 3779TIP3   OH232751   0.983   4.930   5.587  0.0308 -0.8125 -0.6181
 3779TIP3    H132752   0.942   4.965   5.508 -0.8495 -0.6048 -0.0908
 3779TIP3    H232753   1.007   5.008   5.638 -1.7657 -0.9049  0.4744
 3780TIP3   OH232754   4.568   4.271  11.367  0.0836 -0.3305 -0.2577
 3780TIP3    H132755   4.661   4.251  11.362  0.3312  0.6251  0.3243
 3780TIP3    H232756   4.532   4.200  11.422  0.5245 -0.5139 -0.2001
 3781TIP3   OH232757   5.820   0.027  11.714  0.1030 -0.3645 -0.2389
 3781TIP3    H132758   5.817  -0.059  11.757 -0.8700 -0.0137  0.4539
 3781TIP3    H232759   5.729   0.044  11.689  0.1345  0.8154  0.3762
 3782TIP3   OH232760   1.402   0.500   3.237 -0.1826  0.3291 -0.5963
 3782TIP3    H132761   1.356   0.575   3.199 -0.6306  0.3850  0.0331
 3782TIP3    H232762   1.438   0.532   3.319  2.0751  0.6208 -1.6273
 3783TIP3   OH232763   2.807   5.510   4.681  0.0280 -0.1169  0.1697
 3783TIP3    H132764   2.871   5.531   4.613  0.4035  0.3520  0.6555
 3783TIP3    H232765   2.753   5.440   4.643  0.5220 -0.1820 -0.4285
 3784TIP3   OH232766   3.585   4.650  14.594 -0.3464 -0.1652 -0.0437
 3784TIP3    H132767   3.661   4.592  14.602 -0.4704 -0.3619 -0.2530
 3784TIP3    H232768   3.562   4.646  14.501  0.4424  1.2424 -0.3159
 3785TIP3   OH232769   4.944   3.259   2.876  0.3920 -0.2606 -0.0497
 3785TIP3    H132770   5.000   3.232   2.948  0.6004 -0.4361 -0.2747
 3785TIP3    H232771   4.985   3.340   2.843 -0.7283  0.8604  1.1927
 3786TIP3   OH232772   1.065   0.858  14.602 -0.2857  0.7564 -0.3081
 3786TIP3    H132773   1.033   0.815  14.681  1.2937  0.2057  0.0568
 3786TIP3    H232774   1.019   0.814  14.530 -1.1102  0.7049  0.2393
 3787TIP3   OH232775   4.076   5.768   4.701  0.9511  0.5585  0.3088
 3787TIP3    H132776   4.100   5.812   4.619  1.4178  0.6310  0.4796
 3787TIP3    H232777   4.040   5.684   4.674 -2.1156  1.8768 -0.1890
 3788TIP3   OH232778   2.728   0.543  13.969  0.1516  0.0966  0.0409
 3788TIP3    H132779   2.796   0.526  14.035  0.2014  0.4829  0.0885
 3788TIP3    H232780   2.669   0.468  13.976  1.7128 -1.3718 -1.4787
 3789TIP3   OH232781   3.789   6.475  13.337 -0.0818  0.0893 -0.2344
 3789TIP3    H132782   3.852   6.492  13.267 -3.0092  1.9423 -2.6122
 3789TIP3    H232783   3.778   6.560  13.380 -0.9791 -0.2022  0.1286
 3790TIP3   OH232784   4.225   3.454  12.408 -0.0345  0.5066 -0.8242
 3790TIP3    H132785   4.178   3.536  12.420 -1.1858 -0.0629 -1.3556
 3790TIP3    H232786   4.307   3.466  12.457 -1.0262  1.2534  0.7192
 3791TIP3   OH232787   0.587   1.124  11.569 -0.2000  0.0059 -0.2128
 3791TIP3    H132788   0.557   1.100  11.656  1.3649  0.3805  0.4544
 3791TIP3    H232789   0.556   1.053  11.513 -1.1415 -0.2822  0.6496
 3792TIP3   OH232790   4.459   6.623  14.437 -0.1066  0.0587 -0.1361
 3792TIP3    H132791   4.463   6.548  14.378  1.7275 -0.5720  0.7115
 3792TIP3    H232792   4.493   6.696  14.385 -2.2458  0.4475 -1.0858
 3793TIP3   OH232793   5.116   6.128  12.147 -0.0225  0.8000  0.5021
 3793TIP3    H132794   5.040   6.138  12.204  0.2336  0.8706  0.8275
 3793TIP3    H232795   5.179   6.192  12.178 -0.7114  2.4278 -1.2546
 3794TIP3   OH232796   1.031   4.306  15.458  0.0552 -0.2932 -0.1219
 3794TIP3    H132797   1.126   4.297  15.463  0.1398 -0.1148 -1.1914
 3794TIP3    H232798   1.009   4.361  15.533  0.8635  0.0916 -0.1495
 3795TIP3   OH232799   0.303   0.704  12.213  0.0971  0.1887  0.5347
 3795TIP3    H132800   0.223   0.701  12.266  0.8290  1.2461  1.7408
 3795TIP3    H232801   0.308   0.794  12.181  1.9169  0.8054  2.3215
 3796TIP3   OH232802   6.542   2.655   0.468 -0.1534  0.0832  0.1516
 3796TIP3    H132803   6.550   2.560   0.478 -0.9110  0.0397  0.3740
 3796TIP3    H232804   6.451   2.674   0.487 -0.8027  0.5020 -2.8412
 3797TIP3   OH232805   1.231   0.045   6.196  0.2961  0.9527  0.1720
 3797TIP3    H132806   1.316   0.001   6.207 -0.4792 -0.5309  0.4524
 3797TIP3    H232807   1.191   0.043   6.283 -0.2120  1.2427 -0.0533
 3798TIP3   OH232808   6.571   3.793   0.911 -0.4051 -0.4349  0.1089
 3798TIP3    H132809   6.509   3.825   0.846 -1.6192 -0.6601  1.1085
 3798TIP3    H232810   6.523   3.724   0.958  0.0636  0.3998  1.8896
 3799TIP3   OH232811   3.348   5.879   1.651  0.1973 -0.8811  0.0806
 3799TIP3    H132812   3.318   5.938   1.720 -1.5660 -0.4550 -0.9886
 3799TIP3    H232813   3.361   5.795   1.695  2.8434  0.2117  1.6600
 3800TIP3   OH232814   0.660   0.830  11.526 -0.4703 -0.0461 -0.3563
 3800TIP3    H132815   0.733   0.884  11.499  0.8098 -1.7413 -0.4525
 3800TIP3    H232816   0.699   0.762  11.581 -2.1446 -0.3210  0.5838
 3801TIP3   OH232817   4.130   4.928   2.658 -0.0139 -0.1379  0.3246
 3801TIP3    H132818   4.167   4.845   2.686  0.1892  0.6595  2.6434
 3801TIP3    H232819   4.092   4.910   2.572 -0.1793 -2.6756  0.8557
 3802TIP3   OH232820   0.197   3.565   4.075  0.4945  0.0828  0.1749
 3802TIP3    H132821   0.256   3.641   4.069 -2.3200  2.5321  0.8048
 3802TIP3    H232822   0.231   3.513   4.147  2.3187  0.9148 -0.0260
 3803TIP3   OH232823   0.648   2.206   4.315 -0.9862 -0.5496  0.3775
 3803TIP3    H132824   0.643   2.112   4.328 -1.6187 -0.8487 -1.6504
 3803TIP3    H232825   0.611   2.220   4.227  1.1206  1.3387 -0.2997
 3804TIP3   OH232826   2.611   5.278   3.663  0.3629 -0.0531 -0.1261
 3804TIP3    H132827   2.640   5.187   3.673  1.2999  0.2846  0.3788
 3804TIP3    H232828   2.583   5.284   3.572 -0.7147 -1.1144  0.1077
 3805TIP3   OH232829   0.013   1.182  14.668  0.6049  0.0850 -0.0048
 3805TIP3    H132830  -0.032   1.192  14.584  1.0440 -0.1137 -0.2646
 3805TIP3    H232831  -0.053   1.207  14.733  0.8954  2.3454 -0.4833
 3806TIP3   OH232832   5.189   1.018  17.041 -0.3513 -0.6644  0.2285
 3806TIP3    H132833   5.249   0.979  17.105  0.2657 -1.3757 -0.7645
 3806TIP3    H232834   5.148   0.944  16.997 -1.7054 -0.1859  0.6149
 3807TIP3   OH232835   4.976   1.567   5.962  0.3332 -0.2932 -0.4671
 3807TIP3    H132836   4.904   1.586   5.902  0.1012 -2.6709 -1.0310
 3807TIP3    H232837   5.034   1.509   5.913 -0.2244 -2.9480  1.7509
 3808TIP3   OH232838   6.151   1.874  14.842 -0.2070 -0.0822  0.3621
 3808TIP3    H132839   6.191   1.911  14.922 -0.2232 -1.0483  0.8308
 3808TIP3    H232840   6.172   1.938  14.774 -0.1128  0.7234  1.1180
 3809TIP3   OH232841   5.363   1.013  15.431 -0.0345  0.3879  0.1511
 3809TIP3    H132842   5.289   1.004  15.492 -0.3273  0.8853 -0.1260
 3809TIP3    H232843   5.397   1.100  15.448 -0.4330  0.7253 -0.7374
 3810TIP3   OH232844   1.402   1.836  10.349 -0.0949 -0.7742 -0.1843
 3810TIP3    H132845   1.318   1.836  10.303 -1.2265  1.1020  1.6783
 3810TIP3    H232846   1.390   1.775  10.422 -1.3194  2.0802  2.2491
 3811TIP3   OH232847   1.839   4.124  15.745  0.7203  0.6270 -0.1806
 3811TIP3    H132848   1.817   4.038  15.780  0.7407  0.2502 -1.0556
 3811TIP3    H232849   1.756   4.161  15.716  0.8849  0.2227 -1.2481
 3812TIP3   OH232850   1.114   1.021   0.348  1.1419 -0.3894 -0.2414
 3812TIP3    H132851   1.022   0.996   0.337  1.5327 -1.5631 -1.0419
 3812TIP3    H232852   1.130   1.086   0.280  0.2819  1.7574  1.4688
 3813TIP3   OH232853   3.714   6.175   1.496 -0.5495  0.0839  0.4895
 3813TIP3    H132854   3.742   6.245   1.438  0.4429 -1.4635 -0.9668
 3813TIP3    H232855   3.621   6.162   1.475  0.1973 -1.6868 -2.2033
 3814TIP3   OH232856   4.751   5.699  15.124  0.1198  0.3814 -0.2033
 3814TIP3    H132857   4.682   5.703  15.190  1.5342  1.0613  1.3405
 3814TIP3    H232858   4.781   5.608  15.127 -0.4877  0.1605 -0.6565
 3815TIP3   OH232859   3.195   1.835   1.910  0.2848 -0.2035 -0.3690
 3815TIP3    H132860   3.235   1.777   1.974 -0.6490 -2.3279 -1.5896
 3815TIP3    H232861   3.236   1.920   1.925  1.9708 -1.2391  1.2895
 3816TIP3   OH232862   0.255   6.516  13.218  0.2284  0.2403  1.0639
 3816TIP3    H132863   0.329   6.520  13.278 -0.7261  4.6915  2.3045
 3816TIP3    H232864   0.183   6.482  13.271  0.0252  1.6581  1.7439
 3817TIP3   OH232865   1.769   1.460  11.179 -0.1960  0.5625 -0.1464
 3817TIP3    H132866   1.854   1.417  11.180 -0.0510  0.8551  0.3866
 3817TIP3    H232867   1.751   1.475  11.086 -1.9147 -3.9014 -0.7960
 3818TIP3   OH232868   4.793   3.873  15.227 -0.0444 -0.4647  0.2155
 3818TIP3    H132869   4.851   3.948  15.229 -0.0824 -0.4387  0.4515
 3818TIP3    H232870   4.789   3.846  15.135 -1.7293  1.1273 -0.2390
 3819TIP3   OH232871   6.715   2.446  16.289 -0.5229 -0.6736 -0.3836
 3819TIP3    H132872   6.680   2.530  16.319  2.9054  1.6462 -2.1242
 3819TIP3    H232873   6.777   2.420  16.357 -1.5224 -1.8596  0.1183
 3820TIP3   OH232874   1.445   3.703   3.904  0.0224 -0.4666  1.0864
 3820TIP3    H132875   1.536   3.673   3.897 -0.0002 -0.4582  0.7163
 3820TIP3    H232876   1.393   3.624   3.889 -0.0581 -0.0128 -1.4392
 3821TIP3   OH232877   5.611   3.496  12.338  0.3971  0.2046  0.2967
 3821TIP3    H132878   5.695   3.522  12.300 -0.2832  2.4267  0.1114
 3821TIP3    H232879   5.557   3.472  12.263  1.3562 -3.1495  0.5401
 3822TIP3   OH232880   1.395   0.284   6.123  0.1554 -0.8869 -0.3756
 3822TIP3    H132881   1.311   0.239   6.136  0.4701 -1.1643  0.8309
 3822TIP3    H232882   1.447   0.261   6.200  0.3276  1.5585  0.3363
 3823TIP3   OH232883   2.007   5.129   1.164 -0.0978  0.5543  0.2699
 3823TIP3    H132884   1.947   5.118   1.090  0.1330 -0.0538  0.1626
 3823TIP3    H232885   2.070   5.057   1.154  0.4640  1.0045  0.5546
 3824TIP3   OH232886   4.172   3.644   3.593 -0.1482 -0.6646  0.5017
 3824TIP3    H132887   4.140   3.599   3.671  1.2179  0.5483  1.8327
 3824TIP3    H232888   4.244   3.589   3.562  0.1575 -0.4865  0.8860
 3825TIP3   OH232889   4.393   3.806   4.855 -0.0637  0.2135  0.0728
 3825TIP3    H132890   4.309   3.761   4.859  1.0207 -1.9275  0.4400
 3825TIP3    H232891   4.440   3.778   4.934  1.6716 -0.1343 -1.0139
 3826TIP3   OH232892   3.159   5.813   3.667 -0.1652 -0.1973  0.4671
 3826TIP3    H132893   3.063   5.813   3.667 -0.2057  1.4485  0.8949
 3826TIP3    H232894   3.182   5.880   3.732  1.3003 -1.4387  1.2768
 3827TIP3   OH232895   4.471   6.330  12.042 -0.3181  0.4279  0.3480
 3827TIP3    H132896   4.563   6.326  12.068 -0.2232  2.2231  0.3888
 3827TIP3    H232897   4.461   6.414  11.999 -1.4314 -0.7144 -1.7901
 3828TIP3   OH232898   4.324   5.517  12.884  0.1496 -0.0308 -0.1962
 3828TIP3    H132899   4.282   5.447  12.834 -0.2232 -0.9378  1.3369
 3828TIP3    H232900   4.394   5.549  12.826  0.0572 -1.3797 -1.0922
 3829TIP3   OH232901   0.102   0.570  13.108 -0.3688 -0.6019 -0.5164
 3829TIP3    H132902   0.087   0.656  13.148  0.2183 -0.9214  0.4211
 3829TIP3    H232903   0.023   0.520  13.128 -0.0326 -0.7948  0.3470
 3830TIP3   OH232904   4.614   5.542  17.298 -0.4803 -0.0629  0.3259
 3830TIP3    H132905   4.692   5.534  17.353  0.0903 -0.9198 -0.5577
 3830TIP3    H232906   4.555   5.598  17.347  0.8849  1.0120  0.8175
 3831TIP3   OH232907   5.083   0.733  15.780 -0.2842  0.1126  0.5516
 3831TIP3    H132908   5.049   0.759  15.866 -0.1233 -0.8090  0.9088
 3831TIP3    H232909   5.146   0.663  15.800 -1.2878 -1.1114 -0.4009
 3832TIP3   OH232910   2.127   0.463   3.985 -0.0065 -0.1152  0.1235
 3832TIP3    H132911   2.032   0.478   3.987  0.3347  2.7491 -0.2787
 3832TIP3    H232912   2.160   0.530   3.925  2.2390 -1.4735 -0.2726
 3833TIP3   OH232913   0.659   4.638   6.118  0.0506  0.2611 -0.1711
 3833TIP3    H132914   0.725   4.673   6.178 -0.5168  0.2698  0.4731
 3833TIP3    H232915   0.644   4.548   6.148  1.0320 -0.3357 -1.4143
 3834TIP3   OH232916   2.208   5.168  11.197  0.0788  0.4348  0.7836
 3834TIP3    H132917   2.280   5.127  11.245 -0.0584  1.1012  1.5701
 3834TIP3    H232918   2.250   5.232  11.139  0.4514 -1.7682 -1.5947
 3835TIP3   OH232919   1.990   4.076  11.547 -0.2959  0.5571  0.3991
 3835TIP3    H132920   1.908   4.055  11.593 -0.5493 -0.7912 -0.5809
 3835TIP3    H232921   2.057   4.030  11.596 -0.3580  0.3340  0.2761
 3836TIP3   OH232922   2.540   4.362   5.289  0.5930 -0.7577  0.4928
 3836TIP3    H132923   2.465   4.339   5.344  0.8649 -0.9945  0.7662
 3836TIP3    H232924   2.539   4.457   5.285  0.6450 -0.7347  1.0143
 3837TIP3   OH232925   2.035   0.043  10.951 -0.6848  0.0063 -0.4144
 3837TIP3    H132926   2.007   0.112  11.012  0.6997  0.4228 -0.2001
 3837TIP3    H232927   2.092   0.089  10.889 -0.3516 -0.8164 -0.7194
 3838TIP3   OH232928   1.762   3.001  12.334 -0.0273 -0.9961 -0.1278
 3838TIP3    H132929   1.807   2.953  12.264  0.6167  0.6996 -0.9434
 3838TIP3    H232930   1.784   2.954  12.414  1.7786 -1.2461 -0.7275
 3839TIP3   OH232931   2.927   0.571  12.237 -0.4759 -0.3440  0.5498
 3839TIP3    H132932   2.846   0.622  12.231 -0.2565 -0.0221  0.2966
 3839TIP3    H232933   2.970   0.585  12.152 -0.5013 -1.0965  0.4119
 3840TIP3   OH232934   1.408   4.818  13.638 -0.1655  0.0826  0.4415
 3840TIP3    H132935   1.455   4.740  13.612  0.2282 -0.1013  1.6585
 3840TIP3    H232936   1.381   4.859  13.556 -0.4168 -1.3420 -0.2045
 3841TIP3   OH232937   1.534   5.813  14.357 -0.0139  0.1736 -0.4267
 3841TIP3    H132938   1.532   5.905  14.330  0.3600 -0.3313 -2.3634
 3841TIP3    H232939   1.622   5.801  14.393 -0.9996  1.2239  2.6469
 3842TIP3   OH232940   1.175   3.006   1.660  0.4662  0.0166  0.3886
 3842TIP3    H132941   1.157   3.020   1.753  0.6009 -2.4256  0.8691
 3842TIP3    H232942   1.092   2.974   1.624  0.4569  0.8032 -0.3010
 3843TIP3   OH232943   0.530   2.289   4.570  0.0088  0.1892  0.3141
 3843TIP3    H132944   0.469   2.334   4.512 -1.2385  0.0780  1.4903
 3843TIP3    H232945   0.600   2.258   4.512 -1.0961  0.2238 -1.0941
 3844TIP3   OH232946   3.999   6.464   0.340 -0.1752  0.0571 -0.0199
 3844TIP3    H132947   4.029   6.428   0.257 -1.6429  2.0683 -1.5554
 3844TIP3    H232948   3.920   6.415   0.361  0.5389 -0.8735  0.5623
 3845TIP3   OH232949   6.037   6.606   4.936  0.4175  0.2423 -0.3841
 3845TIP3    H132950   6.013   6.525   4.982  2.5721 -0.7633 -0.9117
 3845TIP3    H232951   6.118   6.635   4.980 -0.2965  2.1139 -0.2259
 3846TIP3   OH232952   6.660   6.114   4.515 -0.6576 -0.0345 -0.1703
 3846TIP3    H132953   6.607   6.116   4.595 -1.9177  2.3056 -0.9599
 3846TIP3    H232954   6.599   6.089   4.446 -0.1430  0.1838 -0.7146
 3847TIP3   OH232955   5.971   5.417  17.316 -0.0657 -0.5235 -0.4788
 3847TIP3    H132956   5.941   5.364  17.391  0.0558  0.1146  0.0264
 3847TIP3    H232957   6.058   5.384  17.297  0.0252 -0.4814 -0.1413
 3848TIP3   OH232958   1.008   0.228   2.811  0.7311 -0.2710 -0.4137
 3848TIP3    H132959   0.997   0.158   2.747 -0.1289  1.2068 -1.9719
 3848TIP3    H232960   1.084   0.278   2.779  0.9909 -0.1538  0.3647
 3849TIP3   OH232961   6.738   2.692   4.593 -0.3612  0.0826 -0.5396
 3849TIP3    H132962   6.817   2.661   4.637 -0.6255  1.4987  1.0484
 3849TIP3    H232963   6.771   2.750   4.523  0.0916  2.4598  1.4905
 3850TIP3   OH232964   6.112   6.185   2.018 -0.3142 -0.4570 -0.5331
 3850TIP3    H132965   6.019   6.163   2.027 -0.3271 -0.6731 -1.1400
 3850TIP3    H232966   6.148   6.112   1.966  0.3534 -0.7735  0.3646
 3851TIP3   OH232967   0.621   5.761  11.650  0.8233  0.6617 -0.2569
 3851TIP3    H132968   0.715   5.755  11.664  0.7947  0.1728 -0.2414
 3851TIP3    H232969   0.588   5.812  11.725  0.7371 -1.4737  1.2515
 3852TIP3   OH232970   1.164   0.070  14.951  0.2178  0.2007 -0.4381
 3852TIP3    H132971   1.133   0.053  14.862 -0.6922  1.1859 -0.3381
 3852TIP3    H232972   1.099   0.131  14.987 -0.4354 -1.5601  1.5318
 3853TIP3   OH232973   0.123   2.059   1.965 -0.1231  0.4340 -0.3312
 3853TIP3    H132974   0.095   2.135   2.016  1.9947 -0.5907  2.6735
 3853TIP3    H232975   0.054   1.994   1.979  0.4739  0.1345  1.4469
 3854TIP3   OH232976   1.730   3.628   4.066 -0.7220  0.2245 -0.2802
 3854TIP3    H132977   1.800   3.678   4.107  0.3445 -1.4978  0.1030
 3854TIP3    H232978   1.719   3.669   3.980  0.4099  0.8339 -0.1576
 3855TIP3   OH232979   0.323   2.168  12.677 -0.7208 -0.1614 -0.1865
 3855TIP3    H132980   0.281   2.204  12.599 -0.3688  0.5045 -0.0740
 3855TIP3    H232981   0.370   2.091  12.645 -0.4043  0.2300 -0.6692
 3856TIP3   OH232982   2.190   6.112  11.603  0.1583 -0.1788  0.3486
 3856TIP3    H132983   2.204   6.067  11.520  1.6489  0.9866 -0.0626
 3856TIP3    H232984   2.095   6.110  11.615 -0.0973 -0.2655 -1.4440
 3857TIP3   OH232985   5.102   4.391   6.177 -0.3132 -0.2801  0.1352
 3857TIP3    H132986   5.064   4.468   6.219  0.5562 -0.1066  0.6208
 3857TIP3    H232987   5.174   4.426   6.124 -0.7236 -0.6219 -0.6762
 3858TIP3   OH232988   2.774   0.799  13.588  0.2185  0.1253 -0.4642
 3858TIP3    H132989   2.786   0.855  13.511 -0.2430  2.8304  1.2908
 3858TIP3    H232990   2.684   0.768  13.581 -0.2138  1.3356 -0.4457
 3859TIP3   OH232991   0.339   0.047   0.200  0.7267 -0.2078  0.2155
 3859TIP3    H132992   0.277   0.094   0.255  0.8580 -0.3031  0.4461
 3859TIP3    H232993   0.419   0.041   0.253  0.8360 -0.3463  0.0365
 3860TIP3   OH232994   6.377   4.368  12.598 -0.3391  0.6095 -0.0617
 3860TIP3    H132995   6.410   4.287  12.560 -0.9823 -0.1020  0.8474
 3860TIP3    H232996   6.342   4.342  12.683  1.3699  2.2011  1.2125
 3861TIP3   OH232997   5.090   5.630  15.654  0.4418 -0.3286  0.0882
 3861TIP3    H132998   5.168   5.601  15.701  1.4482 -0.4664 -1.5759
 3861TIP3    H232999   5.027   5.654  15.722  0.9322 -2.8058  1.5033
 3862TIP3   OH233000   6.175   2.614  12.778  0.0043  0.4056 -0.4232
 3862TIP3    H133001   6.209   2.549  12.716  0.1730 -0.0647  0.1515
 3862TIP3    H233002   6.246   2.627  12.840  0.6949  2.5344 -1.5403
 3863TIP3   OH233003   0.298   0.582  16.070  0.3537  0.0559 -0.2460
 3863TIP3    H133004   0.342   0.499  16.091  2.1719  0.9633 -0.2564
 3863TIP3    H233005   0.303   0.632  16.151 -0.3639  0.3349 -0.3646
 3864TIP3   OH233006   4.709   3.440  13.287 -0.1399  0.0051 -0.1826
 3864TIP3    H133007   4.712   3.411  13.196  0.7861  1.6982 -0.7390
 3864TIP3    H233008   4.623   3.412  13.317 -1.3001  1.1026 -2.2153
 3865TIP3   OH233009   4.975   0.383   2.058  0.4645 -0.2800 -0.1180
 3865TIP3    H133010   4.960   0.292   2.087 -0.2564 -0.2864 -0.4751
 3865TIP3    H233011   4.927   0.389   1.976  0.5903  0.4019 -0.1412
 3866TIP3   OH233012   4.541   6.128   0.760 -0.0334  0.2828 -0.0683
 3866TIP3    H133013   4.557   6.057   0.698 -0.9270 -0.5706  0.6340
 3866TIP3    H233014   4.626   6.168   0.774  0.4633 -0.5457 -0.6197
 3867TIP3   OH233015   5.770   4.756  12.449  0.3574  0.0346  0.2066
 3867TIP3    H133016   5.717   4.834  12.429  1.0159  0.3381 -0.4009
 3867TIP3    H233017   5.812   4.777  12.532  0.6353  0.3938 -0.0180
 3868TIP3   OH233018   0.595   5.860  14.225  0.3804  0.0200 -0.1709
 3868TIP3    H133019   0.542   5.898  14.296 -0.8827 -0.8186 -0.6327
 3868TIP3    H233020   0.543   5.786  14.195  1.0182  0.2187 -1.8146
 3869TIP3   OH233021   2.437   3.482  14.664  0.2789  0.1115  0.3087
 3869TIP3    H133022   2.499   3.450  14.598 -0.7948  1.4289 -1.4092
 3869TIP3    H233023   2.375   3.410  14.674  0.0071  0.1805 -0.7298
 3870TIP3   OH233024   2.583   0.967  16.562  0.0356 -0.3247  0.7305
 3870TIP3    H133025   2.584   1.062  16.547  1.5419 -0.2366  1.2549
 3870TIP3    H233026   2.610   0.957  16.654  0.4726 -1.2900  0.5076
 3871TIP3   OH233027   1.687   1.763   0.646  0.4745  0.7673  0.3534
 3871TIP3    H133028   1.627   1.794   0.578 -0.5039 -2.4319 -0.4184
 3871TIP3    H233029   1.736   1.692   0.604 -0.3887 -1.5785  3.0196
 3872TIP3   OH233030   1.744   1.710  12.121 -0.5064 -0.2533 -0.6954
 3872TIP3    H133031   1.669   1.650  12.127 -2.1369  1.7134 -0.1282
 3872TIP3    H233032   1.739   1.763  12.200  1.7672 -0.2939 -0.4546
 3873TIP3   OH233033   4.601   2.100   4.694  0.3474 -0.2555 -0.6235
 3873TIP3    H133034   4.677   2.079   4.748  0.0042 -2.3837 -0.8696
 3873TIP3    H233035   4.637   2.118   4.607  0.5922 -1.3849 -0.7710
 3874TIP3   OH233036   6.755   4.540   1.039  0.8978 -0.2600  0.1731
 3874TIP3    H133037   6.717   4.473   1.095 -0.0235  0.3555  0.3002
 3874TIP3    H233038   6.807   4.491   0.975  1.5019 -1.0055  1.1972
 3875TIP3   OH233039   6.193   2.203   3.738  0.1546  0.5849  0.6301
 3875TIP3    H133040   6.240   2.286   3.745  2.2262 -0.3283 -1.2841
 3875TIP3    H233041   6.125   2.219   3.673 -1.1873  1.4290  2.1572
 3876TIP3   OH233042   4.480   4.962  12.019  0.0159  0.3711 -0.2289
 3876TIP3    H133043   4.540   5.008  12.078  0.3361  0.3951 -0.5748
 3876TIP3    H233044   4.394   4.972  12.062  0.0988  1.1814 -0.2257
 3877TIP3   OH233045   0.226   3.835  16.222  0.4085 -0.6164 -0.5001
 3877TIP3    H133046   0.251   3.876  16.139  1.0191 -1.8325 -0.9465
 3877TIP3    H233047   0.186   3.905  16.273 -0.5026  0.0252 -2.0407
 3878TIP3   OH233048   3.901   1.045   4.388 -0.1924  0.2290 -0.9019
 3878TIP3    H133049   3.897   0.998   4.471 -2.9010 -2.2810 -2.2401
 3878TIP3    H233050   3.938   0.982   4.326  2.0516  2.1440 -1.6528
 3879TIP3   OH233051   1.134   0.479  13.405  0.1961  0.8582  0.3633
 3879TIP3    H133052   1.107   0.480  13.497 -1.9603  1.2770 -0.2083
 3879TIP3    H233053   1.094   0.558  13.369 -1.3009 -0.6461 -1.4937
 3880TIP3   OH233054   5.746   5.718   5.732 -0.7916  0.2846  0.0793
 3880TIP3    H133055   5.745   5.777   5.657  2.3712  1.0585  0.5062
 3880TIP3    H233056   5.690   5.761   5.797 -2.3003  0.3796 -1.2263
 3881TIP3   OH233057   2.967   6.224   1.694  0.0029 -0.0715  0.3297
 3881TIP3    H133058   2.954   6.167   1.770  0.4327 -0.4835  0.1000
 3881TIP3    H233059   2.940   6.170   1.619 -0.3402  0.3034  0.1766
 3882TIP3   OH233060   2.950   2.988   0.668  0.0729 -0.3178  0.2808
 3882TIP3    H133061   2.928   3.067   0.618 -1.8571 -1.1990 -0.3309
 3882TIP3    H233062   3.020   2.947   0.617 -1.1446 -0.6527 -1.1579
 3883TIP3   OH233063   4.158   0.235   3.241 -0.1123  0.1544  0.6255
 3883TIP3    H133064   4.206   0.243   3.159 -2.8967  0.6857 -1.0945
 3883TIP3    H233065   4.152   0.141   3.257 -2.1326 -0.1767 -1.5520
 3884TIP3   OH233066   2.577   4.666  14.120  0.2849 -0.5183 -0.7445
 3884TIP3    H133067   2.600   4.577  14.146  1.9744  0.3283  0.8748
 3884TIP3    H233068   2.546   4.707  14.201  1.3778  0.8958 -1.0018
 3885TIP3   OH233069   5.419   5.963  12.848  0.5022 -0.2046 -0.2321
 3885TIP3    H133070   5.497   5.915  12.874  2.3007  2.9202  0.6315
 3885TIP3    H233071   5.371   5.977  12.930 -0.3447 -1.0072 -0.5715
 3886TIP3   OH233072   0.078   5.610  15.206 -0.2995  0.7144  0.1628
 3886TIP3    H133073   0.165   5.576  15.224 -0.1750  0.9190 -0.0551
 3886TIP3    H233074   0.067   5.602  15.111 -0.9011 -0.2352  0.3013
 3887TIP3   OH233075   2.650   6.469  10.877 -0.9581  0.1251  0.2339
 3887TIP3    H133076   2.678   6.456  10.968 -0.3720 -0.0356  0.0285
 3887TIP3    H233077   2.609   6.556  10.877 -0.4079  0.3861  0.5164
 3888TIP3   OH233078   3.244   2.406   3.716 -0.0706  0.2527  0.5045
 3888TIP3    H133079   3.211   2.389   3.628  0.0756  0.4048  0.4206
 3888TIP3    H233080   3.203   2.489   3.741 -0.1422  0.1905  0.5956
 3889TIP3   OH233081   4.520   2.743   0.914  0.2124 -0.0759 -0.0596
 3889TIP3    H133082   4.481   2.696   0.840 -1.6785  0.5859  0.4754
 3889TIP3    H233083   4.558   2.822   0.876 -2.7772  1.4413 -0.1152
 3890TIP3   OH233084   4.991   0.614   5.231  0.5002 -0.5828  0.4477
 3890TIP3    H133085   4.972   0.522   5.250  1.5205 -1.4343 -2.1713
 3890TIP3    H233086   5.084   0.615   5.208  0.1751  0.8192 -1.0316
 3891TIP3   OH233087   4.480   6.424   4.764  0.1664 -0.5466 -0.2037
 3891TIP3    H133088   4.532   6.371   4.824 -0.2683 -0.0089  0.6735
 3891TIP3    H233089   4.391   6.420   4.801  0.2806  1.5167  0.4339
 3892TIP3   OH233090   4.180   0.172  11.998 -0.7756  0.0348 -0.3269
 3892TIP3    H133091   4.219   0.111  12.061  0.2375  1.2932  0.3115
 3892TIP3    H233092   4.139   0.239  12.053 -0.9126  0.5177 -1.0189
 3893TIP3   OH233093   1.304   3.100  16.195  0.1490 -0.3817  0.2628
 3893TIP3    H133094   1.309   3.181  16.246 -0.3851  0.0965 -0.4371
 3893TIP3    H233095   1.377   3.107  16.133 -0.7508  0.2385 -0.7534
 3894TIP3   OH233096   4.708   3.059  12.704  0.3219  0.0739 -0.2847
 3894TIP3    H133097   4.642   3.031  12.640  1.3336 -1.2307 -0.8005
 3894TIP3    H233098   4.669   3.134  12.747 -0.4763  0.9016 -2.3313
 3895TIP3   OH233099   1.766   1.795  17.167  0.9215 -0.7010  0.7128
 3895TIP3    H133100   1.734   1.848  17.094  0.2279 -2.3565 -0.2692
 3895TIP3    H233101   1.753   1.849  17.245 -0.3890  0.2856 -0.1581
 3896TIP3   OH233102   2.220   0.998  17.097 -0.3578 -0.6198  0.2142
 3896TIP3    H133103   2.163   1.075  17.097  0.3804 -0.0713 -0.3502
 3896TIP3    H233104   2.174   0.934  17.042  0.6777  0.6686 -2.2827
 3897TIP3   OH233105   3.606   2.309  15.994 -0.4628 -0.0866  0.5131
 3897TIP3    H133106   3.692   2.309  16.037 -0.3408 -2.7681  0.4860
 3897TIP3    H233107   3.624   2.340  15.905  0.3642  0.0450  0.7145
 3898TIP3   OH233108   1.306   3.386  10.993  0.2322  0.5781  0.4220
 3898TIP3    H133109   1.382   3.415  10.941  0.4525 -0.6524  0.0207
 3898TIP3    H233110   1.341   3.317  11.049  0.0794  2.1360  2.5476
 3899TIP3   OH233111   2.961   2.228   1.545  0.0019 -0.4359 -0.1423
 3899TIP3    H133112   2.868   2.239   1.523 -0.4276 -2.1922  0.6206
 3899TIP3    H233113   2.992   2.161   1.484  1.6601  2.2563 -2.5136
 3900TIP3   OH233114   0.688   1.049  14.166 -0.4745 -0.4775 -0.2108
 3900TIP3    H133115   0.669   1.128  14.217  0.1432 -0.5875  0.2041
 3900TIP3    H233116   0.602   1.017  14.140 -0.7145  0.5671 -0.7558
 3901TIP3   OH233117   0.716   2.208   2.158 -0.3783 -0.8142  0.1638
 3901TIP3    H133118   0.706   2.300   2.181  1.7452 -0.3599 -0.4589
 3901TIP3    H233119   0.726   2.163   2.242  1.7135  0.0307  0.4436
 3902TIP3   OH233120   4.758   4.930   0.868  0.5514 -0.7233  0.0157
 3902TIP3    H133121   4.808   5.011   0.878 -1.2014  0.3451  0.7442
 3902TIP3    H233122   4.820   4.860   0.886  1.5716  0.5583  1.7259
 3903TIP3   OH233123   5.454   3.049   0.311  0.2337 -0.0475  0.2914
 3903TIP3    H133124   5.430   2.958   0.293  0.6506 -0.1922  0.4709
 3903TIP3    H233125   5.393   3.100   0.258  1.5420 -0.4483 -1.7228
 3904TIP3   OH233126   1.786   2.496  10.356  0.3206  0.6817 -0.0375
 3904TIP3    H133127   1.783   2.551  10.434  1.9106 -0.6015  0.9739
 3904TIP3    H233128   1.729   2.422  10.377  2.1006 -0.5563  0.6875
 3905TIP3   OH233129   3.804   5.716   4.572  0.5336 -0.2738 -0.1259
 3905TIP3    H133130   3.806   5.724   4.667  1.5624 -1.1122 -0.0682
 3905TIP3    H233131   3.774   5.627   4.556  0.5554 -0.1990 -0.5883
 3906TIP3   OH233132   6.413   0.777  14.738 -0.1554 -0.2774 -0.0176
 3906TIP3    H133133   6.439   0.738  14.822 -1.4231  1.1937  1.1300
 3906TIP3    H233134   6.318   0.782  14.743 -0.3572 -1.1892 -2.0705
 3907TIP3   OH233135   2.688   1.601  13.763 -0.0325  0.0663  0.6748
 3907TIP3    H133136   2.715   1.519  13.802 -0.2208  0.1308  0.9437
 3907TIP3    H233137   2.715   1.595  13.671  0.6911  0.0446  0.8875
 3908TIP3   OH233138   4.033   0.755  12.693 -0.1034  0.0673  0.3101
 3908TIP3    H133139   3.969   0.690  12.663 -1.3101  1.2031  0.3413
 3908TIP3    H233140   4.002   0.781  12.779 -0.2610  1.4626 -0.1451
 3909TIP3   OH233141   2.406   2.468   5.573 -0.6946 -0.2468  0.0568
 3909TIP3    H133142   2.462   2.424   5.508  0.7999  1.0213  0.4364
 3909TIP3    H233143   2.418   2.416   5.653 -1.1038 -0.7366 -0.1908
 3910TIP3   OH233144   1.922   2.334   3.922 -1.0483  0.5971  0.0482
 3910TIP3    H133145   1.828   2.316   3.910 -0.9669 -1.2430  1.6513
 3910TIP3    H233146   1.942   2.298   4.009  1.1129  1.1157 -0.1896
 3911TIP3   OH233147   4.675   6.391   5.451 -0.5253 -0.1649  0.0096
 3911TIP3    H133148   4.741   6.334   5.489  0.1520  0.4962 -0.1480
 3911TIP3    H233149   4.596   6.337   5.446 -0.1209 -0.8274  0.6123
 3912TIP3   OH233150   1.895   6.705   2.113 -0.1472  0.0358  0.3511
 3912TIP3    H133151   1.822   6.759   2.144  0.4063  1.0678 -0.1073
 3912TIP3    H233152   1.857   6.617   2.104 -1.2415  0.4788  0.4418
 3913TIP3   OH233153   4.646   4.708   1.500  0.1476  0.1342  0.5235
 3913TIP3    H133154   4.600   4.785   1.465 -0.6210 -0.1358  0.9233
 3913TIP3    H233155   4.685   4.667   1.423  1.0428  1.2235  0.3676
 3914TIP3   OH233156   0.309   5.953   3.600  0.3174 -0.7492 -0.8925
 3914TIP3    H133157   0.239   6.016   3.619  0.9541 -0.1502 -0.4888
 3914TIP3    H233158   0.350   5.936   3.685  1.6227  0.0684 -1.3242
 3915TIP3   OH233159   3.879   2.124  12.148 -0.4240  1.0697 -0.2428
 3915TIP3    H133160   3.957   2.180  12.157 -0.1400  0.6407  0.0293
 3915TIP3    H233161   3.837   2.129  12.234  0.9630 -1.1010  0.6360
 3916TIP3   OH233162   5.306   6.586   6.058  0.0418  0.1926 -0.2822
 3916TIP3    H133163   5.336   6.525   6.125 -0.2350 -1.3370 -1.4952
 3916TIP3    H233164   5.383   6.600   6.003  0.2654  1.4337  0.3121
 3917TIP3   OH233165   4.211   4.996   6.648  0.4939  0.0697 -0.3818
 3917TIP3    H133166   4.135   4.988   6.591  0.7269 -1.9360 -0.4992
 3917TIP3    H233167   4.261   4.916   6.632  0.4955 -0.6716  2.7222
 3918TIP3   OH233168   5.861   3.560   6.302 -0.4633  0.1926 -0.7573
 3918TIP3    H133169   5.911   3.634   6.336 -1.7506 -0.3173  2.7227
 3918TIP3    H233170   5.927   3.498   6.271  0.8019  1.3117 -0.3997
 3919TIP3   OH233171   4.852   6.640   2.539 -0.2212  0.0455  0.0450
 3919TIP3    H133172   4.851   6.699   2.614  0.9334  0.0235  0.0981
 3919TIP3    H233173   4.841   6.697   2.463 -1.1076  0.0989  0.2058
 3920TIP3   OH233174   0.594   0.628   4.238  0.1661 -0.0735  0.4251
 3920TIP3    H133175   0.622   0.716   4.213 -0.6184  0.2157  0.5479
 3920TIP3    H233176   0.624   0.618   4.328  1.5765 -0.5135 -0.0561
 3921TIP3   OH233177   2.906   4.721   0.553 -0.1992 -0.1701 -0.3988
 3921TIP3    H133178   2.992   4.685   0.531  1.0418  1.8177  0.8454
 3921TIP3    H233179   2.913   4.747   0.645 -2.5692 -1.0256  0.1090
 3922TIP3   OH233180   1.856   0.536  16.505 -0.2130 -0.9177 -0.3652
 3922TIP3    H133181   1.945   0.565  16.528 -0.1719 -1.0249 -0.3884
 3922TIP3    H233182   1.802   0.614  16.517 -0.4108 -1.2876  1.3070
 3923TIP3   OH233183   1.215   6.318  16.365  0.1157 -0.8845 -0.1939
 3923TIP3    H133184   1.124   6.289  16.379 -0.2781  0.2701 -0.3071
 3923TIP3    H233185   1.233   6.295  16.274 -1.1540  1.6404 -1.1713
 3924TIP3   OH233186   2.674   3.551  14.435 -0.2530  0.0542 -0.0132
 3924TIP3    H133187   2.619   3.484  14.395  1.3805 -1.5788  0.3258
 3924TIP3    H233188   2.732   3.579  14.365 -0.0137  0.1045  0.2047
 3925TIP3   OH233189   1.055   6.173  15.855 -0.0202 -0.2488  0.0791
 3925TIP3    H133190   1.080   6.142  15.768  0.7482 -1.3157  0.6638
 3925TIP3    H233191   0.962   6.196  15.847 -0.2771 -1.5064 -0.7040
 3926TIP3   OH233192   0.990   6.131  16.696 -0.3375  0.1609 -0.4407
 3926TIP3    H133193   0.969   6.224  16.684 -0.7363  0.2921  1.1235
 3926TIP3    H233194   1.016   6.124  16.787  1.8355 -0.8862 -1.0662
 3927TIP3   OH233195   6.204   6.210   3.933  0.0478 -0.0147  0.1981
 3927TIP3    H133196   6.212   6.289   3.986  0.6220  0.0908 -0.0389
 3927TIP3    H233197   6.266   6.222   3.861 -0.7367 -0.1350 -0.5277
 3928TIP3   OH233198   3.188   1.651   0.357  0.5147  0.1536 -0.1369
 3928TIP3    H133199   3.267   1.704   0.355  0.3330  0.4773  0.6866
 3928TIP3    H233200   3.119   1.708   0.323  0.7217 -0.3210 -1.4211
 3929TIP3   OH233201   1.413   6.740  13.628 -0.5258 -0.4477  0.3148
 3929TIP3    H133202   1.454   6.821  13.657  1.8491 -2.0765  1.9237
 3929TIP3    H233203   1.351   6.767  13.560 -0.4153  2.7443  1.3123
 3930TIP3   OH233204   2.319   4.565  11.317 -0.8051  0.7685 -0.2268
 3930TIP3    H133205   2.293   4.512  11.242  0.5299 -1.0758  0.5385
 3930TIP3    H233206   2.274   4.525  11.392  0.6071  0.3112  0.4360
 3931TIP3   OH233207   2.015   6.705   1.475  0.4893 -0.2657 -0.6199
 3931TIP3    H133208   1.942   6.760   1.447  0.5282  0.0737 -0.0586
 3931TIP3    H233209   2.088   6.730   1.418 -0.1237 -1.4330 -1.9969
 3932TIP3   OH233210   3.537   1.201  11.255  0.3115  0.0357  0.4202
 3932TIP3    H133211   3.545   1.294  11.276  0.9457  0.0133  0.3093
 3932TIP3    H233212   3.576   1.193  11.168 -1.7463  0.0295 -0.5574
 3933TIP3   OH233213   0.444   3.909  12.716 -0.0194 -0.7058 -0.4617
 3933TIP3    H133214   0.367   3.963  12.731  0.7324  0.4184 -0.5259
 3933TIP3    H233215   0.430   3.831  12.770 -0.3873  0.2836  0.9173
 3934TIP3   OH233216   5.771   6.106   5.134 -0.3773  0.2204 -0.0629
 3934TIP3    H133217   5.737   6.154   5.058  0.2535 -0.3680 -0.7218
 3934TIP3    H233218   5.862   6.135   5.142 -0.5699  0.6489  0.7844
 3935TIP3   OH233219   3.089   3.878  11.861  0.5909 -0.3232 -0.5546
 3935TIP3    H133220   3.096   3.956  11.917  0.9986  0.0399 -1.0999
 3935TIP3    H233221   3.174   3.873  11.816 -0.0867 -0.0068 -1.9223
 3936TIP3   OH233222   5.385   5.997   4.174 -0.0156 -0.1572 -0.1420
 3936TIP3    H133223   5.458   6.053   4.147  1.6394 -1.7777  0.7381
 3936TIP3    H233224   5.378   5.932   4.104 -0.1328 -0.4430  0.1363
 3937TIP3   OH233225   6.194   1.170  15.276  0.0336 -0.0927  0.0742
 3937TIP3    H133226   6.180   1.079  15.251 -0.3860  0.0079 -0.0457
 3937TIP3    H233227   6.169   1.222  15.200  1.6774  0.0670 -0.4106
 3938TIP3   OH233228   3.782   3.682   2.267  0.0211 -0.4407  0.9864
 3938TIP3    H133229   3.803   3.764   2.311 -2.0223 -0.1823  1.5784
 3938TIP3    H233230   3.686   3.676   2.271 -0.2199 -0.9110 -2.5610
 3939TIP3   OH233231   0.189   5.104  14.197  0.0745 -0.1703  0.6502
 3939TIP3    H133232   0.244   5.127  14.123  0.2513  0.8639  1.0904
 3939TIP3    H233233   0.250   5.089  14.269  0.0946 -3.3844  0.1111
 3940TIP3   OH233234   2.621   3.301  13.152 -0.5461  0.5143  0.3263
 3940TIP3    H133235   2.670   3.320  13.072  0.4433 -1.2367  0.4553
 3940TIP3    H233236   2.612   3.385  13.196 -2.0191  1.6998 -2.0962
 3941TIP3   OH233237   2.364   1.693  12.118 -0.4245  0.3824  0.2940
 3941TIP3    H133238   2.282   1.645  12.131 -0.2813 -0.4871 -1.6417
 3941TIP3    H233239   2.406   1.650  12.043  2.0733  0.4658  1.5205
 3942TIP3   OH233240   5.912   4.781  14.520 -0.2447  0.8557  0.3343
 3942TIP3    H133241   5.943   4.691  14.527 -0.9196  0.2864 -2.7426
 3942TIP3    H233242   5.967   4.821  14.453 -2.0586  1.6792 -0.7575
 3943TIP3   OH233243   4.568   1.501  13.922 -0.1322 -0.5537  0.3856
 3943TIP3    H133244   4.642   1.561  13.911 -0.4211 -0.5723 -2.8455
 3943TIP3    H233245   4.582   1.434  13.855 -1.8994 -1.8719  1.2396
 3944TIP3   OH233246   3.065   6.757   4.697  0.2287 -0.2120 -0.1053
 3944TIP3    H133247   3.007   6.827   4.666 -0.1030 -1.1962 -1.8597
 3944TIP3    H233248   3.070   6.770   4.791 -1.2917  1.0739 -0.1532
 3945TIP3   OH233249   4.568   4.841   3.931  0.4824 -0.0292 -0.1554
 3945TIP3    H133250   4.600   4.874   3.847 -2.6630  2.3157 -0.5830
 3945TIP3    H233251   4.520   4.762   3.909  2.6144 -1.4772  0.0326
 3946TIP3   OH233252   5.787   6.215  12.318 -0.5964 -0.0526 -0.3651
 3946TIP3    H133253   5.764   6.307  12.308 -1.3190 -0.3634 -1.8473
 3946TIP3    H233254   5.882   6.214  12.325 -0.4385  0.7038 -2.0097
 3947TIP3   OH233255   3.814   0.091  11.476  0.3757  0.3374  0.8702
 3947TIP3    H133256   3.776   0.118  11.392  1.1659  0.2091  0.4529
 3947TIP3    H233257   3.786   0.158  11.538 -1.8514 -0.5990  0.9533
 3948TIP3   OH233258   2.322   5.977   4.208 -0.3824 -0.0419  0.5523
 3948TIP3    H133259   2.247   5.980   4.148 -0.4021 -0.3237  0.5613
 3948TIP3    H233260   2.373   6.054   4.185 -0.4452 -0.0881  0.2433
 3949TIP3   OH233261   6.448   4.524   2.307  0.3689  0.7804  0.0495
 3949TIP3    H133262   6.463   4.607   2.260  0.4066  2.4888  2.8550
 3949TIP3    H233263   6.353   4.512   2.305  0.2195  1.7194  0.8795
 3950TIP3   OH233264   4.721   2.778  17.025 -0.4774 -0.2586  0.3044
 3950TIP3    H133265   4.809   2.805  17.001 -1.6121  1.0222 -2.8912
 3950TIP3    H233266   4.729   2.684  17.043  1.5783 -0.0690  0.6712
 3951TIP3   OH233267   5.388   4.933  13.056  0.1657 -0.2745  0.5923
 3951TIP3    H133268   5.339   4.857  13.023  0.2318 -0.6513  1.3326
 3951TIP3    H233269   5.458   4.895  13.109  1.3577  0.2605 -0.5555
 3952TIP3   OH233270   3.467   5.761  14.602  0.0737 -0.8257  0.8686
 3952TIP3    H133271   3.479   5.672  14.569 -0.2589 -0.5804  0.0530
 3952TIP3    H233272   3.413   5.803  14.536 -1.1024 -0.4684  2.0155
 3953TIP3   OH233273   3.505   5.906   3.891 -0.0568 -0.8938 -0.2551
 3953TIP3    H133274   3.419   5.948   3.882  0.9033  1.2592  0.0011
 3953TIP3    H233275   3.498   5.852   3.969 -0.9534 -0.1398  0.1955
 3954TIP3   OH233276   4.945   5.580  16.509  0.1348 -0.0902 -0.8237
 3954TIP3    H133277   4.881   5.596  16.578 -1.0985  1.5761 -2.2513
 3954TIP3    H233278   4.968   5.488  16.517 -0.6731 -0.1549  1.2006
 3955TIP3   OH233279   1.292   4.279  14.506  0.2415  0.3489  0.5864
 3955TIP3    H133280   1.252   4.195  14.485  1.7188 -0.8309  2.1974
 3955TIP3    H233281   1.361   4.289  14.440 -0.8615  1.0334 -0.4913
 3956TIP3   OH233282   0.334   0.012  13.479 -0.6395  0.1449 -0.0535
 3956TIP3    H133283   0.403   0.073  13.507 -0.3678 -0.7117  1.2477
 3956TIP3    H233284   0.323   0.030  13.386  0.9143  0.7368 -0.1641
 3957TIP3   OH233285   1.801   5.614   4.315 -0.2342  0.1556  0.3452
 3957TIP3    H133286   1.889   5.643   4.292 -0.2026  0.1513  0.4610
 3957TIP3    H233287   1.743   5.679   4.276 -0.1390  0.7416  1.1571
 3958TIP3   OH233288   5.181   6.318  16.402 -0.0490 -0.0077  0.0970
 3958TIP3    H133289   5.137   6.391  16.358  0.0457  0.0801  0.1486
 3958TIP3    H233290   5.272   6.345  16.408  0.2674 -0.7365 -1.1520
 3959TIP3   OH233291   0.232   5.494   1.298  0.6662 -0.0956  0.4022
 3959TIP3    H133292   0.217   5.413   1.346 -1.6433  0.3862  0.5831
 3959TIP3    H233293   0.311   5.531   1.338  1.0052 -1.5914  1.1859
 3960TIP3   OH233294   2.666   1.413  17.142  0.0737  0.3509  0.5858
 3960TIP3    H133295   2.587   1.373  17.107  2.0196 -2.0610 -1.5123
 3960TIP3    H233296   2.686   1.483  17.080  0.4079 -0.0966  0.1794
 3961TIP3   OH233297   0.371   4.117   5.660 -0.5603 -0.0690  0.0508
 3961TIP3    H133298   0.409   4.204   5.660  0.0783 -0.3400 -0.5985
 3961TIP3    H233299   0.324   4.111   5.743  0.3262  0.4899  0.6082
 3962TIP3   OH233300   1.648   2.234   1.548 -0.1442  0.0369  0.1534
 3962TIP3    H133301   1.682   2.323   1.552  0.8843 -0.3901  1.6363
 3962TIP3    H233302   1.591   2.227   1.625  0.4652 -0.8452  0.5339
 3963TIP3   OH233303   6.135   4.796  15.575  0.7250 -0.0855  0.0815
 3963TIP3    H133304   6.142   4.832  15.486  1.4222  0.2496  0.2625
 3963TIP3    H233305   6.124   4.873  15.631 -0.2014 -0.3249  0.2491
 3964TIP3   OH233306   3.197   6.644   1.537  0.1298  0.5033 -0.1650
 3964TIP3    H133307   3.273   6.590   1.557  1.5881  2.5808  0.2280
 3964TIP3    H233308   3.127   6.610   1.593  1.2964 -0.2849  0.8498
 3965TIP3   OH233309   6.173   6.726   1.481  0.4116  1.0332 -0.0869
 3965TIP3    H133310   6.166   6.631   1.476  2.6764  0.9025 -2.2094
 3965TIP3    H233311   6.129   6.757   1.402  1.5113  1.5973 -0.4896
 3966TIP3   OH233312   4.307   5.611  12.022  0.4020 -0.1146 -0.1086
 3966TIP3    H133313   4.214   5.623  12.041 -0.3845 -2.0374 -2.3102
 3966TIP3    H233314   4.320   5.653  11.937  1.0340 -1.5651 -0.7661
 3967TIP3   OH233315   1.647   6.131  12.337  0.2286  0.0083  0.2615
 3967TIP3    H133316   1.563   6.172  12.356  0.8575  1.0081  0.9621
 3967TIP3    H233317   1.712   6.197  12.361  1.2142 -0.6906 -0.4093
 3968TIP3   OH233318   1.541   5.058   1.366  0.4077 -0.1882 -0.0136
 3968TIP3    H133319   1.452   5.022   1.367 -0.0050  0.8027  0.2707
 3968TIP3    H233320   1.578   5.035   1.451 -0.2577  0.9999  0.6208
 3969TIP3   OH233321   6.670   1.116  15.567 -0.1217 -0.1935 -0.3986
 3969TIP3    H133322   6.634   1.204  15.551 -0.5485 -0.4849 -1.1215
 3969TIP3    H233323   6.765   1.130  15.571 -0.2620  0.5414  1.2416
 3970TIP3   OH233324   1.657   3.514   0.996  0.0615 -0.4373  0.0430
 3970TIP3    H133325   1.690   3.572   0.928 -0.1172 -0.5022 -0.1005
 3970TIP3    H233326   1.623   3.573   1.063 -1.0603 -0.3623 -0.5585
 3971TIP3   OH233327   6.604   2.116  16.029 -0.2375 -0.1326  0.1553
 3971TIP3    H133328   6.523   2.067  16.018  0.6267 -1.6798  0.3510
 3971TIP3    H233329   6.670   2.049  16.047  0.7663  1.2149  1.7551
 3972TIP3   OH233330   0.801   1.290  11.590 -0.0588  0.4537 -0.1224
 3972TIP3    H133331   0.777   1.360  11.650  1.1764  1.4790 -0.7701
 3972TIP3    H233332   0.723   1.236  11.583 -0.5812  0.9426  1.5210
 3973TIP3   OH233333   0.748   0.756   1.416 -0.1802 -0.2825  0.1994
 3973TIP3    H133334   0.767   0.663   1.406  0.4534  0.0637 -2.2753
 3973TIP3    H233335   0.653   0.762   1.413 -0.2112 -0.8070  0.1246
 3974TIP3   OH233336   2.781   5.410   4.274 -0.1681  0.1022  0.2047
 3974TIP3    H133337   2.802   5.349   4.203  0.7150  1.4943 -0.7935
 3974TIP3    H233338   2.789   5.496   4.234  0.0961  0.9266  1.9398
 3975TIP3   OH233339   0.238   2.766   2.674 -0.0262 -0.3930 -0.1671
 3975TIP3    H133340   0.241   2.820   2.753  2.5178 -1.4975  0.5887
 3975TIP3    H233341   0.190   2.688   2.699 -2.1130  0.6266 -0.7429
 3976TIP3   OH233342   6.653   0.490   3.291  0.1984  0.7237  0.1223
 3976TIP3    H133343   6.631   0.513   3.381  2.7259  1.2363  0.6913
 3976TIP3    H233344   6.671   0.573   3.248  1.7323  0.3501 -0.0281
 3977TIP3   OH233345   4.163   2.580  15.764 -0.2996  1.0716 -0.4561
 3977TIP3    H133346   4.203   2.650  15.713 -0.9056  1.7542 -0.0144
 3977TIP3    H233347   4.097   2.543  15.706 -0.7804  1.6469 -0.2861
 3978TIP3   OH233348   0.449   0.894  13.917 -0.3214 -0.6458 -0.9426
 3978TIP3    H133349   0.472   0.888  14.010 -0.5361 -1.5958 -0.9414
 3978TIP3    H233350   0.414   0.983  13.907  0.2533 -0.3264 -0.2497
 3979TIP3   OH233351   2.129   3.902   6.449 -0.0932 -0.1180  0.1587
 3979TIP3    H133352   2.204   3.944   6.409 -0.0817  0.6204  0.9364
 3979TIP3    H233353   2.086   3.856   6.376  1.4770 -1.1494 -0.1736
 3980TIP3   OH233354   2.848   3.835  17.250  0.1959  0.1894  0.3887
 3980TIP3    H133355   2.849   3.888  17.171 -0.7277 -0.3029  0.0215
 3980TIP3    H233356   2.826   3.747  17.219 -1.2803  0.1987  1.2814
 3981TIP3   OH233357   5.224   3.246  15.449  0.6994 -0.3557  0.3702
 3981TIP3    H133358   5.307   3.232  15.402  0.4936  1.1561 -0.5310
 3981TIP3    H233359   5.250   3.261  15.540  1.7589  2.6866 -0.3072
 3982TIP3   OH233360   5.315   0.969  13.160 -0.2334 -0.4864 -0.4158
 3982TIP3    H133361   5.405   0.951  13.190 -0.2225 -1.5045 -1.0246
 3982TIP3    H233362   5.269   0.885  13.170 -0.9579 -0.1257 -0.6768
 3983TIP3   OH233363   5.016   6.491  12.590 -0.1295 -0.1428  0.4975
 3983TIP3    H133364   4.956   6.448  12.530 -0.2309 -2.1104  1.8956
 3983TIP3    H233365   5.058   6.560  12.538 -1.8893 -0.2276 -1.1295
 3984TIP3   OH233366   1.022   5.970   3.831  0.2875  0.5224  0.5563
 3984TIP3    H133367   1.031   6.065   3.826  1.1863  0.5914  2.4970
 3984TIP3    H233368   1.061   5.938   3.750 -2.5178  1.8360 -1.5119
 3985TIP3   OH233369   0.465   4.094   3.324 -0.0293  0.4785  0.6107
 3985TIP3    H133370   0.476   4.183   3.292  0.2053  0.8439  1.6680
 3985TIP3    H233371   0.408   4.103   3.400  1.6524  0.0158  2.0007
 3986TIP3   OH233372   0.080   1.247   1.129  0.3078  0.0250 -0.2651
 3986TIP3    H133373   0.071   1.280   1.219 -0.3648 -0.4940 -0.1330
 3986TIP3    H233374   0.059   1.154   1.136 -2.8678  0.5291 -1.4471
 3987TIP3   OH233375   0.744   2.145   2.403  0.2201  0.0711  0.3356
 3987TIP3    H133376   0.716   2.066   2.450  0.5136 -0.1321  0.1791
 3987TIP3    H233377   0.803   2.189   2.465 -0.0264  0.2237  0.4632
 3988TIP3   OH233378   0.438   1.128   5.595 -0.2198  0.0818  0.0941
 3988TIP3    H133379   0.402   1.061   5.652 -0.8486 -1.3059 -1.8235
 3988TIP3    H233380   0.379   1.203   5.604  0.7733  0.6650  2.6346
 3989TIP3   OH233381   2.542   0.537  11.519 -0.0394 -0.1414  0.6675
 3989TIP3    H133382   2.469   0.598  11.509  0.0643  0.2028  1.8380
 3989TIP3    H233383   2.506   0.464  11.570  0.4742  0.1478  1.4777
 3990TIP3   OH233384   2.912   1.467   2.437  0.0482 -0.3211  0.6615
 3990TIP3    H133385   2.951   1.535   2.492 -0.9219 -0.9113  2.1316
 3990TIP3    H233386   2.819   1.486   2.438 -0.3925 -2.2513  2.0019
 3991TIP3   OH233387   1.058   1.440  16.790 -0.2766 -0.1057  0.5235
 3991TIP3    H133388   1.143   1.473  16.762 -0.3448  1.0575  1.5966
 3991TIP3    H233389   1.002   1.517  16.796 -0.8844 -0.5949  1.5983
 3992TIP3   OH233390   1.964   5.047   4.520 -0.0043  0.0033 -0.0549
 3992TIP3    H133391   1.981   4.959   4.554 -0.2807  0.0523  0.2084
 3992TIP3    H233392   1.901   5.033   4.449 -1.2486  0.1515  1.0052
 3993TIP3   OH233393   6.693   4.030   4.341 -0.5224 -0.2696  0.2427
 3993TIP3    H133394   6.676   4.124   4.346  1.7326  0.3019 -1.5284
 3993TIP3    H233395   6.769   4.016   4.398  0.9128 -0.4618 -1.6397
 3994TIP3   OH233396   3.424   3.076  16.845  0.2446 -0.1727  0.6805
 3994TIP3    H133397   3.480   3.041  16.914 -1.8648  0.0165  2.6020
 3994TIP3    H233398   3.358   3.008  16.831 -0.2583  0.4471 -0.0307
 3995TIP3   OH233399   3.802   2.012  14.263 -0.0353 -0.2570  0.0140
 3995TIP3    H133400   3.835   1.922  14.266  1.0408  0.0965 -0.5922
 3995TIP3    H233401   3.728   2.008  14.203 -0.0214 -0.7504  0.0282
 3996TIP3   OH233402   1.050   0.260   6.069  0.4392 -0.2623 -0.4652
 3996TIP3    H133403   1.004   0.189   6.112  1.3112 -0.1920  0.6242
 3996TIP3    H233404   1.066   0.324   6.138 -1.5838  1.7139 -1.6612
 3997TIP3   OH233405   5.338   5.624  13.483  0.2558  0.6389  0.5689
 3997TIP3    H133406   5.305   5.542  13.519  1.5131 -0.3817 -0.5001
 3997TIP3    H233407   5.387   5.598  13.405  0.5310  2.4310  0.1059
 3998TIP3   OH233408   1.707   3.033   2.169 -0.4380  0.5533 -0.1057
 3998TIP3    H133409   1.771   3.082   2.118 -0.8115 -0.0998 -1.2393
 3998TIP3    H233410   1.753   2.953   2.196 -0.3067  0.7975  0.3962
 3999TIP3   OH233411   3.450   0.488   1.143  0.8828 -0.6398 -0.7908
 3999TIP3    H133412   3.506   0.486   1.065  1.2204 -0.1146 -0.5641
 3999TIP3    H233413   3.507   0.519   1.213 -0.1348  1.7882 -0.9370
 4000TIP3   OH233414   0.178   6.331   0.133 -0.4563  0.1970 -0.6857
 4000TIP3    H133415   0.251   6.269   0.132 -0.8770 -0.4854  2.3924
 4000TIP3    H233416   0.220   6.417   0.129  0.6107 -0.1778  1.2572
 4001TIP3   OH233417   3.774   4.293   4.254 -0.3485  0.3590  0.2437
 4001TIP3    H133418   3.755   4.215   4.306 -1.1173  0.6556  0.4182
 4001TIP3    H233419   3.819   4.260   4.176 -0.3579 -0.2179  0.4795
 4002TIP3   OH233420   2.973   0.529   3.351  0.2811  0.0669 -0.0242
 4002TIP3    H133421   2.884   0.555   3.375 -0.1273  0.6141 -1.9424
 4002TIP3    H233422   2.963   0.442   3.313  0.9180 -0.8164  1.7536
 4003TIP3   OH233423   0.244   6.108  12.680 -0.6014 -0.0389  0.7349
 4003TIP3    H133424   0.216   6.182  12.626 -0.9941  0.9771  2.2587
 4003TIP3    H233425   0.210   6.031  12.634 -0.3723  0.7264 -0.7725
 4004TIP3   OH233426   5.655   2.467   2.450 -0.1204 -0.3259 -0.5911
 4004TIP3    H133427   5.615   2.507   2.373 -0.9040 -0.2350 -0.1452
 4004TIP3    H233428   5.711   2.536   2.487  1.0083 -0.6761 -1.6062
 4005TIP3   OH233429   2.867   4.635  16.614 -0.1063  0.1035 -0.5871
 4005TIP3    H133430   2.843   4.679  16.533  2.3845  0.2332 -1.3286
 4005TIP3    H233431   2.892   4.546  16.587  1.2240  0.2980 -0.0771
 4006TIP3   OH233432   3.505   2.246  12.579 -0.0549  0.0869  0.7415
 4006TIP3    H133433   3.488   2.331  12.537 -1.3310  1.2002  3.3220
 4006TIP3    H233434   3.437   2.188  12.545  0.1470  0.3745 -0.1895
 4007TIP3   OH233435   1.099   5.115  12.832  0.2877  0.0700 -0.3330
 4007TIP3    H133436   1.073   5.038  12.782 -0.7877  0.5057 -0.4552
 4007TIP3    H233437   1.156   5.080  12.901 -0.3456 -0.8607 -0.2679
 4008TIP3   OH233438   5.315   4.701   5.551 -0.0364 -0.0565 -0.5409
 4008TIP3    H133439   5.238   4.680   5.497  1.6918 -1.8965 -2.4642
 4008TIP3    H233440   5.343   4.787   5.519 -1.1927  0.6035  0.1344
 4009TIP3   OH233441   1.855   6.622  10.884 -0.4018  0.2087  0.2032
 4009TIP3    H133442   1.898   6.536  10.887 -2.0055 -0.7454 -1.4352
 4009TIP3    H233443   1.921   6.683  10.917  0.8319 -1.6218  1.3410
 4010TIP3   OH233444   1.837   4.563   5.396  0.1107 -0.3199  0.3733
 4010TIP3    H133445   1.778   4.585   5.323  0.0504  1.5090  0.9341
 4010TIP3    H233446   1.847   4.468   5.390 -1.3811 -0.4447 -0.8863
 4011TIP3   OH233447   1.808   1.535   0.567 -0.2457 -0.0990 -0.5093
 4011TIP3    H133448   1.901   1.540   0.586 -0.2683 -3.0403  0.9119
 4011TIP3    H233449   1.798   1.455   0.515 -2.0038 -0.1833 -0.1185
 4012TIP3   OH233450   4.042   6.380   3.285  0.2759 -0.0620 -0.1023
 4012TIP3    H133451   3.993   6.338   3.215  0.8569 -0.6930 -0.1424
 4012TIP3    H233452   4.036   6.474   3.266  1.9468 -0.2791 -2.0495
 4013TIP3   OH233453   5.998   5.369  14.761  0.6090  0.3813  0.1688
 4013TIP3    H133454   6.003   5.388  14.854 -1.1754 -0.4637  0.4714
 4013TIP3    H233455   5.988   5.274  14.756  0.9057  0.3903 -0.9050
 4014TIP3   OH233456   4.947   1.154   2.062 -0.3480 -0.1888  0.0959
 4014TIP3    H133457   4.952   1.106   2.145  0.8513  0.4766  0.4360
 4014TIP3    H233458   5.022   1.122   2.011 -1.0902 -0.6083 -0.7470
 4015TIP3   OH233459   4.601   4.449   5.883  0.2038  0.3689  0.1722
 4015TIP3    H133460   4.639   4.432   5.797 -0.3215  0.6448 -0.1272
 4015TIP3    H233461   4.663   4.412   5.945  1.4837  1.7104 -0.2359
 4016TIP3   OH233462   5.948   6.390   3.285  0.4369  0.1355 -0.8598
 4016TIP3    H133463   5.946   6.333   3.208 -1.4135  0.6521 -1.2244
 4016TIP3    H233464   6.031   6.369   3.327  0.0255 -2.5366 -1.2037
 4017TIP3   OH233465   6.332   3.737   5.474 -0.2020  0.2418 -0.1143
 4017TIP3    H133466   6.264   3.720   5.409  1.1197  1.5036 -1.9098
 4017TIP3    H233467   6.289   3.795   5.538 -2.3937 -3.2552  1.8924
 4018TIP3   OH233468   0.356   3.958   2.130  0.2679 -0.1876  0.0599
 4018TIP3    H133469   0.300   3.884   2.154 -0.4331  0.4449  0.4287
 4018TIP3    H233470   0.394   3.932   2.046  0.5523 -1.2356  0.4862
 4019TIP3   OH233471   3.300   0.945  15.183  0.1831  0.1220  0.1800
 4019TIP3    H133472   3.314   0.905  15.268 -0.9306  1.4581  1.0325
 4019TIP3    H233473   3.283   0.871  15.124 -1.1707 -0.7167  1.5551
 4020TIP3   OH233474   0.220   4.665  14.331  0.2321  0.4886  0.3964
 4020TIP3    H133475   0.204   4.599  14.399 -1.2841 -0.1184 -0.4769
 4020TIP3    H233476   0.174   4.743  14.362 -1.4991 -0.1435 -0.4021
 4021TIP3   OH233477   6.169   3.632   0.508  0.1516 -0.4980  0.5124
 4021TIP3    H133478   6.154   3.719   0.545 -0.5068 -0.1535 -0.5123
 4021TIP3    H233479   6.081   3.600   0.486  0.5161 -0.4809 -1.1380
 4022TIP3   OH233480   4.793   6.160   6.453 -0.1691  0.5703 -0.0178
 4022TIP3    H133481   4.735   6.236   6.464 -1.0339  0.1653 -1.5593
 4022TIP3    H233482   4.789   6.139   6.360 -1.1685 -2.3126  0.5722
 4023TIP3   OH233483   0.645   0.081   3.927 -0.2296 -0.4835  1.1908
 4023TIP3    H133484   0.712   0.058   3.990 -0.5358 -1.6378  1.1239
 4023TIP3    H233485   0.680   0.052   3.843  1.6668  3.9771  0.1530
 4024TIP3   OH233486   3.504   5.300  11.563 -0.7506 -0.0925 -0.0508
 4024TIP3    H133487   3.600   5.307  11.565 -0.7921  0.6557 -0.3957
 4024TIP3    H233488   3.488   5.214  11.523 -0.2279 -0.6793  0.9646
 4025TIP3   OH233489   2.600   0.951   5.342 -0.0958  0.0821 -0.0322
 4025TIP3    H133490   2.535   0.959   5.411 -0.4721 -0.4299 -0.3231
 4025TIP3    H233491   2.635   0.862   5.351  1.1050  0.5931  0.5887
 4026TIP3   OH233492   2.285   1.646  15.999  0.5283  0.0286 -0.1928
 4026TIP3    H133493   2.191   1.639  15.985  0.4683  0.1691  0.1251
 4026TIP3    H233494   2.297   1.629  16.093  1.0029 -1.7476 -0.5334
 4027TIP3   OH233495   5.453   5.237   1.965  0.3460 -0.0040  0.0989
 4027TIP3    H133496   5.407   5.158   1.995 -0.8475  0.7719  0.4037
 4027TIP3    H233497   5.544   5.210   1.955 -0.0656 -1.4433  0.0895
 4028TIP3   OH233498   3.138   0.340   5.267 -0.0149 -0.2064  0.0439
 4028TIP3    H133499   3.064   0.314   5.213 -0.8112  0.2584  0.8715
 4028TIP3    H233500   3.195   0.263   5.269 -0.4724 -0.5697 -0.6062
 4029TIP3   OH233501   0.523   4.602   1.648 -0.2439  0.2959 -0.2241
 4029TIP3    H133502   0.510   4.561   1.733  0.7756  1.3996  0.4920
 4029TIP3    H233503   0.480   4.542   1.586 -0.0577 -1.0850  0.9216
 4030TIP3   OH233504   1.699   2.064   1.306 -0.1009  0.7696 -0.1392
 4030TIP3    H133505   1.679   2.142   1.357  0.1535  0.6005  0.2274
 4030TIP3    H233506   1.637   2.066   1.233  0.0395  1.4210 -0.2475
 4031TIP3   OH233507   1.586   5.117   5.164  0.3998 -0.7904 -0.1957
 4031TIP3    H133508   1.651   5.097   5.232  0.2579 -2.3392 -0.4835
 4031TIP3    H233509   1.517   5.052   5.177 -1.2307  0.9190  0.2086
 4032TIP3   OH233510   4.043   3.090  12.059 -0.5970  0.0433 -0.1373
 4032TIP3    H133511   4.081   3.178  12.065 -0.1980 -0.2076  1.8734
 4032TIP3    H233512   3.961   3.097  12.109 -1.0932 -0.4704 -0.8714
 4033TIP3   OH233513   2.765   4.816   5.790 -0.4645 -0.5777 -0.2355
 4033TIP3    H133514   2.706   4.775   5.727 -2.4261  0.2097  0.9993
 4033TIP3    H233515   2.725   4.799   5.875 -0.0021  1.6985  0.5031
 4034TIP3   OH233516   1.596   4.646   5.772  0.2436 -0.0399  0.7390
 4034TIP3    H133517   1.627   4.687   5.853  0.5014 -0.9902  1.1419
 4034TIP3    H233518   1.618   4.708   5.704  0.3304  0.6304  1.3622
 4035TIP3   OH233519   1.113   0.817   4.900 -0.4557 -0.2767 -0.2167
 4035TIP3    H133520   1.020   0.820   4.877 -0.2796  1.4587 -0.7844
 4035TIP3    H233521   1.144   0.733   4.864 -2.1763 -1.8133  1.6370
 4036TIP3   OH233522   6.178   6.605  14.098  0.7741  0.0609 -0.5283
 4036TIP3    H133523   6.221   6.689  14.118  0.4907 -0.1941  1.3220
 4036TIP3    H233524   6.086   6.621  14.119  0.8263 -0.8936  0.4781
 4037TIP3   OH233525   1.962   3.492  15.049  0.4160  0.1841 -0.3861
 4037TIP3    H133526   2.046   3.474  15.090 -0.5625 -0.0248  1.6247
 4037TIP3    H233527   1.948   3.586  15.064 -0.0298  0.0703 -0.0830
 4038TIP3   OH233528   5.580   1.849   2.208 -0.1727 -0.0318 -1.0837
 4038TIP3    H133529   5.652   1.887   2.259 -0.2039  0.2861 -1.2700
 4038TIP3    H233530   5.503   1.900   2.234 -0.2978 -0.2507 -1.0209
 4039TIP3   OH233531   1.058   1.834  17.013 -0.0665  0.2766  0.2962
 4039TIP3    H133532   1.076   1.774  17.085 -0.3538  1.2287  1.1957
 4039TIP3    H233533   0.980   1.883  17.041  0.4790  1.4532 -0.1428
 4040TIP3   OH233534   4.473   2.389   1.818 -0.0760 -0.3317 -0.3219
 4040TIP3    H133535   4.566   2.369   1.804  0.3622  1.8686 -0.9348
 4040TIP3    H233536   4.467   2.484   1.808 -2.5471 -0.4961 -1.1443
 4041TIP3   OH233537   4.788   0.395  13.250  0.3167 -0.0517  0.4533
 4041TIP3    H133538   4.759   0.304  13.259 -0.2128  0.2065  1.5647
 4041TIP3    H233539   4.855   0.392  13.182  0.8837 -1.4042  1.0328
 4042TIP3   OH233540   3.440   2.452   3.893  0.0918  0.1965  0.4520
 4042TIP3    H133541   3.404   2.438   3.806  3.1088 -0.6542 -0.7631
 4042TIP3    H233542   3.520   2.502   3.878 -0.1524  1.5060  2.9413
 4043TIP3   OH233543   0.578   3.336  13.643  0.3046  0.0197 -0.1712
 4043TIP3    H133544   0.509   3.365  13.583  1.3187 -0.9968 -1.9132
 4043TIP3    H233545   0.586   3.242  13.627 -0.8091 -0.7620  3.1317
 4044TIP3   OH233546   2.399   2.946   4.299 -0.2522 -0.0493  0.3736
 4044TIP3    H133547   2.324   2.904   4.341 -1.6375  1.9253 -0.0142
 4044TIP3    H233548   2.475   2.910   4.345 -1.3515 -2.4107  0.5244
 4045TIP3   OH233549   3.570   4.299  11.323 -0.0690 -0.1595 -0.1372
 4045TIP3    H133550   3.491   4.302  11.268 -0.4997  1.2538  0.5037
 4045TIP3    H233551   3.641   4.319  11.263 -0.0345 -2.3545 -0.9161
 4046TIP3   OH233552   3.156   1.624   0.650  0.0927  0.3171  0.2288
 4046TIP3    H133553   3.244   1.613   0.686 -0.1353  0.0139  0.7024
 4046TIP3    H233554   3.170   1.642   0.557  0.5819 -2.3528 -0.2916
 4047TIP3   OH233555   2.857   3.222   6.455 -0.9124 -0.2144 -0.3572
 4047TIP3    H133556   2.779   3.167   6.464  0.4214 -1.9533  1.4905
 4047TIP3    H233557   2.925   3.175   6.504  0.7913  2.2032 -0.2363
 4048TIP3   OH233558   2.974   3.491  17.050  0.6544 -0.7692  0.0175
 4048TIP3    H133559   2.933   3.492  17.137  1.0581  0.7396  0.2134
 4048TIP3    H233560   2.900   3.484  16.989  0.1823  0.5015  0.4191
 4049TIP3   OH233561   1.474   3.988   5.202 -0.4482  0.4974  0.3725
 4049TIP3    H133562   1.440   3.981   5.292  0.7410 -0.0843  0.7969
 4049TIP3    H233563   1.452   3.904   5.162  2.1734 -0.7279  1.2915
 4050TIP3   OH233564   4.974   0.529  12.539 -0.0531 -0.1998 -0.3219
 4050TIP3    H133565   5.017   0.446  12.559 -1.5557 -0.9477 -0.0227
 4050TIP3    H233566   4.940   0.559  12.623 -0.2766  0.2659 -0.5746
 4051TIP3   OH233567   0.811   4.757   2.502 -0.2606  0.5321 -0.6870
 4051TIP3    H133568   0.889   4.703   2.486 -0.8445 -1.6054  2.5058
 4051TIP3    H233569   0.744   4.721   2.443 -0.1409 -1.1777  0.1414
 4052TIP3   OH233570   6.398   3.779  14.409  0.0541 -0.1630  0.2009
 4052TIP3    H133571   6.303   3.793  14.411 -0.5354 -3.4520  0.1465
 4052TIP3    H233572   6.424   3.807  14.321 -1.3670 -1.5725 -0.7337
 4053TIP3   OH233573   3.569   4.897  11.178 -0.7928 -0.3403  0.5596
 4053TIP3    H133574   3.597   4.805  11.179 -1.9238 -0.6919  1.3342
 4053TIP3    H233575   3.548   4.914  11.086  0.5547 -0.4808  0.2000
 4054TIP3   OH233576   5.643   2.227   3.869  0.3923 -0.8028  0.0992
 4054TIP3    H133577   5.581   2.154   3.871  0.2608 -0.6844  0.5670
 4054TIP3    H233578   5.700   2.208   3.795 -0.8348 -0.3862 -0.9820
 4055TIP3   OH233579   0.630   6.617   4.114  0.6802 -0.3072 -0.4417
 4055TIP3    H133580   0.693   6.675   4.157 -0.2483 -0.0144  0.5561
 4055TIP3    H233581   0.544   6.648   4.143  0.0528 -0.7260 -1.7384
 4056TIP3   OH233582   2.758   6.598   1.051  0.4183  0.6977  0.4404
 4056TIP3    H133583   2.776   6.687   1.081 -0.3213  0.5870  1.2637
 4056TIP3    H233584   2.807   6.542   1.112  1.9640  0.5533 -0.8772
 4057TIP3   OH233585   3.323   4.832   1.903  0.3644  0.1357  0.0598
 4057TIP3    H133586   3.384   4.902   1.879  0.0051  0.6819  0.7105
 4057TIP3    H233587   3.251   4.840   1.841  0.2631  0.4277  0.2152
 4058TIP3   OH233588   3.800   4.040   3.738 -0.0731 -0.1640 -0.1652
 4058TIP3    H133589   3.885   4.082   3.726  0.9499 -2.0186  0.1441
 4058TIP3    H233590   3.765   4.029   3.649  0.9589 -1.1671 -0.4698
 4059TIP3   OH233591   5.140   6.360   5.371 -0.1492 -0.4209  0.2449
 4059TIP3    H133592   5.132   6.322   5.283 -0.8089 -1.6144  0.7957
 4059TIP3    H233593   5.074   6.429   5.373 -0.6946 -0.9299  0.0709
 4060TIP3   OH233594   1.535   6.753  11.797  0.3454  0.3428 -0.0493
 4060TIP3    H133595   1.557   6.670  11.755  1.3250  0.6328 -0.1506
 4060TIP3    H233596   1.543   6.818  11.727  1.6861  0.7859  0.4731
 4061TIP3   OH233597   5.784   5.272  13.145  0.6554 -0.5040  0.2028
 4061TIP3    H133598   5.758   5.331  13.216  1.2387  0.8116 -0.6508
 4061TIP3    H233599   5.704   5.260  13.093  0.9906  1.2252 -0.7852
 4062TIP3   OH233600   1.352   2.106  15.312  0.3339 -0.0907 -0.4668
 4062TIP3    H133601   1.328   2.197  15.297 -0.0960 -0.1561 -0.1718
 4062TIP3    H233602   1.448   2.107  15.312  0.3385  0.2276 -1.2653
 4063TIP3   OH233603   2.881   0.672   5.306  0.2572 -0.3222 -0.5857
 4063TIP3    H133604   2.919   0.730   5.373  0.2374  0.0820 -0.9182
 4063TIP3    H233605   2.957   0.635   5.261  0.3102 -1.7091  0.5711
 4064TIP3   OH233606   4.467   6.335  15.569  0.2800 -0.3117  0.0247
 4064TIP3    H133607   4.444   6.242  15.562  0.6541 -0.3262 -1.3630
 4064TIP3    H233608   4.555   6.334  15.608  0.9737 -0.6624 -1.4544
 4065TIP3   OH233609   1.951   3.843   0.987 -0.5437 -0.1564  0.1187
 4065TIP3    H133610   1.953   3.779   1.057 -1.1376  0.9441  1.1763
 4065TIP3    H233611   1.905   3.918   1.024  0.6196  1.1148 -0.8967
 4066TIP3   OH233612   3.266   0.175  16.741  0.0952  0.4632 -0.2922
 4066TIP3    H133613   3.245   0.260  16.701 -0.2836  0.5023 -0.0157
 4066TIP3    H233614   3.361   0.174  16.745  0.1384  0.4975 -1.1028
 4067TIP3   OH233615   0.519   1.357  15.214 -0.3584 -0.0753  0.0672
 4067TIP3    H133616   0.440   1.379  15.164 -0.2295  0.1315 -0.0473
 4067TIP3    H233617   0.578   1.430  15.198  0.0613 -0.4935 -0.2829
 4068TIP3   OH233618   1.140   3.673   6.463 -0.8153  0.0481 -0.0130
 4068TIP3    H133619   1.219   3.632   6.500 -1.0825 -1.2514 -0.8194
 4068TIP3    H233620   1.112   3.735   6.530  0.2433 -0.2979  0.7852
 4069TIP3   OH233621   3.207   0.269  13.094 -0.1215 -0.2400  0.1286
 4069TIP3    H133622   3.191   0.336  13.028 -1.4786 -2.1251 -1.5931
 4069TIP3    H233623   3.176   0.308  13.176  0.5161  1.7443 -0.5156
 4070TIP3   OH233624   1.195   0.141  14.637 -0.2229 -0.3904 -0.3039
 4070TIP3    H133625   1.137   0.199  14.587 -1.1048 -0.8572  0.1618
 4070TIP3    H233626   1.162   0.053  14.620 -0.4391 -0.5695  0.9745
 4071TIP3   OH233627   2.565   5.574   5.265  0.2055  0.2377 -0.0055
 4071TIP3    H133628   2.535   5.615   5.347 -1.5096 -0.8546 -0.0446
 4071TIP3    H233629   2.615   5.643   5.221  2.7926  0.3522  2.7394
 4072TIP3   OH233630   1.087   3.922   0.038 -0.2976  0.0436 -0.3955
 4072TIP3    H133631   1.172   3.967   0.044 -0.9676  1.9416 -3.2006
 4072TIP3    H233632   1.079   3.898  -0.054 -1.8462 -2.2497  0.2610
 4073TIP3   OH233633   5.125   1.012  11.322 -0.3353 -0.3876  0.0389
 4073TIP3    H133634   5.087   0.988  11.407  0.2267 -0.5447  0.2523
 4073TIP3    H233635   5.108   1.106  11.314 -0.8903 -0.4821  0.0628
 4074TIP3   OH233636   4.552   2.842  13.283 -0.0491  0.1817 -0.3243
 4074TIP3    H133637   4.470   2.890  13.297  0.4869  1.7318 -2.0580
 4074TIP3    H233638   4.615   2.887  13.339  0.6917  2.3999 -2.6768
 4075TIP3   OH233639   3.185   6.545  15.278  0.1315 -0.0900 -0.1798
 4075TIP3    H133640   3.248   6.617  15.280 -0.2673  0.2632 -0.1313
 4075TIP3    H233641   3.104   6.584  15.311  0.0466 -0.6933  0.3379
 4076TIP3   OH233642   0.036   4.322   1.792  0.0843 -0.3727 -0.1005
 4076TIP3    H133643   0.054   4.264   1.718  2.5821  1.7556 -1.3151
 4076TIP3    H233644   0.107   4.305   1.854 -0.1845  0.1183  0.3497
 4077TIP3   OH233645   6.497   2.643   3.334  0.0977 -0.6844  0.2969
 4077TIP3    H133646   6.590   2.661   3.341 -0.1368  1.2166 -0.8427
 4077TIP3    H233647   6.454   2.722   3.367 -1.0967 -1.1505 -0.0695
 4078TIP3   OH233648   1.188   2.462   0.744  0.4089  0.3686  0.1446
 4078TIP3    H133649   1.132   2.527   0.701  0.4799  1.3327  1.4728
 4078TIP3    H233650   1.263   2.453   0.685 -0.3548  0.2733 -0.8479
 4079TIP3   OH233651   0.899   1.294  12.000 -0.4713 -0.5161  0.1759
 4079TIP3    H133652   0.873   1.339  12.080 -1.2234 -2.3797  1.0267
 4079TIP3    H233653   0.863   1.349  11.929 -1.3066  0.2489  1.1617
 4080TIP3   OH233654   2.372   4.844   2.595  0.3719 -0.1246  0.6246
 4080TIP3    H133655   2.280   4.860   2.619  0.9486  1.8029  1.7582
 4080TIP3    H233656   2.407   4.795   2.669 -0.0855 -2.2682 -0.5150
 4081TIP3   OH233657   3.227   5.781  12.833 -0.1398  0.0992 -0.4152
 4081TIP3    H133658   3.284   5.834  12.778  0.1169  0.8508  0.5526
 4081TIP3    H233659   3.286   5.736  12.894 -0.4719 -0.1617 -0.2807
 4082TIP3   OH233660   4.243   5.017  13.106  0.1164  0.1956  0.5679
 4082TIP3    H133661   4.302   4.982  13.172  0.0971  0.5365  0.7629
 4082TIP3    H233662   4.225   4.942  13.048 -3.2784 -1.3938  3.3137
 4083TIP3   OH233663   4.647   3.898   1.757  0.0776 -0.1908 -0.0609
 4083TIP3    H133664   4.633   3.991   1.738  1.4595 -0.0189 -0.3369
 4083TIP3    H233665   4.643   3.892   1.852 -0.5316  0.0599 -0.0675
 4084TIP3   OH233666   0.577   0.986   0.145  0.3174 -0.7213 -0.1003
 4084TIP3    H133667   0.499   0.959   0.194 -0.5851 -0.2431 -1.2217
 4084TIP3    H233668   0.567   0.946   0.058  0.1016  1.2306 -1.0461
 4085TIP3   OH233669   2.677   1.791  11.591 -0.7078 -0.2639 -0.0160
 4085TIP3    H133670   2.651   1.792  11.499  0.8046  2.3502 -0.5173
 4085TIP3    H233671   2.709   1.702  11.606 -0.5399 -0.6075 -2.1604
 4086TIP3   OH233672   1.218   4.765  14.270 -0.1902 -0.2656  0.4642
 4086TIP3    H133673   1.180   4.805  14.192  0.0617  0.9318  0.9308
 4086TIP3    H233674   1.158   4.694  14.292  0.0004 -0.9428 -1.0834
 4087TIP3   OH233675   1.902   3.622   0.594 -0.0669  0.8802 -0.1015
 4087TIP3    H133676   1.826   3.614   0.536  0.6550  1.5888 -1.1774
 4087TIP3    H233677   1.963   3.557   0.560 -0.7278 -0.7607  1.6924
 4088TIP3   OH233678   1.229   5.640   6.200  0.1900  0.0410  0.4352
 4088TIP3    H133679   1.174   5.562   6.202  0.0643  0.0970 -0.4102
 4088TIP3    H233680   1.174   5.709   6.238 -0.1334 -0.0248  0.0961
 4089TIP3   OH233681   4.136   3.015   5.581  0.3479 -0.7377 -0.2927
 4089TIP3    H133682   4.159   3.108   5.572  0.5176 -0.8932 -1.6932
 4089TIP3    H233683   4.043   3.012   5.556  0.8850 -1.2281 -2.3599
 4090TIP3   OH233684   1.737   3.173  13.995  0.0150  0.0114 -0.8819
 4090TIP3    H133685   1.643   3.178  14.011  0.3199  0.2750  1.1654
 4090TIP3    H233686   1.765   3.264  13.985  0.3580  0.1473  0.9198
 4091TIP3   OH233687   4.215   6.564   0.936  0.3129  0.5523 -0.5865
 4091TIP3    H133688   4.276   6.605   0.875 -0.2071  1.2768 -0.6388
 4091TIP3    H233689   4.270   6.533   1.008  0.6878  1.7070 -0.3538
 4092TIP3   OH233690   3.919   2.441  14.259 -0.3723  0.1808  0.4871
 4092TIP3    H133691   3.917   2.352  14.294 -1.2331  0.5585  1.4670
 4092TIP3    H233692   4.012   2.466  14.265 -0.0108 -0.8604 -0.4095
 4093TIP3   OH233693   5.102   4.584  14.054 -0.3206 -0.1226  0.6547
 4093TIP3    H133694   5.112   4.592  13.959  0.2317  1.8530  0.8279
 4093TIP3    H233695   5.088   4.491  14.069 -0.2736 -0.4988 -1.3507
 4094TIP3   OH233696   0.114   0.103   1.183  0.3689  0.9153  0.3684
 4094TIP3    H133697   0.159   0.029   1.142 -1.2053  0.1178 -0.0244
 4094TIP3    H233698   0.169   0.179   1.165  0.9293  0.1889 -1.1140
 4095TIP3   OH233699   2.993   5.228  16.664 -0.3124  0.0161 -0.0213
 4095TIP3    H133700   2.971   5.204  16.754 -2.8160 -1.8563 -1.0102
 4095TIP3    H233701   3.007   5.144  16.620  0.0069  0.8528 -1.5822
 4096TIP3   OH233702   1.630   3.867  16.741  0.1398 -0.2632  0.0663
 4096TIP3    H133703   1.646   3.814  16.662 -1.0031 -0.5113 -0.0121
 4096TIP3    H233704   1.553   3.920  16.719 -1.0227 -1.3041  1.4706
 4097TIP3   OH233705   6.272   3.522  15.805  0.2056 -0.0678  0.3653
 4097TIP3    H133706   6.300   3.506  15.895 -0.9635  1.0017  0.9502
 4097TIP3    H233707   6.178   3.501  15.805  0.3607 -0.9227 -0.8448
 4098TIP3   OH233708   1.348   1.744  12.185  0.3154  1.2633  0.9664
 4098TIP3    H133709   1.400   1.809  12.232  1.9276  1.2602 -0.6951
 4098TIP3    H233710   1.327   1.786  12.102  2.0516 -0.5538 -0.4668
 4099TIP3   OH233711   0.886   3.646   5.273  0.1407  0.2455  0.1492
 4099TIP3    H133712   0.802   3.636   5.318  0.9955  0.0032  1.7761
 4099TIP3    H233713   0.902   3.561   5.233 -0.3634  0.2843 -0.1459
 4100TIP3   OH233714   1.892   3.681   2.309 -0.6082 -0.6267 -0.3403
 4100TIP3    H133715   1.976   3.686   2.264 -0.8532  0.3991 -0.7127
 4100TIP3    H233716   1.850   3.765   2.292 -0.9888 -0.4582  1.2938
 4101TIP3   OH233717   0.936   4.732   0.854  0.4636 -0.1313 -0.3592
 4101TIP3    H133718   0.854   4.780   0.862  0.6500  0.8427 -3.1274
 4101TIP3    H233719   0.979   4.771   0.777  3.2211 -1.0555  0.5798
 4102TIP3   OH233720   1.198   0.723  11.732 -0.5673 -0.0965  0.0317
 4102TIP3    H133721   1.173   0.775  11.808  1.0911 -0.4785  0.8894
 4102TIP3    H233722   1.131   0.655  11.726 -1.4777  0.7569  0.2939
 4103TIP3   OH233723   1.948   0.858  14.648 -0.1361  0.4762  0.9466
 4103TIP3    H133724   1.862   0.842  14.610 -0.1700  0.1084  1.1755
 4103TIP3    H233725   1.987   0.925  14.591  0.0960 -0.5709 -0.1813
 4104TIP3   OH233726   0.510   3.348  14.657 -0.3958  0.7249  0.1796
 4104TIP3    H133727   0.566   3.392  14.593  0.4251 -0.0336  0.3640
 4104TIP3    H233728   0.450   3.416  14.687 -0.3236  1.2661 -0.8635
 4105TIP3   OH233729   3.276   4.115  13.288  0.3695  0.2521  0.8566
 4105TIP3    H133730   3.292   4.209  13.278  0.9072  0.4005  2.7285
 4105TIP3    H233731   3.287   4.079  13.200 -1.1203  2.0966 -0.1446
 4106TIP3   OH233732   6.576   1.926  14.029  0.1090  0.3105 -0.0589
 4106TIP3    H133733   6.543   2.014  14.050  2.6662  1.2962  0.0919
 4106TIP3    H233734   6.545   1.871  14.101  0.8587  1.7118  1.3990
 4107TIP3   OH233735   3.558   2.599   3.287  0.0646  0.0450 -0.1865
 4107TIP3    H133736   3.636   2.547   3.269 -0.8141 -1.4993  0.2674
 4107TIP3    H233737   3.505   2.590   3.208 -0.3303 -0.2115  0.1042
 4108TIP3   OH233738   5.569   1.012   0.121 -0.0235 -0.8986  0.1358
 4108TIP3    H133739   5.652   1.010   0.169 -0.7715 -0.8599  1.4559
 4108TIP3    H233740   5.501   1.011   0.189 -1.1084 -0.3860 -0.8995
 4109TIP3   OH233741   0.519   0.499  11.729  0.5198  0.1794  0.5549
 4109TIP3    H133742   0.588   0.562  11.710  0.3824  0.0072 -0.5537
 4109TIP3    H233743   0.451   0.516  11.663  0.3650 -0.9396  0.3993
 4110TIP3   OH233744   0.675   4.839   5.929 -0.0699 -0.3687  0.3339
 4110TIP3    H133745   0.646   4.920   5.970 -2.2145 -1.7071  1.6823
 4110TIP3    H233746   0.663   4.772   5.997  2.4771 -1.7226 -0.4309
 4111TIP3   OH233747   3.376   0.378  15.618  0.1242  0.2474  0.0638
 4111TIP3    H133748   3.313   0.349  15.684  1.0086 -0.1171  0.7590
 4111TIP3    H233749   3.331   0.448  15.571 -0.4663  0.6002  1.1302
 4112TIP3   OH233750   0.625   4.808   3.850  0.1201 -0.8945  0.5471
 4112TIP3    H133751   0.558   4.818   3.783 -0.4239 -0.0880  1.1904
 4112TIP3    H233752   0.684   4.740   3.816  0.9058  0.7430 -1.5642
 4113TIP3   OH233753   3.652   4.934  16.541 -0.6074  0.1050 -0.5646
 4113TIP3    H133754   3.599   5.010  16.519 -2.2826 -1.8595 -4.4206
 4113TIP3    H233755   3.595   4.878  16.593 -0.9761 -0.2814 -1.3551
 4114TIP3   OH233756   5.323   3.154   0.734  0.2125  0.9033 -0.1438
 4114TIP3    H133757   5.286   3.204   0.662 -0.9997  0.4367  0.1401
 4114TIP3    H233758   5.292   3.064   0.720  1.8404  0.3236 -0.2986
 4115TIP3   OH233759   6.126   3.392  14.706 -0.1277 -0.0544 -0.3669
 4115TIP3    H133760   6.113   3.297  14.696  0.9407 -0.0304 -2.6041
 4115TIP3    H233761   6.057   3.431  14.653  0.6576  0.3440 -1.1219
 4116TIP3   OH233762   2.579   1.208   0.227  0.1222  0.3326  0.3901
 4116TIP3    H133763   2.605   1.119   0.249 -0.7292  0.4349  1.9602
 4116TIP3    H233764   2.545   1.202   0.137  0.8545 -0.7386  0.1760
 4117TIP3   OH233765   3.005   2.813  14.505  0.0172  0.0162  0.3003
 4117TIP3    H133766   3.043   2.801  14.592  0.7593  0.4080  0.0405
 4117TIP3    H233767   2.998   2.725  14.470  0.1336 -0.1093  0.5842
 4118TIP3   OH233768   0.658   0.142   4.236 -0.0706 -0.2897  0.0214
 4118TIP3    H133769   0.625   0.231   4.246  0.0790 -0.3515  1.2544
 4118TIP3    H233770   0.653   0.104   4.324  1.9678 -0.7559  0.0073
 4119TIP3   OH233771   2.551   3.352   6.246  0.4805 -0.1371  0.1804
 4119TIP3    H133772   2.463   3.334   6.213  1.2888 -1.5770 -1.3663
 4119TIP3    H233773   2.541   3.353   6.342 -1.1141 -0.8789  0.0574
 4120TIP3   OH233774   1.811   2.859   2.883 -0.5535  0.5415 -0.4508
 4120TIP3    H133775   1.794   2.923   2.815 -0.9929  3.0439  1.8356
 4120TIP3    H233776   1.903   2.872   2.906 -1.0489  1.6157  1.1247
 4121TIP3   OH233777   4.595   1.267  14.947 -0.1749  0.5891 -0.1718
 4121TIP3    H133778   4.671   1.240  14.895 -0.3901  0.5273 -0.4545
 4121TIP3    H233779   4.535   1.193  14.943  0.0030  0.3944  0.5603
 4122TIP3   OH233780   3.084   5.696  11.254  0.2452 -0.2721 -0.0462
 4122TIP3    H133781   3.137   5.750  11.195  3.6699 -2.3128  0.8827
 4122TIP3    H233782   3.137   5.619  11.270 -3.5310 -3.0937  0.2769
 4123TIP3   OH233783   4.373   5.064   5.284 -0.7336  0.5458 -0.1049
 4123TIP3    H133784   4.445   5.078   5.224  0.3668  0.3226  1.1259
 4123TIP3    H233785   4.301   5.115   5.247  0.8495  3.0645  0.0854
 4124TIP3   OH233786   2.601   2.069  15.585 -0.3166  0.0953 -0.3778
 4124TIP3    H133787   2.643   2.149  15.552  0.3950 -0.0024  0.2609
 4124TIP3    H233788   2.562   2.029  15.507  0.5738  0.3221 -0.9638
 4125TIP3   OH233789   6.484   0.272  14.938 -0.1818  0.3463 -0.7649
 4125TIP3    H133790   6.487   0.261  15.033  0.0061  1.4980 -0.6197
 4125TIP3    H233791   6.398   0.311  14.921 -0.4600 -0.4124 -1.1396
 4126TIP3   OH233792   0.187   5.171   4.058 -0.0668  0.6208 -0.0439
 4126TIP3    H133793   0.095   5.167   4.085 -0.3151 -0.8328 -0.9888
 4126TIP3    H233794   0.199   5.261   4.029 -1.9808  0.1946 -2.4423
 4127TIP3   OH233795   3.597   3.689   5.995 -0.3152  0.1890  0.0095
 4127TIP3    H133796   3.611   3.726   5.908 -0.1602 -1.4012 -0.6874
 4127TIP3    H233797   3.530   3.622   5.982 -1.1313  0.7024  1.3572
 4128TIP3   OH233798   0.063   3.320   2.041  0.5857 -0.5126 -0.0514
 4128TIP3    H133799   0.147   3.291   2.076  0.1951 -1.3522  0.2278
 4128TIP3    H233800   0.002   3.250   2.064 -0.0496 -0.2487 -0.8698
 4129TIP3   OH233801   6.383   6.332   5.102  0.6407  0.5403  0.8296
 4129TIP3    H133802   6.435   6.403   5.065 -1.5777  1.0670 -1.5924
 4129TIP3    H233803   6.348   6.368   5.184  0.9390  1.5980  0.5055
 4130TIP3   OH233804   6.130   3.149   2.861 -0.3722  0.0214  0.2696
 4130TIP3    H133805   6.168   3.107   2.938  2.1953 -0.7972 -1.3203
 4130TIP3    H233806   6.180   3.229   2.849 -0.8721  0.2441 -0.4307
 4131TIP3   OH233807   4.104   0.543  13.076 -0.8017 -0.5222 -0.5902
 4131TIP3    H133808   4.072   0.472  13.020 -3.2118 -0.6420  0.8274
 4131TIP3    H233809   4.118   0.502  13.161 -3.6912  0.8962  0.6714
 4132TIP3   OH233810   2.107   0.815   4.778  0.1391 -0.1795 -0.0872
 4132TIP3    H133811   2.045   0.815   4.852  0.9952  1.2629  0.6693
 4132TIP3    H233812   2.081   0.891   4.726 -0.2618 -1.0120 -1.1488
 4133TIP3   OH233813   2.125   4.884  16.143  0.7497  0.2882  0.0927
 4133TIP3    H133814   2.123   4.902  16.049  1.4124 -0.9457 -0.1700
 4133TIP3    H233815   2.035   4.864  16.166  0.3760  1.7116 -0.0317
 4134TIP3   OH233816   5.305   6.529  14.980 -0.6196  0.1103  0.3236
 4134TIP3    H133817   5.264   6.498  15.061 -1.0025 -0.3582 -0.0416
 4134TIP3    H233818   5.232   6.538  14.918 -0.2301 -0.3413 -0.2202
 4135TIP3   OH233819   5.802   6.725  16.069 -0.1968 -0.7043 -0.3769
 4135TIP3    H133820   5.798   6.805  16.017  0.0403  1.3727  2.5636
 4135TIP3    H233821   5.866   6.670  16.024  0.5188  1.2511 -1.8595
 4136TIP3   OH233822   3.785   0.134   1.000  0.2695 -0.3525  0.5764
 4136TIP3    H133823   3.717   0.110   0.937  1.9117 -0.3837 -1.2560
 4136TIP3    H233824   3.781   0.229   1.004  0.0768 -0.3574  0.5270
 4137TIP3   OH233825   2.113   4.238  11.383  0.1158  0.2826 -0.0252
 4137TIP3    H133826   2.085   4.206  11.469 -0.3526  2.0645  0.5475
 4137TIP3    H233827   2.035   4.231  11.328  0.9670 -2.8880 -1.0201
 4138TIP3   OH233828   2.946   4.262   2.071 -0.4195  0.2106 -0.1385
 4138TIP3    H133829   3.025   4.227   2.111 -0.8111  1.1749  1.5952
 4138TIP3    H233830   2.951   4.235   1.980  1.4791 -0.4734  0.1241
 4139TIP3   OH233831   0.267   3.278  17.295 -0.1571  0.0658 -0.5059
 4139TIP3    H133832   0.359   3.303  17.310 -0.0741 -0.7604  0.4731
 4139TIP3    H233833   0.230   3.268  17.383 -0.9796 -0.3598 -0.8876
 4140TIP3   OH233834   3.469   2.785  12.450 -0.1971  0.3823 -0.5524
 4140TIP3    H133835   3.487   2.858  12.510 -0.8417  1.6019 -1.7963
 4140TIP3    H233836   3.391   2.812  12.402 -0.6367 -1.2846 -0.8258
 4141TIP3   OH233837   4.554   5.372   3.050  0.0804 -0.2228  0.4808
 4141TIP3    H133838   4.523   5.366   2.960 -0.0353 -0.9616  0.5607
 4141TIP3    H233839   4.624   5.307   3.056 -0.6735 -0.9924  1.2250
 4142TIP3   OH233840   2.613   6.660  12.320 -0.1479 -0.6997  0.1966
 4142TIP3    H133841   2.568   6.590  12.366 -1.2323 -0.4929 -0.5249
 4142TIP3    H233842   2.596   6.643  12.227  2.8301 -1.6934 -0.2847
 4143TIP3   OH233843   3.730   2.073  12.408  0.0249 -0.8262 -0.1813
 4143TIP3    H133844   3.743   1.978  12.406 -0.0939 -0.8572 -2.5855
 4143TIP3    H233845   3.644   2.084  12.449  0.1351 -1.7317  0.3279
 4144TIP3   OH233846   1.757   6.566   6.181 -0.1005  0.0616  0.7849
 4144TIP3    H133847   1.737   6.569   6.087  1.3282  0.9128  0.4743
 4144TIP3    H233848   1.734   6.653   6.214 -0.5437 -0.2161  1.2264
 4145TIP3   OH233849   3.449   3.354  16.931  0.6149  0.2028 -1.1087
 4145TIP3    H133850   3.384   3.403  16.880 -1.4684 -0.0967  1.0657
 4145TIP3    H233851   3.425   3.262  16.919 -1.1743  0.1597  1.7125
 4146TIP3   OH233852   1.363   5.481   2.343  0.4817  0.0842  0.6282
 4146TIP3    H133853   1.416   5.405   2.365  2.5388  0.7792 -1.5077
 4146TIP3    H233854   1.298   5.448   2.281  0.7860 -0.1107  0.4103
 4147TIP3   OH233855   6.031   6.633  12.435  0.6733  0.3686 -0.0485
 4147TIP3    H133856   6.060   6.605  12.522 -1.3904  0.2153  0.6526
 4147TIP3    H233857   6.051   6.558  12.378  0.4009 -0.2706  0.6693
 4148TIP3   OH233858   0.258   3.091  15.305  0.5703 -0.6450  0.1130
 4148TIP3    H133859   0.188   3.141  15.263 -0.7313 -2.8653 -0.4849
 4148TIP3    H233860   0.336   3.112  15.254  0.1493  0.9688  0.0675
 4149TIP3   OH233861   5.568   3.149  16.432  0.4144  0.2951 -0.1706
 4149TIP3    H133862   5.535   3.115  16.349 -1.2341 -0.5749  0.7947
 4149TIP3    H233863   5.660   3.172  16.414  0.2379 -0.3381 -2.0725
 4150TIP3   OH233864   0.869   5.840  11.783  0.3841 -0.0787 -0.2156
 4150TIP3    H133865   0.808   5.912  11.799 -2.5392 -2.0926 -1.3535
 4150TIP3    H233866   0.871   5.791  11.864  2.2008  1.0443  0.4858
 4151TIP3   OH233867   1.065   2.470  13.581  0.3516  0.2812 -0.2806
 4151TIP3    H133868   1.086   2.538  13.645  0.2747 -0.0235  0.0670
 4151TIP3    H233869   0.972   2.451  13.597  0.4252 -0.0476 -0.2478
 4152TIP3   OH233870   0.856   0.536  14.631  0.1403 -0.1512  0.1460
 4152TIP3    H133871   0.837   0.607  14.692  0.0335  0.0013 -0.0651
 4152TIP3    H233872   0.950   0.519  14.642 -0.0268 -0.6393  0.9023
 4153TIP3   OH233873   3.989   5.828   5.214 -0.1418  0.0850 -0.5394
 4153TIP3    H133874   4.055   5.809   5.280  0.3196  0.1782 -0.9700
 4153TIP3    H233875   4.037   5.830   5.132 -0.6925  0.0877 -0.8669
 4154TIP3   OH233876   4.795   4.573  10.231  0.3205 -0.2359  1.0138
 4154TIP3    H133877   4.848   4.517  10.174 -0.5789 -0.1208  0.0380
 4154TIP3    H233878   4.706   4.540  10.221 -0.4612  2.1185 -0.6144
 4155TIP3   OH233879   5.827   0.837  13.576  0.0724  0.4325  0.1359
 4155TIP3    H133880   5.741   0.808  13.608 -0.1061  0.7788 -0.0382
 4155TIP3    H233881   5.852   0.909  13.635  0.3222  0.2236  0.2916
 4156TIP3   OH233882   1.858   2.452   3.459 -0.0740 -0.7558 -0.1097
 4156TIP3    H133883   1.796   2.508   3.507  0.3409  1.3284 -1.8454
 4156TIP3    H233884   1.898   2.398   3.526 -2.5659 -1.0152  1.3033
 4157TIP3   OH233885   5.868   2.441   5.550 -0.6519  0.4557 -1.1714
 4157TIP3    H133886   5.776   2.468   5.546 -0.4320  1.1275 -1.8067
 4157TIP3    H233887   5.883   2.395   5.468 -0.7376 -0.7191 -0.5443
 4158TIP3   OH233888   1.882   0.684  13.115  0.3080 -0.1174  0.8365
 4158TIP3    H133889   1.954   0.645  13.065 -0.7634 -0.3689 -0.5970
 4158TIP3    H233890   1.842   0.610  13.160 -0.2984 -0.3348 -0.0280
 4159TIP3   OH233891   3.134   2.040   1.010 -0.3861  0.0586  0.3458
 4159TIP3    H133892   3.072   2.107   1.042 -0.4953  0.8736 -1.4233
 4159TIP3    H233893   3.115   1.963   1.063 -2.1065  0.6525  0.6801
 4160TIP3   OH233894   5.939   1.234   4.718 -0.2293 -0.9717 -0.0617
 4160TIP3    H133895   5.971   1.193   4.637  0.9633 -1.7928  0.7959
 4160TIP3    H233896   5.919   1.324   4.693  0.6836 -1.0475 -1.1378
 4161TIP3   OH233897   4.484   3.805   2.838  0.7037 -0.6007 -0.3207
 4161TIP3    H133898   4.440   3.871   2.784 -0.2745 -0.2350  0.8905
 4161TIP3    H233899   4.418   3.737   2.852  0.0306  0.4916  2.4700
 4162TIP3   OH233900   4.225   5.286   0.851 -0.5143 -0.3076 -0.3744
 4162TIP3    H133901   4.231   5.229   0.775 -2.1101  0.3347 -1.0403
 4162TIP3    H233902   4.135   5.319   0.849 -0.8603 -0.8470  2.2325
 4163TIP3   OH233903   1.817   1.543  14.494 -0.4140 -0.5721 -0.7041
 4163TIP3    H133904   1.907   1.576  14.486 -0.9068  0.9757 -0.1330
 4163TIP3    H233905   1.799   1.545  14.588 -1.6625  0.8821 -0.9481
 4164TIP3   OH233906   6.349   4.565  14.558 -0.5157  0.0040  0.1934
 4164TIP3    H133907   6.375   4.622  14.486 -1.6110 -0.1825 -0.3814
 4164TIP3    H233908   6.283   4.615  14.606  0.5526  0.3217  1.3866
 4165TIP3   OH233909   5.640   0.160  13.599  0.0886 -0.1395 -0.1602
 4165TIP3    H133910   5.620   0.080  13.649  1.0992  1.0034  2.2237
 4165TIP3    H233911   5.713   0.200  13.646 -0.5590  2.3455 -1.1196
 4166TIP3   OH233912   6.378   3.603  15.570  0.1333  0.1187 -0.6530
 4166TIP3    H133913   6.466   3.616  15.606  0.4073 -2.5982 -0.1172
 4166TIP3    H233914   6.328   3.563  15.642 -0.4890 -1.6452 -1.9767
 4167TIP3   OH233915   4.317   4.702  16.976  0.4981  0.2430 -0.2896
 4167TIP3    H133916   4.277   4.787  16.990  1.8021  0.5241  2.3603
 4167TIP3    H233917   4.258   4.657  16.916 -2.0259  1.7821  0.8890
 4168TIP3   OH233918   1.276   2.605  14.965  0.0454 -0.0775 -0.3629
 4168TIP3    H133919   1.186   2.585  14.937 -1.0583  1.9797  1.4308
 4168TIP3    H233920   1.329   2.536  14.925 -2.3293 -1.4403 -1.3927
 4169TIP3   OH233921   6.070   4.142  14.290  0.2794  0.4172  0.1157
 4169TIP3    H133922   6.146   4.196  14.311  0.6898  0.0695 -0.4642
 4169TIP3    H233923   6.001   4.205  14.268  0.5789  0.7213  0.0370
 4170TIP3   OH233924   2.081   0.382   0.031 -0.3750  0.3571  0.4902
 4170TIP3    H133925   2.100   0.468  -0.006 -0.8582 -0.4538 -1.7722
 4170TIP3    H233926   2.167   0.340   0.039 -0.2163  0.7451  0.8851
 4171TIP3   OH233927   2.053   2.627   0.116  0.3002 -0.3465 -0.1777
 4171TIP3    H133928   1.982   2.572   0.149  0.4721 -0.4909 -0.0429
 4171TIP3    H233929   2.037   2.633   0.022  1.2578 -2.0909 -0.5050
 4172TIP3   OH233930   1.611   0.050  16.171  0.1299  0.2947 -0.4541
 4172TIP3    H133931   1.680  -0.003  16.130 -1.1733 -0.2377 -2.0850
 4172TIP3    H233932   1.649   0.137  16.179  1.7109 -0.4327  0.6721
 4173TIP3   OH233933   2.516   2.460  13.896 -0.0976 -0.1727  0.3822
 4173TIP3    H133934   2.611   2.475  13.897  0.5184 -3.0874  3.1108
 4173TIP3    H233935   2.490   2.467  13.988 -2.4721  0.0679 -0.2508
 4174TIP3   OH233936   2.471   4.889   3.183 -0.3953  0.1141  0.1858
 4174TIP3    H133937   2.526   4.862   3.110  1.3187  1.1170  1.0273
 4174TIP3    H233938   2.490   4.825   3.252 -1.9702 -0.8050 -0.1722
 4175TIP3   OH233939   5.768   0.016  16.957 -0.3833  0.5662  0.2051
 4175TIP3    H133940   5.760   0.029  17.051  0.8647  0.0420  0.4109
 4175TIP3    H233941   5.844  -0.042  16.947  1.7336  3.3390 -1.2950
 4176TIP3   OH233942   3.293   3.612   1.017 -0.4441 -0.1118  0.3205
 4176TIP3    H133943   3.219   3.639   1.072 -1.2446  1.8599 -1.5586
 4176TIP3    H233944   3.254   3.599   0.930  1.1186 -1.0662 -0.2880
 4177TIP3   OH233945   4.809   3.714   3.665  0.2452 -0.4354  0.3368
 4177TIP3    H133946   4.723   3.707   3.624  0.4735  0.8881 -0.4267
 4177TIP3    H233947   4.797   3.678   3.753 -0.6649 -1.7911 -0.3074
 4178TIP3   OH233948   6.465   0.898  10.336 -0.2216  0.0715  0.5062
 4178TIP3    H133949   6.521   0.911  10.412  0.2659  0.2706  0.1226
 4178TIP3    H233950   6.416   0.979  10.328  0.6417  0.5448 -0.1238
 4179TIP3   OH233951   6.613   5.535   5.784  0.0030 -0.3627  0.3534
 4179TIP3    H133952   6.588   5.611   5.731  0.7630  0.2748  0.8917
 4179TIP3    H233953   6.582   5.460   5.734 -0.2609  0.2797 -0.4661
 4180TIP3   OH233954   0.868   4.889  14.674 -0.0409  0.4610  0.2116
 4180TIP3    H133955   0.910   4.839  14.744  2.8514  0.9095 -1.0473
 4180TIP3    H233956   0.828   4.823  14.618 -1.1400  0.0129  1.4688
 4181TIP3   OH233957   5.312   4.722   6.143  0.5130  0.2875  0.0629
 4181TIP3    H133958   5.290   4.645   6.090  1.5936 -0.3033  0.4494
 4181TIP3    H233959   5.402   4.707   6.171 -0.6174 -0.5129  3.8745
 4182TIP3   OH233960   0.485   1.423  11.469  0.1392 -0.6284  0.0631
 4182TIP3    H133961   0.408   1.463  11.428  0.4104  0.5361  0.6512
 4182TIP3    H233962   0.529   1.378  11.397 -1.8178 -2.5422 -0.0307
 4183TIP3   OH233963   4.791   2.231  16.671  0.0431  1.1596 -0.7582
 4183TIP3    H133964   4.760   2.159  16.616  0.7962  0.2839 -0.0711
 4183TIP3    H233965   4.717   2.291  16.676 -1.3005 -0.5049  0.2354
 4184TIP3   OH233966   1.255   1.798  14.602 -0.0420  0.3782 -0.6483
 4184TIP3    H133967   1.262   1.863  14.532  0.1242  0.5125 -0.5079
 4184TIP3    H233968   1.284   1.844  14.680  2.0520 -0.4291 -0.8815
 4185TIP3   OH233969   1.688   6.451   4.570  0.1493  0.2566 -0.2860
 4185TIP3    H133970   1.648   6.392   4.633  0.1422 -0.5229 -1.0044
 4185TIP3    H233971   1.775   6.469   4.605 -0.9598  2.4335  1.5922
 4186TIP3   OH233972   2.884   5.787   3.693 -0.2848 -0.6432  0.6562
 4186TIP3    H133973   2.798   5.828   3.685  0.3848  1.1700  1.9884
 4186TIP3    H233974   2.916   5.815   3.779  2.3544  0.2012 -0.4865
 4187TIP3   OH233975   1.031   4.133   0.697 -0.3360  0.1939  0.3927
 4187TIP3    H133976   1.080   4.198   0.646 -1.0033 -2.0654 -3.5578
 4187TIP3    H233977   1.082   4.053   0.689 -1.4915 -0.7384  1.7848
 4188TIP3   OH233978   5.409   5.594   3.162  0.7219 -0.0163 -0.4618
 4188TIP3    H133979   5.425   5.672   3.108 -0.7811  1.7721  1.4931
 4188TIP3    H233980   5.492   5.579   3.206  0.9520  0.6648 -0.6444
 4189TIP3   OH233981   3.514   3.046  11.899  0.3484 -0.2398  0.5222
 4189TIP3    H133982   3.457   3.040  11.975 -0.9118  1.2986 -0.2316
 4189TIP3    H233983   3.463   3.008  11.827  0.4662  0.6487 -0.0497
 4190TIP3   OH233984   4.881   4.426   6.006 -0.4141 -0.3363 -0.5700
 4190TIP3    H133985   4.936   4.477   5.947 -1.5126  1.8804  0.1832
 4190TIP3    H233986   4.937   4.410   6.082 -0.6503  1.7351  0.1147
 4191TIP3   OH233987   3.078   5.315   0.842  0.2090 -0.2730 -0.3531
 4191TIP3    H133988   3.133   5.236   0.845  1.0280  0.3145  0.6433
 4191TIP3    H233989   3.075   5.338   0.749 -1.9739 -2.7683 -1.0149
 4192TIP3   OH233990   0.875   5.998  12.318 -0.1791 -0.3585 -0.3040
 4192TIP3    H133991   0.949   6.014  12.261  1.1246 -1.7577  0.8971
 4192TIP3    H233992   0.905   6.024  12.405 -1.5423  0.1770  0.0516
 4193TIP3   OH233993   6.160   5.515  15.558  0.3353 -0.4396  0.1646
 4193TIP3    H133994   6.173   5.465  15.478 -1.6136  2.4879 -2.2204
 4193TIP3    H233995   6.076   5.485  15.592  1.2403 -1.8008  1.2917
 4194TIP3   OH233996   3.313   6.061   3.490  0.1533  0.0474 -1.0727
 4194TIP3    H133997   3.352   6.046   3.576 -0.8263  1.3124 -0.3762
 4194TIP3    H233998   3.315   5.975   3.447  0.8475 -0.5514  0.1211
 4195TIP3   OH233999   0.700   0.956  12.467 -0.0946  0.0975  0.3729
 4195TIP3    H134000   0.723   0.947  12.374  1.0058  1.1770  0.5183
 4195TIP3    H234001   0.605   0.969  12.467 -0.3781 -1.6913 -0.4544
 4196TIP3   OH234002   0.690   2.871   3.572  0.2696  0.4418  0.3251
 4196TIP3    H134003   0.607   2.839   3.606  0.3759  0.7246  0.8704
 4196TIP3    H234004   0.751   2.798   3.583  0.0486  0.1706 -0.2518
 4197TIP3   OH234005   3.195   6.260   0.892 -0.2046 -0.2437 -0.1541
 4197TIP3    H134006   3.229   6.290   0.976 -0.5388  0.5363 -0.2866
 4197TIP3    H234007   3.153   6.176   0.912 -1.4753  0.5714  0.7340
 4198TIP3   OH234008   4.603   0.267  13.997  0.4197  0.4460 -0.3630
 4198TIP3    H134009   4.562   0.350  14.021  0.5186  1.2962 -2.8127
 4198TIP3    H234010   4.691   0.291  13.970  1.0161 -0.7206  0.4725
 4199TIP3   OH234011   2.896   1.563  11.550 -0.3516  0.5092 -0.5641
 4199TIP3    H134012   2.950   1.543  11.474  0.0425 -1.9129  0.2605
 4199TIP3    H234013   2.949   1.623  11.602 -0.0273  1.0500 -1.5066
 4200TIP3   OH234014   3.315   0.078  15.007 -0.7212  0.2509  0.3855
 4200TIP3    H134015   3.353   0.019  15.073 -2.2869  0.3042  1.3935
 4200TIP3    H234016   3.388   0.100  14.950  1.1207  1.4580  2.9994
 4201TIP3   OH234017   5.281   2.839   6.408 -0.3799 -0.0828  0.1842
 4201TIP3    H134018   5.256   2.830   6.316 -0.6293 -1.9301  0.3882
 4201TIP3    H234019   5.247   2.925   6.434 -0.3449  0.4416 -1.4225
 4202TIP3   OH234020   1.180   5.091   6.016 -0.0908  0.7446  0.7637
 4202TIP3    H134021   1.130   5.080   6.097 -0.0929 -2.1957  0.4592
 4202TIP3    H234022   1.268   5.115   6.046 -0.1153 -0.1910  1.6323
 4203TIP3   OH234023   6.668   3.288   5.618 -0.5138 -0.0607 -0.5796
 4203TIP3    H134024   6.725   3.316   5.546  0.2463 -1.0794 -0.4012
 4203TIP3    H234025   6.602   3.232   5.576 -0.3653 -0.2515 -0.5618
 4204TIP3   OH234026   6.365   2.932   0.370 -0.1705  0.5677 -0.1328
 4204TIP3    H134027   6.455   2.934   0.404  0.7764 -1.7166 -2.2000
 4204TIP3    H234028   6.354   3.017   0.326  2.2076 -0.1940 -2.4973
 4205TIP3   OH234029   6.700   5.125   5.570  0.0479  0.2225 -0.2093
 4205TIP3    H134030   6.731   5.043   5.609  0.5865  0.5862  0.1490
 4205TIP3    H234031   6.764   5.190   5.598 -1.4336  1.1495  1.1437
 4206TIP3   OH234032   0.478   2.111   3.190 -0.8028 -1.1101  0.3882
 4206TIP3    H134033   0.557   2.142   3.234 -0.2290 -0.0912 -1.2995
 4206TIP3    H234034   0.506   2.035   3.140 -0.6110 -0.1260 -1.0544
 4207TIP3   OH234035   5.668   0.304  14.874 -0.4232  0.1126  0.1512
 4207TIP3    H134036   5.682   0.390  14.834 -0.5297 -0.5946 -1.5125
 4207TIP3    H234037   5.575   0.302  14.894 -1.0824 -0.6217 -2.5218
 4208TIP3   OH234038   1.336   3.457  13.149  0.7496 -0.6405  0.7206
 4208TIP3    H134039   1.266   3.477  13.211  1.0732 -2.0164  1.5438
 4208TIP3    H234040   1.368   3.544  13.122 -0.5900  0.0010  1.0688
 4209TIP3   OH234041   4.758   3.996  10.901 -0.1410 -0.0354  0.2614
 4209TIP3    H134042   4.713   3.932  10.845 -1.4685  1.5914 -0.6347
 4209TIP3    H234043   4.689   4.031  10.957  0.9853 -0.9041  2.2765
 4210TIP3   OH234044   2.606   6.319  11.323 -0.0660 -0.2471  0.3011
 4210TIP3    H134045   2.679   6.279  11.276 -0.4356 -0.5507 -0.0293
 4210TIP3    H234046   2.597   6.406  11.283  0.3019 -0.0915  0.5490
 4211TIP3   OH234047   3.669   2.511   3.773  0.1988  0.0683  0.0459
 4211TIP3    H134048   3.682   2.417   3.761 -3.2874 -0.4853 -0.4943
 4211TIP3    H234049   3.661   2.545   3.684 -0.2410  0.5375  0.2599
 4212TIP3   OH234050   5.354   3.712   1.136  0.3444 -0.4912 -0.2523
 4212TIP3    H134051   5.357   3.766   1.057  1.0443  1.0459  0.7804
 4212TIP3    H234052   5.262   3.686   1.143 -0.1221  0.9647 -0.5564
 4213TIP3   OH234053   1.119   5.906  16.949  0.1751 -0.1936 -0.2139
 4213TIP3    H134054   1.114   5.992  16.991 -0.5697  0.8638 -2.3351
 4213TIP3    H234055   1.117   5.844  17.022 -0.2894  1.5454  1.3330
 4214TIP3   OH234056   3.414   0.223  12.270  0.0102 -0.5021  0.0315
 4214TIP3    H134057   3.431   0.180  12.186  1.0884  3.1951 -1.8791
 4214TIP3    H234058   3.392   0.314  12.247 -0.6001  0.4811  3.7346
 4215TIP3   OH234059   2.580   4.464   3.912  0.2815 -0.0190 -0.3087
 4215TIP3    H134060   2.496   4.500   3.943  0.0628 -1.2785  0.6612
 4215TIP3    H234061   2.556   4.381   3.870  0.9816 -0.0691 -0.6222
 4216TIP3   OH234062   4.670   2.765  13.055 -0.4078  0.4238 -0.1026
 4216TIP3    H134063   4.630   2.793  13.138  1.6133  1.4809  0.5791
 4216TIP3    H234064   4.596   2.760  12.994 -1.9022 -0.0050  1.6419
 4217TIP3   OH234065   0.278   4.974   1.104  0.2026  0.2719 -0.0538
 4217TIP3    H134066   0.294   4.999   1.013 -2.4480 -1.0467 -0.9684
 4217TIP3    H234067   0.183   4.976   1.114  0.2366 -2.2461  1.8678
 4218TIP3   OH234068   0.735   3.946  17.145  0.3631  0.3125  0.4510
 4218TIP3    H134069   0.703   4.015  17.086  0.3342  0.4343  0.6083
 4218TIP3    H234070   0.710   3.976  17.232 -1.3478 -0.7900  0.3903
 4219TIP3   OH234071   6.742   2.845   4.359  0.0683  0.0516  0.7441
 4219TIP3    H134072   6.821   2.899   4.368  0.3622 -0.3384  0.5080
 4219TIP3    H234073   6.765   2.780   4.293 -0.6833  0.3683  0.1436
 4220TIP3   OH234074   2.238   6.312  17.037 -0.4819 -0.2167  0.1784
 4220TIP3    H134075   2.157   6.277  17.000  0.1683 -1.7148  0.0963
 4220TIP3    H234076   2.252   6.395  16.991 -1.2109 -0.6357 -0.8286
 4221TIP3   OH234077   1.783   4.768  13.458 -0.2651  0.0292  0.4614
 4221TIP3    H134078   1.746   4.793  13.542 -1.5604 -0.1167 -0.0541
 4221TIP3    H234079   1.716   4.789  13.393  0.5833 -0.1457 -0.5187
 4222TIP3   OH234080   2.961   2.691   0.380 -0.2227  0.1444 -0.0579
 4222TIP3    H134081   2.986   2.604   0.349  1.7187 -0.2976  2.4329
 4222TIP3    H234082   2.885   2.676   0.436  0.3040 -0.0515  0.6283
 4223TIP3   OH234083   4.037   3.635   2.156 -0.2363 -0.6318 -0.0859
 4223TIP3    H134084   3.949   3.646   2.193  0.3419  1.2517  0.7974
 4223TIP3    H234085   4.072   3.723   2.150  0.2049 -0.8907 -4.0572
 4224TIP3   OH234086   0.940   3.589  16.660 -0.2692 -0.3605  0.0410
 4224TIP3    H134087   0.948   3.525  16.589 -0.2910 -0.4173  0.0898
 4224TIP3    H234088   1.031   3.606  16.686 -0.3005 -0.9538  0.5509
 4225TIP3   OH234089   3.372   3.744  13.604 -0.5486 -0.6746  0.1001
 4225TIP3    H134090   3.345   3.835  13.597 -0.4645 -0.7588 -2.5231
 4225TIP3    H234091   3.375   3.726  13.698 -0.5161  2.0082  0.6815
 4226TIP3   OH234092   4.245   2.479   3.409 -0.5436 -0.3359 -0.0718
 4226TIP3    H134093   4.273   2.492   3.500 -1.3486 -0.7138  0.2480
 4226TIP3    H234094   4.151   2.460   3.416 -1.1181  1.8148 -1.1622
 4227TIP3   OH234095   3.508   3.828  12.108  0.3676  0.5690 -0.1951
 4227TIP3    H134096   3.423   3.831  12.065  0.0948 -1.7740  0.0394
 4227TIP3    H234097   3.495   3.771  12.184  2.3415 -0.5990 -0.6602
 4228TIP3   OH234098   4.029   3.369   2.361 -0.1646  0.1745  0.5769
 4228TIP3    H134099   4.078   3.386   2.280  1.0671  1.5363  1.5630
 4228TIP3    H234100   4.081   3.301   2.405 -1.2582 -1.1448 -0.0874
 4229TIP3   OH234101   0.775   5.232  10.920 -0.8117 -0.4135  0.2382
 4229TIP3    H134102   0.708   5.165  10.912 -0.1622 -1.2494  1.4205
 4229TIP3    H234103   0.824   5.228  10.838  0.0201 -2.2969  0.7833
 4230TIP3   OH234104   4.898   5.361  14.357  0.0542 -0.3027  0.6735
 4230TIP3    H134105   4.919   5.270  14.376  0.6882  0.1910  2.5723
 4230TIP3    H234106   4.822   5.356  14.299 -1.1615 -2.0563  2.2717
 4231TIP3   OH234107   0.165   3.610  16.043 -0.2750  0.3085 -0.3924
 4231TIP3    H134108   0.070   3.611  16.043 -0.2870  1.3875  0.2174
 4231TIP3    H234109   0.189   3.679  16.105  0.8904 -1.1023  0.7971
 4232TIP3   OH234110   2.391   0.513   5.948  0.0592  0.2285  0.7735
 4232TIP3    H134111   2.315   0.456   5.960  0.4657 -0.4370  0.2334
 4232TIP3    H234112   2.442   0.471   5.879  0.1827  1.4390  0.0844
 4233TIP3   OH234113   1.712   2.251   6.274 -0.4204  0.1692  0.2815
 4233TIP3    H134114   1.725   2.341   6.244 -1.6105 -0.1201 -1.1734
 4233TIP3    H234115   1.765   2.245   6.354  2.2123  1.2246 -1.2447
 4234TIP3   OH234116   2.601   5.101   1.895 -0.1470 -0.4156 -0.0100
 4234TIP3    H134117   2.621   5.008   1.909 -0.8892 -0.7355 -0.9440
 4234TIP3    H234118   2.675   5.135   1.846 -0.4746 -0.8631 -0.8473
 4235TIP3   OH234119   2.419   4.679   2.389 -0.1473 -0.4283 -0.0820
 4235TIP3    H134120   2.345   4.706   2.334 -0.9750 -2.9070 -0.2786
 4235TIP3    H234121   2.415   4.738   2.464 -2.2907 -0.4438 -0.1250
 4236TIP3   OH234122   4.268   0.004  12.174  1.1698 -0.2069  0.0498
 4236TIP3    H134123   4.293   0.005  12.266  2.4294  0.9709 -0.2647
 4236TIP3    H234124   4.249  -0.088  12.155  0.2887 -0.3927  1.6043
 4237TIP3   OH234125   1.094   6.713   4.080 -0.1347 -0.5095  0.2390
 4237TIP3    H134126   1.113   6.763   4.001 -1.8612 -0.2682 -0.0659
 4237TIP3    H234127   1.011   6.749   4.112 -0.3435 -1.7537  1.1959
 4238TIP3   OH234128   1.062   4.461   3.976  0.5068 -0.4048  0.8972
 4238TIP3    H134129   1.146   4.429   3.944  1.0059 -0.4470  2.1861
 4238TIP3    H234130   1.065   4.446   4.070 -0.3819  0.8622  1.1547
 4239TIP3   OH234131   1.482   2.630  12.129  0.1027 -0.0653  0.1227
 4239TIP3    H134132   1.560   2.617  12.183  0.3492 -2.2395 -0.6749
 4239TIP3    H234133   1.413   2.582  12.175 -0.7575  1.6014  0.6705
 4240TIP3   OH234134   0.666   0.788  13.778  0.2631  0.8293 -0.0146
 4240TIP3    H134135   0.595   0.839  13.818  1.3704  1.4830  1.2020
 4240TIP3    H234136   0.625   0.705  13.754 -0.8015  0.9792  1.1585
 4241TIP3   OH234137   0.418   0.291  15.339  0.1375  0.3240  0.5097
 4241TIP3    H134138   0.496   0.254  15.381  0.6676  1.7226  0.8056
 4241TIP3    H234139   0.351   0.290  15.407 -0.3801 -1.5994  0.0361
 4242TIP3   OH234140   5.325   3.514   4.401  0.0664 -0.0999  0.2947
 4242TIP3    H134141   5.244   3.463   4.405 -1.3457  2.0437  0.9924
 4242TIP3    H234142   5.369   3.484   4.321 -1.2619 -1.5116  0.0500
 4243TIP3   OH234143   5.615   0.801   0.861  0.5156  0.2814  0.1323
 4243TIP3    H134144   5.662   0.815   0.779  1.2908 -1.4571  0.2259
 4243TIP3    H234145   5.666   0.733   0.906 -3.0479 -3.3361 -0.6683
 4244TIP3   OH234146   5.715   2.348  14.138 -0.1440 -0.5172 -0.3596
 4244TIP3    H134147   5.671   2.289  14.076 -2.8283 -1.0596  1.8736
 4244TIP3    H234148   5.646   2.409  14.165  0.6348 -0.8527  2.6791
 4245TIP3   OH234149   1.737   6.682  12.094 -0.1624 -0.5296 -0.1660
 4245TIP3    H134150   1.787   6.742  12.038  1.6910 -0.8892  0.9968
 4245TIP3    H234151   1.646   6.700  12.074  0.3795  1.6659 -0.8985
 4246TIP3   OH234152   2.373   0.368  13.735  0.1117 -0.0718 -0.0017
 4246TIP3    H134153   2.420   0.286  13.723 -1.0639 -0.9551  1.1064
 4246TIP3    H234154   2.347   0.368  13.828  1.4469  2.3198  0.4536
 4247TIP3   OH234155   2.831   5.052   6.009  0.0388  0.2338 -0.3913
 4247TIP3    H134156   2.787   5.002   5.940 -0.4077  0.1863 -0.0789
 4247TIP3    H234157   2.774   5.128   6.024 -1.0830 -0.9045  1.4901
 4248TIP3   OH234158   3.102   5.400   3.427 -0.1189 -0.2545 -0.3759
 4248TIP3    H134159   3.071   5.382   3.515 -1.6878  0.2159 -0.7992
 4248TIP3    H234160   3.057   5.480   3.401 -0.3263 -0.8184 -1.8962
 4249TIP3   OH234161   4.833   0.337   1.831  0.1704 -0.5206 -0.1557
 4249TIP3    H134162   4.853   0.278   1.758  0.3957 -2.1663  1.1641
 4249TIP3    H234163   4.740   0.358   1.820  0.0423 -1.2708 -0.5900
 4250TIP3   OH234164   1.744   5.296   0.260 -0.4790  0.3123 -0.2579
 4250TIP3    H134165   1.796   5.361   0.308  0.3768 -0.8998  0.5060
 4250TIP3    H234166   1.793   5.280   0.180 -0.8408  0.7996 -0.5851
 4251TIP3   OH234167   1.460   3.587  16.888 -0.4515 -0.6025  0.0595
 4251TIP3    H134168   1.395   3.527  16.925  0.4157 -0.6090  1.6731
 4251TIP3    H234169   1.454   3.665  16.943 -0.2344  0.0364 -0.8182
 4252TIP3   OH234170   2.632   1.330   4.615  0.5673 -0.0211  0.0392
 4252TIP3    H134171   2.617   1.299   4.526 -1.0206 -0.2293  0.3451
 4252TIP3    H234172   2.641   1.251   4.668  0.0791  0.0680  0.2677
 4253TIP3   OH234173   6.715   4.097  15.356 -0.0995  0.1703  0.0197
 4253TIP3    H134174   6.793   4.072  15.307 -0.3374  0.3174 -0.4435
 4253TIP3    H234175   6.682   4.174  15.310  0.7702  1.5513  1.5549
 4254TIP3   OH234176   4.702   6.388  15.740 -0.0616  0.3409 -0.2069
 4254TIP3    H134177   4.739   6.352  15.821  0.7603 -0.0680 -0.7356
 4254TIP3    H234178   4.657   6.467  15.766  1.3660  0.9656  0.4750
 4255TIP3   OH234179   6.748   1.320  10.745  0.2353  0.2726  0.2738
 4255TIP3    H134180   6.741   1.407  10.705 -0.4785 -0.2233 -0.7381
 4255TIP3    H234181   6.801   1.333  10.823  2.1820  1.2215 -1.1201
 4256TIP3   OH234182   0.073   0.477   3.766  0.4277  0.1814  0.5475
 4256TIP3    H134183  -0.014   0.487   3.806  1.1820 -1.9291  3.0272
 4256TIP3    H234184   0.125   0.548   3.804  0.4542 -0.2407  1.3376
 4257TIP3   OH234185   6.505   5.430   6.315  0.1402 -0.2787 -0.0238
 4257TIP3    H134186   6.561   5.456   6.389 -1.1077  0.6925  0.6344
 4257TIP3    H234187   6.559   5.445   6.238  1.9157 -2.4716  0.6893
 4258TIP3   OH234188   5.337   6.233   4.590  0.2640 -0.1178 -0.2258
 4258TIP3    H134189   5.318   6.172   4.519 -0.9747 -0.4232  0.3324
 4258TIP3    H234190   5.251   6.260   4.622  0.7272  2.9131 -1.2467
 4259TIP3   OH234191   6.023   4.212   1.948 -0.0918  0.3898  0.6600
 4259TIP3    H134192   5.965   4.199   2.023 -0.5655 -0.6348  0.1428
 4259TIP3    H234193   6.031   4.125   1.908  2.1645  0.3954  0.9511
 4260TIP3   OH234194   6.738   2.009   3.006  0.0644  0.0234 -0.0486
 4260TIP3    H134195   6.813   2.012   2.947 -0.2426 -0.1769 -0.4535
 4260TIP3    H234196   6.738   2.094   3.049  1.1770 -0.3744  0.7750
 4261TIP3   OH234197   0.955   6.180  14.862 -0.1989  0.2586  0.3532
 4261TIP3    H134198   0.944   6.086  14.846 -0.7156  0.3527  0.1575
 4261TIP3    H234199   0.938   6.190  14.956 -2.0745  0.4341  0.0232
 4262TIP3   OH234200   0.968   6.376  15.442  0.9161 -0.7350 -0.2950
 4262TIP3    H134201   0.931   6.343  15.360  0.4178  0.1716 -0.4535
 4262TIP3    H234202   1.057   6.402  15.420  0.4937  0.3742 -0.8070
 4263TIP3   OH234203   0.120   4.823   1.967  1.2699  0.3306 -0.0999
 4263TIP3    H134204   0.216   4.830   1.966  1.2633  0.9672  1.1174
 4263TIP3    H234205   0.096   4.847   2.057  0.0030 -0.3574 -0.2395
 4264TIP3   OH234206   5.286   4.540  15.568 -0.0743 -0.0667 -0.2192
 4264TIP3    H134207   5.273   4.539  15.663 -1.0379  1.7092 -0.2935
 4264TIP3    H234208   5.319   4.627  15.549  1.2887 -0.7924 -1.4090
 4265TIP3   OH234209   3.951   3.139  13.261  0.2016  0.0076 -0.6465
 4265TIP3    H134210   3.960   3.233  13.246 -2.3942  0.5596  0.6276
 4265TIP3    H234211   3.875   3.113  13.208  0.1495 -1.1102 -0.0584
 4266TIP3   OH234212   1.788   1.439   2.955 -0.2692  0.1564 -0.1703
 4266TIP3    H134213   1.833   1.387   3.022 -0.7951  0.0761  0.1298
 4266TIP3    H234214   1.849   1.442   2.882 -0.7572 -2.0204 -0.7271
 4267TIP3   OH234215   5.528   6.215   2.617  0.0638  0.2280 -0.1138
 4267TIP3    H134216   5.575   6.143   2.659 -0.4170  0.0581  0.1453
 4267TIP3    H234217   5.492   6.177   2.537 -0.8157 -0.0264  0.3949
 4268TIP3   OH234218   4.685   4.976   5.800 -0.4865  0.1237  0.4024
 4268TIP3    H134219   4.611   5.021   5.760 -0.2160  0.5028  0.3200
 4268TIP3    H234220   4.752   5.044   5.810  0.1045 -0.3551 -0.1721
 4269TIP3   OH234221   4.499   4.151   4.361 -0.3391 -0.2906 -0.4023
 4269TIP3    H134222   4.412   4.130   4.394 -0.2272  0.5611  0.4646
 4269TIP3    H234223   4.542   4.066   4.351 -1.0727 -0.6797 -0.2976
 4270TIP3   OH234224   0.006   4.629  11.241  0.5335  0.1004 -0.0665
 4270TIP3    H134225   0.003   4.602  11.149  1.7261 -0.0690 -0.0666
 4270TIP3    H234226  -0.058   4.701  11.247  1.0816  0.7106 -1.2253
 4271TIP3   OH234227   0.674   5.866   0.230  0.0536 -0.5348  0.8239
 4271TIP3    H134228   0.607   5.840   0.293  0.3111  2.9182  2.7416
 4271TIP3    H234229   0.637   5.942   0.184  1.0111 -1.2306 -1.2380
 4272TIP3   OH234230   4.424   3.364  16.238 -0.2898 -0.3465  0.6895
 4272TIP3    H134231   4.386   3.447  16.266  0.3229 -0.4592  1.9283
 4272TIP3    H234232   4.353   3.321  16.190 -1.3894 -0.0754  1.9888
 4273TIP3   OH234233   4.968   5.368  14.660  0.3545  0.0984 -0.8189
 4273TIP3    H134234   4.934   5.448  14.702  1.8460  0.8641 -0.9777
 4273TIP3    H234235   4.897   5.338  14.604 -0.7207  0.5679  0.2403
 4274TIP3   OH234236   3.349   3.947  16.129  0.2227 -0.1891 -0.2244
 4274TIP3    H134237   3.375   4.039  16.125 -0.9775  0.1291 -1.2579
 4274TIP3    H234238   3.395   3.905  16.057  1.8977 -0.7403  1.1012
 4275TIP3   OH234239   3.161   4.767   2.653  0.4732  0.8081  0.1003
 4275TIP3    H134240   3.126   4.735   2.570 -0.6130  0.5735  0.6411
 4275TIP3    H234241   3.191   4.856   2.634  2.3023 -0.0051 -1.0887
 4276TIP3   OH234242   6.109   1.378   0.234  0.5386  0.5404 -0.2062
 4276TIP3    H134243   6.083   1.410   0.320  1.4957  0.3705  0.1599
 4276TIP3    H234244   6.047   1.307   0.215  0.7302  0.1256  0.6566
 4277TIP3   OH234245   6.712   4.949  13.915  0.1590 -0.4307 -0.1110
 4277TIP3    H134246   6.742   4.951  14.005 -1.3669 -0.1721  0.4258
 4277TIP3    H234247   6.623   4.983  13.919  0.5774  1.0189 -1.9452
 4278TIP3   OH234248   4.168   2.143   1.419  0.0901 -0.3870 -0.0450
 4278TIP3    H134249   4.078   2.120   1.443 -0.4515 -0.5859 -2.0784
 4278TIP3    H234250   4.214   2.152   1.503 -2.1960  1.2975  1.1293
 4279TIP3   OH234251   6.504   6.489   3.707 -0.1627 -0.3228 -0.2253
 4279TIP3    H134252   6.495   6.444   3.623  1.2968  0.3399 -0.7623
 4279TIP3    H234253   6.595   6.475   3.733 -0.1805  0.7406  0.4934
 4280TIP3   OH234254   1.843   3.874   2.095  0.1992  0.2500  0.0694
 4280TIP3    H134255   1.938   3.871   2.081  0.4054 -1.0663  1.4747
 4280TIP3    H234256   1.822   3.967   2.103  1.4931  0.5180  0.4725
 4281TIP3   OH234257   3.243   5.898   2.994  0.3389 -0.1848  0.0589
 4281TIP3    H134258   3.327   5.888   3.039  0.7573  0.6599 -0.5231
 4281TIP3    H234259   3.213   5.986   3.018  0.1595 -0.0556 -0.6330
 4282TIP3   OH234260   4.092   3.970  14.756 -0.4766 -0.7561  0.3577
 4282TIP3    H134261   4.135   3.980  14.672 -1.6820 -0.5504 -0.2612
 4282TIP3    H234262   4.137   3.898  14.799  0.8640 -0.1499  0.0064
 4283TIP3   OH234263   0.795   4.180  11.132 -0.0521  0.0178 -0.5585
 4283TIP3    H134264   0.828   4.249  11.190 -0.4854 -0.2504  0.0176
 4283TIP3    H234265   0.724   4.221  11.084  0.6924  0.4160 -1.3528
 4284TIP3   OH234266   1.848   0.304  14.741 -0.1694 -0.2412  0.3923
 4284TIP3    H134267   1.766   0.352  14.727  0.2887  0.7770  1.0671
 4284TIP3    H234268   1.833   0.219  14.701 -1.3635  0.1228  0.0195
 4285TIP3   OH234269   4.782   2.298  15.806  0.0316  1.0869 -0.1666
 4285TIP3    H134270   4.853   2.242  15.775 -0.4800  0.3300 -0.0131
 4285TIP3    H234271   4.717   2.294  15.736  0.0601  1.6341 -0.2287
 4286TIP3   OH234272   2.830   5.099  12.314  0.1843  0.1542 -0.2985
 4286TIP3    H134273   2.749   5.139  12.346  0.6505  0.0301  1.1324
 4286TIP3    H234274   2.896   5.168  12.322  0.5621 -0.2506  0.2106
 4287TIP3   OH234275   6.474   4.461   3.866 -0.1208  0.0127  0.0336
 4287TIP3    H134276   6.381   4.484   3.872 -0.0206  0.3050  0.6166
 4287TIP3    H234277   6.485   4.426   3.778 -1.1525 -1.6591  0.5176
 4288TIP3   OH234278   0.344   0.280  14.377  0.5033 -0.7732  0.5210
 4288TIP3    H134279   0.343   0.313  14.467  0.2971 -0.8978  0.5658
 4288TIP3    H234280   0.427   0.234  14.370 -0.1842 -2.2176  1.1962
 4289TIP3   OH234281   3.104   3.609   2.066 -0.0087 -0.3861  0.4920
 4289TIP3    H134282   3.019   3.579   2.032 -1.0723  2.6206  0.1894
 4289TIP3    H234283   3.161   3.613   1.990 -1.2153  2.4778 -0.4076
 4290TIP3   OH234284   0.389   4.505  12.823  0.5001 -0.0182 -0.5680
 4290TIP3    H134285   0.423   4.478  12.738 -0.8253  1.1039 -1.4986
 4290TIP3    H234286   0.428   4.592  12.838  0.5456 -0.1095 -0.1165
 4291TIP3   OH234287   5.750   6.737   3.476  0.6457 -0.0846  0.1051
 4291TIP3    H134288   5.670   6.779   3.444  1.1531 -0.0708 -1.1959
 4291TIP3    H234289   5.731   6.643   3.468  1.3709 -0.1125 -1.9463
 4292TIP3   OH234290   3.895   3.523   5.818 -0.0258 -0.2489  0.1475
 4292TIP3    H134291   3.834   3.595   5.804 -0.4191 -0.4635  0.7505
 4292TIP3    H234292   3.982   3.564   5.812 -0.2060 -0.0076 -1.0446
 4293TIP3   OH234293   4.206   5.400  14.737  0.3773 -0.2222 -0.3627
 4293TIP3    H134294   4.275   5.337  14.717  1.4154  1.0184 -0.8628
 4293TIP3    H234295   4.149   5.400  14.659 -0.3212 -1.3720  0.1207
 4294TIP3   OH234296   2.352   2.846  15.168 -0.4575 -0.2737  0.1506
 4294TIP3    H134297   2.375   2.805  15.085  0.5184  1.2187 -0.3632
 4294TIP3    H234298   2.436   2.866  15.210 -0.7547  2.5935 -0.3869
 4295TIP3   OH234299   5.199   3.595   3.113  0.1739 -0.4702 -0.3102
 4295TIP3    H134300   5.137   3.652   3.067 -0.9987  0.9842  2.7432
 4295TIP3    H234301   5.157   3.509   3.113 -0.6425 -0.0797 -0.4813
 4296TIP3   OH234302   1.928   1.864  13.824  0.0043  0.5753  0.1193
 4296TIP3    H134303   2.021   1.861  13.801 -0.4568 -2.5045 -1.9399
 4296TIP3    H234304   1.922   1.814  13.905 -0.0026 -0.5870 -0.5806
 4297TIP3   OH234305   6.058   2.135   1.275  0.6789  0.7693 -0.2951
 4297TIP3    H134306   6.143   2.092   1.262  0.2029 -1.2964  2.4025
 4297TIP3    H234307   5.994   2.068   1.251 -0.2201  2.1349 -1.8224
 4298TIP3   OH234308   2.163   0.563  13.228 -0.3602 -0.1879 -0.0783
 4298TIP3    H134309   2.233   0.510  13.266 -0.0668  1.8446  2.4983
 4298TIP3    H234310   2.206   0.643  13.198 -0.9266 -0.8847 -3.0632
 4299TIP3   OH234311   6.460   5.120  16.299 -0.1159 -0.2540 -0.0929
 4299TIP3    H134312   6.382   5.172  16.279 -0.1134 -0.7965 -1.7022
 4299TIP3    H234313   6.512   5.125  16.219  1.1056 -0.5986  0.6631
 4300TIP3   OH234314   0.036   2.256  13.784  0.3171 -0.0373  0.0817
 4300TIP3    H134315   0.092   2.254  13.706  0.1048  0.4294 -0.0862
 4300TIP3    H234316  -0.053   2.269  13.750  0.0741 -0.9290  0.3376
 4301TIP3   OH234317   0.028   6.440   0.692 -0.0970 -0.3484  0.9208
 4301TIP3    H134318   0.083   6.449   0.769  0.3516 -0.6681  0.6449
 4301TIP3    H234319   0.089   6.450   0.618 -0.5474  0.1341  0.6099
 4302TIP3   OH234320   1.110   0.892  11.914  0.5138 -0.0729  0.2439
 4302TIP3    H134321   1.114   0.868  12.007 -0.2594 -1.3730 -0.0314
 4302TIP3    H234322   1.119   0.987  11.914 -0.6068  0.0734  1.7423
 4303TIP3   OH234323   5.932   6.468   1.784 -0.3971  0.3127  0.6104
 4303TIP3    H134324   5.932   6.495   1.876  1.4226  0.1330  0.6975
 4303TIP3    H234325   5.886   6.539   1.739  1.1509  1.8515  1.3091
 4304TIP3   OH234326   6.259   0.660   2.326 -0.0664 -0.0317  0.1726
 4304TIP3    H134327   6.189   0.595   2.325  0.2799 -0.4242  0.6861
 4304TIP3    H234328   6.237   0.719   2.397 -0.3957  0.4326 -0.3125
 4305TIP3   OH234329   2.928   2.486  16.291 -0.0644  0.6252  0.1226
 4305TIP3    H134330   2.906   2.472  16.199 -0.0047  3.0636 -0.3462
 4305TIP3    H234331   3.007   2.540  16.288  1.8707 -1.8740  1.6990
 4306TIP3   OH234332   6.505   5.256   4.297  0.0730 -0.3406  0.2811
 4306TIP3    H134333   6.540   5.258   4.208  1.2178  1.1366  0.7241
 4306TIP3    H234334   6.553   5.185   4.340  0.3616 -0.2971  0.0381
 4307TIP3   OH234335   2.830   0.042   0.246  0.6179 -0.1200  0.7158
 4307TIP3    H134336   2.866  -0.001   0.169 -1.0209 -0.4436  0.0969
 4307TIP3    H234337   2.862  -0.010   0.320 -3.6195 -4.5822 -0.0424
 4308TIP3   OH234338   3.161   3.296  17.102  0.5556  0.3325 -0.3774
 4308TIP3    H134339   3.101   3.222  17.100 -0.5127  1.0757  1.5657
 4308TIP3    H234340   3.115   3.366  17.057  0.8552  0.3026 -0.7324
 4309TIP3   OH234341   5.159   5.008  13.205  0.4990  0.0230  0.1286
 4309TIP3    H134342   5.239   5.008  13.153 -0.0638  1.6788 -0.7922
 4309TIP3    H234343   5.189   5.017  13.296  1.3896 -0.5248 -0.1017
 4310TIP3   OH234344   2.123   6.364  14.473 -0.4129 -0.2310 -0.0851
 4310TIP3    H134345   2.212   6.383  14.502 -1.2417  2.1964  1.1201
 4310TIP3    H234346   2.094   6.293  14.530  0.4036 -0.3506  0.1942
 4311TIP3   OH234347   1.246   1.712  15.372  0.3827  0.4296 -0.2032
 4311TIP3    H134348   1.326   1.700  15.321 -0.3401  0.2285 -1.3207
 4311TIP3    H234349   1.269   1.680  15.460  1.5532  0.4793 -0.4719
 4312TIP3   OH234350   5.889   4.829   4.994 -0.2095 -0.0380  0.0442
 4312TIP3    H134351   5.835   4.768   5.045 -0.9310  0.7339  0.2272
 4312TIP3    H234352   5.916   4.778   4.918 -1.3115 -0.4202 -0.1150
 4313TIP3   OH234353   0.701   0.873  12.813  0.2921 -0.2050 -0.1169
 4313TIP3    H134354   0.712   0.968  12.808  1.2073 -0.1979  1.4655
 4313TIP3    H234355   0.618   0.856  12.769  1.1793  1.0559 -2.4501
 4314TIP3   OH234356   2.097   0.741   3.309 -0.1729 -0.1121 -0.4615
 4314TIP3    H134357   2.091   0.760   3.215 -1.8928  1.9547 -0.0315
 4314TIP3    H234358   2.032   0.800   3.349  0.1242 -1.3203  1.9788
 4315TIP3   OH234359   5.580   6.491   2.361 -0.1859  0.3407 -0.1437
 4315TIP3    H134360   5.509   6.516   2.302 -0.7990 -0.3604  0.2706
 4315TIP3    H234361   5.627   6.572   2.378 -0.5766  0.7218 -0.8414
 4316TIP3   OH234362   0.856   4.280   4.173 -0.1540  0.4558  0.8746
 4316TIP3    H134363   0.832   4.196   4.134  0.3034  0.9227 -0.4300
 4316TIP3    H234364   0.781   4.337   4.154 -2.1193 -0.4697  4.7383
 4317TIP3   OH234365   1.538   4.222  13.461 -0.1906 -0.0250  0.7294
 4317TIP3    H134366   1.569   4.137  13.430 -0.5320  0.6536 -1.6288
 4317TIP3    H234367   1.589   4.238  13.541  0.1582 -2.2292  1.0317
 4318TIP3   OH234368   4.894   3.539  13.454  0.1681 -0.1024 -0.0823
 4318TIP3    H134369   4.824   3.490  13.409  0.1889  0.1971 -0.4521
 4318TIP3    H234370   4.934   3.591  13.384 -1.6739  2.6044  0.7173
 4319TIP3   OH234371   1.201   5.211   2.925 -0.2928 -0.0005 -0.2225
 4319TIP3    H134372   1.173   5.286   2.871 -0.9362  0.6282  0.9479
 4319TIP3    H234373   1.248   5.250   2.998  2.1866 -0.9468 -1.2013
 4320TIP3   OH234374   0.504   3.895  16.160  0.0087  0.1510 -0.4766
 4320TIP3    H134375   0.473   3.976  16.121 -3.1556 -0.6567  0.0970
 4320TIP3    H234376   0.526   3.918  16.250 -0.1588  0.5320 -0.5340
 4321TIP3   OH234377   5.250   0.274   4.983 -0.1777  0.1602  0.7968
 4321TIP3    H134378   5.232   0.294   4.891 -1.4543  0.2761  1.0445
 4321TIP3    H234379   5.334   0.314   5.001  0.4923 -0.5682 -0.5438
 4322TIP3   OH234380   1.713   4.866  17.017  0.3698  0.6152 -0.1003
 4322TIP3    H134381   1.697   4.959  17.005  0.6393  0.6370 -0.3006
 4322TIP3    H234382   1.749   4.858  17.105  0.1608  0.6759 -0.0085
 4323TIP3   OH234383   3.643   6.046   2.813 -0.0581  0.4513 -0.4522
 4323TIP3    H134384   3.700   6.063   2.888 -1.7286 -0.8701  1.2004
 4323TIP3    H234385   3.565   6.098   2.830 -0.5513 -0.0265 -1.1886
 4324TIP3   OH234386   1.517   2.190   2.791  0.3182  0.3688 -0.5857
 4324TIP3    H134387   1.459   2.157   2.722  2.2963 -1.1049 -1.6471
 4324TIP3    H234388   1.605   2.164   2.763  1.5092  2.3268  1.0518
 4325TIP3   OH234389   6.260   3.687   3.679 -0.0138  0.1843  0.1002
 4325TIP3    H134390   6.262   3.734   3.762 -3.3237 -1.2415  1.1195
 4325TIP3    H234391   6.285   3.753   3.614  0.6734  1.8707  1.9616
 4326TIP3   OH234392   6.395   5.052   4.788  0.6836  0.1701  0.0982
 4326TIP3    H134393   6.380   5.146   4.781  0.5001  0.0587 -1.3794
 4326TIP3    H234394   6.482   5.044   4.826  2.0087  1.0295 -2.5164
 4327TIP3   OH234395   4.674   4.459  15.116 -0.1401 -0.5137 -0.5023
 4327TIP3    H134396   4.636   4.452  15.204  0.9976  1.0359  0.1591
 4327TIP3    H234397   4.616   4.519  15.070  0.1934  0.0005 -0.2566
 4328TIP3   OH234398   0.447   2.823   1.507  0.1249  0.3037  0.3189
 4328TIP3    H134399   0.485   2.744   1.470  0.3392  0.5644 -0.0233
 4328TIP3    H234400   0.393   2.792   1.580 -0.2569 -0.2059 -0.1716
 4329TIP3   OH234401   0.367   2.922  13.692 -0.7522  0.0604 -0.1963
 4329TIP3    H134402   0.434   2.886  13.751 -1.4372  1.1587  1.2899
 4329TIP3    H234403   0.383   3.016  13.693 -1.4710  0.1933 -0.9220
 4330TIP3   OH234404   3.853   6.028  12.972  0.9322  0.0385 -0.0819
 4330TIP3    H134405   3.920   6.023  12.904 -0.6596  1.1914 -1.8161
 4330TIP3    H234406   3.892   6.082  13.040  2.6513 -1.3468  0.1140
 4331TIP3   OH234407   2.944   4.009   2.606  0.4321 -0.4809 -0.0883
 4331TIP3    H134408   2.903   3.925   2.624 -0.0685 -0.1181  0.4726
 4331TIP3    H234409   3.013   3.988   2.542 -1.8028 -0.8168 -2.5793
 4332TIP3   OH234410   6.032   3.118   0.836 -0.0311 -0.2267 -0.3600
 4332TIP3    H134411   6.036   3.022   0.834  0.1444 -0.2105 -1.1274
 4332TIP3    H234412   6.113   3.144   0.880  0.5577 -0.4024 -1.3140
 4333TIP3   OH234413   1.858   5.406  11.204  0.0649  0.3247  0.1389
 4333TIP3    H134414   1.782   5.465  11.197 -1.3706 -1.2469  1.4845
 4333TIP3    H234415   1.875   5.401  11.298 -2.5670 -4.4832  0.6682
 4334TIP3   OH234416   1.861   1.110  16.484  0.2666 -0.1542  0.7579
 4334TIP3    H134417   1.804   1.185  16.468 -0.0840 -0.6267 -0.2927
 4334TIP3    H234418   1.844   1.050  16.411  2.4166 -0.1317  0.1605
 4335TIP3   OH234419   1.677   4.226   4.518 -0.3910  0.4716  0.3146
 4335TIP3    H134420   1.763   4.191   4.493 -0.3725  1.1622 -0.6730
 4335TIP3    H234421   1.626   4.224   4.437 -0.8496  1.3489  0.5721
 4336TIP3   OH234422   3.206   5.083  13.798 -0.2421 -0.0253  0.0278
 4336TIP3    H134423   3.219   5.114  13.709 -0.1209  3.0355  0.9935
 4336TIP3    H234424   3.284   5.029  13.817  0.6023  0.7467 -1.1330
 4337TIP3   OH234425   1.500   1.708  15.253  0.2573 -0.3610 -0.2165
 4337TIP3    H134426   1.593   1.723  15.270 -0.3312  1.1665  2.0908
 4337TIP3    H234427   1.481   1.759  15.175  0.9391  1.0957  0.5342
 4338TIP3   OH234428   4.084   5.679   0.420 -0.2911 -0.7009 -0.1433
 4338TIP3    H134429   4.076   5.649   0.510  1.7104 -0.3496  0.1917
 4338TIP3    H234430   4.175   5.663   0.397 -0.8664 -1.3376 -2.3280
 4339TIP3   OH234431   0.173   6.378   4.751  0.0095 -0.2857  0.5340
 4339TIP3    H134432   0.192   6.431   4.829 -0.1039 -0.4216  0.6532
 4339TIP3    H234433   0.149   6.443   4.684 -0.3812 -0.1995  0.7515
 4340TIP3   OH234434   0.469   2.484   2.729  0.2738 -0.9402 -0.2379
 4340TIP3    H134435   0.557   2.481   2.692  0.2015 -0.6513 -0.4378
 4340TIP3    H234436   0.481   2.525   2.815 -0.0521  2.0448 -1.4997
 4341TIP3   OH234437   1.748   5.738   4.757  0.1966 -0.0658 -0.2542
 4341TIP3    H134438   1.679   5.804   4.754 -0.3469 -0.6572 -1.2973
 4341TIP3    H234439   1.723   5.681   4.830 -0.6854 -0.5373 -0.9065
 4342TIP3   OH234440   4.247   5.182   2.723 -0.0299 -0.1497 -0.2382
 4342TIP3    H134441   4.261   5.192   2.817  1.5657  0.8569 -0.5456
 4342TIP3    H234442   4.209   5.094   2.714  1.2956 -0.9368  1.2162
 4343TIP3   OH234443   2.839   6.052   0.229 -0.3980  0.0404 -0.4427
 4343TIP3    H134444   2.932   6.033   0.238 -0.9047 -2.1271  0.8847
 4343TIP3    H234445   2.836   6.145   0.204  2.0707  0.4247  0.4201
 4344TIP3   OH234446   4.737   4.057  13.018 -0.1726  0.2705  0.2042
 4344TIP3    H134447   4.746   4.076  12.924 -0.0048 -0.1471  0.1354
 4344TIP3    H234448   4.643   4.053  13.032 -0.2788  2.2738  0.4512
 4345TIP3   OH234449   6.425   4.366   3.286 -0.1212 -0.0876 -0.4885
 4345TIP3    H134450   6.500   4.307   3.272 -0.6116 -0.5380 -1.2640
 4345TIP3    H234451   6.352   4.307   3.303 -0.3176  0.3523  0.2187
 4346TIP3   OH234452   5.440   0.704  15.116 -0.5751 -0.2601 -0.1384
 4346TIP3    H134453   5.519   0.708  15.062 -0.5003  1.4199  0.0257
 4346TIP3    H234454   5.473   0.688  15.205 -0.3323  0.9598  0.0177
 4347TIP3   OH234455   0.924   1.686  12.143 -0.1976 -0.2188 -0.5632
 4347TIP3    H134456   0.897   1.762  12.194  0.7429  0.4390 -0.9984
 4347TIP3    H234457   1.004   1.655  12.187 -0.8158 -1.2379 -0.1309
 4348TIP3   OH234458   0.284   6.123  17.011 -0.2463 -0.0984 -0.1745
 4348TIP3    H134459   0.378   6.138  17.020 -0.2870 -0.2917  0.7117
 4348TIP3    H234460   0.267   6.045  17.064 -0.6402 -1.0729 -1.6685
 4349TIP3   OH234461   5.956   1.491   5.129 -0.2633  0.2348  0.2887
 4349TIP3    H134462   5.893   1.496   5.201 -0.9417  0.4031 -0.2953
 4349TIP3    H234463   6.040   1.514   5.168 -0.9678  2.6709  0.5732
 4350TIP3   OH234464   1.678   3.790   2.665 -0.1150  0.0262  0.1579
 4350TIP3    H134465   1.750   3.823   2.610  0.1112  0.6650  0.8265
 4350TIP3    H234466   1.718   3.722   2.719  0.1346  0.7774  0.9380
 4351TIP3   OH234467   5.377   4.277   4.235 -0.1713  1.0024  0.6518
 4351TIP3    H134468   5.420   4.275   4.320  2.1400  1.8074 -0.4125
 4351TIP3    H234469   5.436   4.228   4.178 -0.8845  1.7891 -0.8165
 4352TIP3   OH234470   4.869   2.388  14.937  0.5677  0.7593  0.1396
 4352TIP3    H134471   4.790   2.383  14.884  0.9937 -1.9906 -0.3558
 4352TIP3    H234472   4.927   2.446  14.888 -0.3329  1.0775 -0.5796
 4353TIP3   OH234473   6.505   3.666  13.090 -0.5174 -0.0253 -1.2007
 4353TIP3    H134474   6.477   3.732  13.153  1.4046 -1.2134  1.0536
 4353TIP3    H234475   6.557   3.715  13.026 -1.5706  1.0494 -1.2665
 4354TIP3   OH234476   4.595   0.520  14.628 -0.1907 -0.4801 -0.0200
 4354TIP3    H134477   4.576   0.460  14.556  1.0436 -0.7753 -0.1328
 4354TIP3    H234478   4.682   0.494  14.658  0.5496  1.4667 -0.3095
 4355TIP3   OH234479   2.436   3.847  17.108 -0.1628  0.6151  0.2120
 4355TIP3    H134480   2.391   3.791  17.045  0.9798 -0.2127  0.1058
 4355TIP3    H234481   2.369   3.869  17.173 -1.1393  0.8030 -0.8326
 4356TIP3   OH234482   5.034   5.417  11.507 -0.2806 -0.5837 -0.3835
 4356TIP3    H134483   4.963   5.411  11.571  0.6884  0.2997  0.8255
 4356TIP3    H234484   5.012   5.493  11.454 -2.0791 -2.3875 -2.4613
 4357TIP3   OH234485   4.924   0.487  16.613 -0.0571 -0.2342  0.0172
 4357TIP3    H134486   4.867   0.455  16.544 -1.1068 -0.6941  1.0644
 4357TIP3    H234487   4.996   0.530  16.567  0.3461 -2.2926 -1.3961
 4358TIP3   OH234488   3.544   3.358  14.515 -0.3024  0.0182  0.2697
 4358TIP3    H134489   3.573   3.280  14.562  0.1897 -0.8658 -1.3925
 4358TIP3    H234490   3.519   3.325  14.428  0.7155  1.7839 -0.7627
 4359TIP3   OH234491   3.820   5.428   5.216 -0.3825 -0.2653 -0.4605
 4359TIP3    H134492   3.737   5.416   5.263 -0.3304 -0.7938 -0.4983
 4359TIP3    H234493   3.810   5.511   5.170 -1.1331 -0.6397 -0.9742
 4360TIP3   OH234494   3.751   4.216  15.638 -0.0187  0.0944  0.6038
 4360TIP3    H134495   3.832   4.194  15.684  0.6135  0.5693 -0.2655
 4360TIP3    H234496   3.755   4.166  15.556 -1.4524 -1.2910  1.3076
 4361TIP3   OH234497   2.660   5.491   5.590  0.3778 -0.0788  0.1498
 4361TIP3    H134498   2.706   5.574   5.607  2.7091 -0.5457 -3.0045
 4361TIP3    H234499   2.575   5.518   5.554  1.3236  1.0153 -1.3627
 4362TIP3   OH234500   5.442   0.171  15.997 -0.4481 -0.1257 -0.6609
 4362TIP3    H134501   5.397   0.119  16.064 -2.2807 -0.6873 -2.2314
 4362TIP3    H234502   5.512   0.216  16.044 -2.1317  0.1072  1.7667
 4363TIP3   OH234503   4.823   1.357   1.085  0.7551 -0.0876  0.0138
 4363TIP3    H134504   4.749   1.417   1.090  0.5447 -0.2923 -0.5546
 4363TIP3    H234505   4.811   1.298   1.160  0.9721  0.5832  0.5767
 4364TIP3   OH234506   2.907   2.614   3.728 -0.1925  0.1832  0.2182
 4364TIP3    H134507   2.971   2.648   3.791 -0.5421  1.5030 -0.1245
 4364TIP3    H234508   2.888   2.687   3.670 -1.8242 -0.2507  0.1479
 4365TIP3   OH234509   5.997   2.825  13.152 -0.1068  0.2861 -0.3216
 4365TIP3    H134510   6.070   2.830  13.089  0.2793 -2.0339 -0.1293
 4365TIP3    H234511   6.039   2.811  13.236 -0.7428 -1.7583 -0.2978
 4366TIP3   OH234512   5.332   2.498   1.296  0.0001 -0.2469 -0.1632
 4366TIP3    H134513   5.355   2.425   1.238  1.4614  0.2250 -0.2255
 4366TIP3    H234514   5.402   2.562   1.282  2.0465 -1.1955  4.0253
 4367TIP3   OH234515   2.127   1.692  15.727  0.3319  0.6168 -0.0422
 4367TIP3    H134516   2.115   1.665  15.636 -0.1398 -0.5050  0.3413
 4367TIP3    H234517   2.219   1.720  15.731  1.0234 -1.4538 -0.3485
 4368TIP3   OH234518   3.776   3.405   4.771  0.1563 -0.3866  0.1527
 4368TIP3    H134519   3.722   3.387   4.694  0.6512 -0.3167 -0.2199
 4368TIP3    H234520   3.861   3.364   4.751  0.3639 -0.1556  0.5509
 4369TIP3   OH234521   2.848   0.125  10.290  0.0477 -0.2126 -0.4939
 4369TIP3    H134522   2.835   0.194  10.355  0.7560  1.8267 -2.3708
 4369TIP3    H234523   2.762   0.115  10.248 -0.0420 -0.4517 -0.2572
 4370TIP3   OH234524   0.554   4.157  14.615  0.5612  0.6560 -0.2153
 4370TIP3    H134525   0.497   4.081  14.598  1.2318 -0.2514  1.4373
 4370TIP3    H234526   0.595   4.138  14.699  1.4847  2.4291 -0.2312
 4371TIP3   OH234527   0.149   2.817  13.562 -0.2892  0.8637  0.6838
 4371TIP3    H134528   0.203   2.851  13.634 -0.2695  2.5863 -0.0958
 4371TIP3    H234529   0.209   2.762  13.512  0.3008  1.3946  0.7885
 4372TIP3   OH234530   2.709   6.333   0.608 -0.6403 -0.0333  0.5764
 4372TIP3    H134531   2.641   6.266   0.609  0.5779 -1.3005  1.6543
 4372TIP3    H234532   2.674   6.400   0.549 -2.6486 -0.7942  0.7934
 4373TIP3   OH234533   5.091   3.070   6.093 -0.0967  0.3590  0.2884
 4373TIP3    H134534   5.095   2.974   6.090  1.6261  0.4119 -0.2413
 4373TIP3    H234535   5.147   3.094   6.167  1.1566  1.0118 -0.8401
 4374TIP3   OH234536   3.805   1.638   3.729 -0.1222  0.0980 -0.6175
 4374TIP3    H134537   3.896   1.666   3.730 -0.0962  0.1448 -1.8270
 4374TIP3    H234538   3.755   1.719   3.715 -0.3450  0.0714  0.0229
 4375TIP3   OH234539   6.438   5.821   5.880  0.4162 -0.7456 -0.0499
 4375TIP3    H134540   6.373   5.810   5.811  0.1490  1.2329 -0.1628
 4375TIP3    H234541   6.436   5.738   5.928 -1.4792 -1.0892 -0.6320
 4376TIP3   OH234542   2.797   1.238   1.107 -0.5127  0.8978 -0.3373
 4376TIP3    H134543   2.865   1.304   1.115 -0.6717  1.2319 -1.5406
 4376TIP3    H234544   2.842   1.160   1.074 -0.7224  1.1645 -1.2793
 4377TIP3   OH234545   2.949   5.145  14.097 -0.5860  0.2985 -0.2423
 4377TIP3    H134546   2.868   5.124  14.050 -0.8726  0.6748  0.0693
 4377TIP3    H234547   2.920   5.203  14.167  0.2241  2.1247 -1.3470
 4378TIP3   OH234548   1.359   2.492   6.441  0.0033  0.0690  0.9804
 4378TIP3    H134549   1.331   2.401   6.426  0.9770 -0.5807  2.8401
 4378TIP3    H234550   1.277   2.541   6.453 -0.6210 -0.1822 -1.6903
 4379TIP3   OH234551   0.797   3.573   0.295  0.2518  0.7811  0.5344
 4379TIP3    H134552   0.809   3.648   0.236 -0.6942  0.7260  0.2654
 4379TIP3    H234553   0.798   3.612   0.383  1.2222  0.9166  0.4819
 4380TIP3   OH234554   3.478   3.374   2.466  0.7774  0.5931 -0.2083
 4380TIP3    H134555   3.559   3.328   2.484  1.7006  1.9184 -0.8151
 4380TIP3    H234556   3.440   3.328   2.390  1.3667  0.4589 -0.4256
 4381TIP3   OH234557   4.624   3.849  13.688 -0.0536  0.2707 -0.2504
 4381TIP3    H134558   4.685   3.906  13.640 -0.8341  0.3387 -1.1855
 4381TIP3    H234559   4.662   3.761  13.679  0.5110  0.4723  0.1504
 4382TIP3   OH234560   3.999   3.245  17.312 -0.2094  0.4273 -0.8279
 4382TIP3    H134561   3.912   3.281  17.291 -0.6196 -0.2819 -0.3897
 4382TIP3    H234562   4.031   3.209  17.230 -0.0701  1.2201 -1.1258
 4383TIP3   OH234563   1.386   0.574  15.876 -0.2612 -0.0136 -0.3479
 4383TIP3    H134564   1.460   0.522  15.844 -0.1343  0.6501 -1.1608
 4383TIP3    H234565   1.308   0.527  15.846 -0.1535  0.9982 -2.3982
 4384TIP3   OH234566   5.778   6.259   3.917  0.0296 -0.5333  0.0135
 4384TIP3    H134567   5.749   6.327   3.856 -1.2439 -0.4387  0.6841
 4384TIP3    H234568   5.857   6.295   3.957  0.3936 -0.2375 -0.9443
 4385TIP3   OH234569   5.842   1.660   3.318  0.2076 -0.0727  0.6215
 4385TIP3    H134570   5.843   1.627   3.407  0.5620 -0.6992  0.3892
 4385TIP3    H234571   5.922   1.626   3.278 -0.8791 -1.4456 -0.5074
 4386TIP3   OH234572   1.914   3.077   3.801 -0.2312  0.1491 -0.3846
 4386TIP3    H134573   1.888   3.053   3.712 -1.2086 -0.5997  0.0687
 4386TIP3    H234574   1.989   3.135   3.790 -0.5294  0.3198 -1.7019
 4387TIP3   OH234575   1.544   5.219   5.868  0.2141  0.1662 -0.2086
 4387TIP3    H134576   1.536   5.291   5.805 -2.0575 -0.6127 -0.8979
 4387TIP3    H234577   1.479   5.239   5.935  0.9540 -0.2472  0.6486
 4388TIP3   OH234578   4.337   5.144   4.545 -0.3296 -0.2282  0.3914
 4388TIP3    H134579   4.297   5.058   4.542  0.7641 -0.7511  0.0972
 4388TIP3    H234580   4.273   5.203   4.505 -0.4536 -1.1796 -0.8825
 4389TIP3   OH234581   4.367   0.375  11.344  0.3443 -0.0883 -0.3172
 4389TIP3    H134582   4.309   0.426  11.401 -0.5712 -1.0474 -0.3582
 4389TIP3    H234583   4.427   0.440  11.307 -0.7822  0.9668 -0.3607
 4390TIP3   OH234584   3.209   0.598   2.581 -0.2765  0.2042  0.6948
 4390TIP3    H134585   3.197   0.692   2.587 -0.7035  0.2156 -0.1593
 4390TIP3    H234586   3.133   0.560   2.626 -0.0601  0.2645  1.1128
 4391TIP3   OH234587   2.237   5.282  12.126 -0.2451  0.5834 -0.1110
 4391TIP3    H134588   2.205   5.197  12.099 -0.2490 -0.6312  3.2228
 4391TIP3    H234589   2.250   5.331  12.044  1.4577 -3.1365 -2.3235
 4392TIP3   OH234590   1.178   2.582   3.179  0.0037 -0.6237 -0.4359
 4392TIP3    H134591   1.107   2.644   3.196  1.7022  1.0940  0.7837
 4392TIP3    H234592   1.134   2.504   3.145 -2.3891  0.5806 -0.3054
 4393TIP3   OH234593   4.553   2.012  16.804  0.1564 -0.3070  0.2295
 4393TIP3    H134594   4.604   2.038  16.881  0.5197  2.1685 -0.7728
 4393TIP3    H234595   4.462   2.030  16.829  0.3236  1.1249 -0.0854
 4394TIP3   OH234596   2.773   5.559  15.111 -0.2438 -0.1926  0.5227
 4394TIP3    H134597   2.847   5.564  15.051 -0.3482 -0.8638  0.3202
 4394TIP3    H234598   2.806   5.592  15.194  1.0974 -2.8431  1.1740
 4395TIP3   OH234599   2.508   3.384   3.330  0.0740  0.3910 -0.0504
 4395TIP3    H134600   2.541   3.304   3.372  0.6823  0.4264 -0.4491
 4395TIP3    H234601   2.512   3.450   3.399 -1.5757 -0.1720  0.6521
 4396TIP3   OH234602   0.327   0.456   0.523  0.6840 -0.4043 -0.4842
 4396TIP3    H134603   0.296   0.542   0.552  2.9822 -0.4951  2.8864
 4396TIP3    H234604   0.298   0.449   0.433 -3.6366  1.8961  0.4691
 4397TIP3   OH234605   0.272   3.316   5.196  0.3503  0.4832 -0.1924
 4397TIP3    H134606   0.241   3.254   5.262  0.2150  0.1864 -0.5287
 4397TIP3    H234607   0.196   3.329   5.138  0.7085  0.1000 -0.7636
 4398TIP3   OH234608   2.744   0.196  15.208 -0.2845  0.3728  0.0637
 4398TIP3    H134609   2.776   0.198  15.117  1.8677 -0.9519  0.7274
 4398TIP3    H234610   2.651   0.220  15.201 -0.0213  0.9605 -2.3940
 4399TIP3   OH234611   4.020   4.498  12.556  0.1505 -0.3697 -0.4263
 4399TIP3    H134612   4.022   4.518  12.463  0.1059  0.7425 -0.2115
 4399TIP3    H234613   4.033   4.583  12.599 -0.0695 -0.8213  0.5809
 4400TIP3   OH234614   6.645   2.918   1.485  0.2848  0.2166 -0.0645
 4400TIP3    H134615   6.604   2.849   1.537  2.8147 -0.0787  1.6978
 4400TIP3    H234616   6.577   2.986   1.478 -1.9368 -1.9529 -1.0396
 4401TIP3   OH234617   0.784   5.626  12.594  0.0662  0.2950 -0.8893
 4401TIP3    H134618   0.835   5.550  12.567 -0.4305  0.6447 -2.9861
 4401TIP3    H234619   0.847   5.685  12.635  0.4098 -1.3292  1.0496
 4402TIP3   OH234620   5.769   5.824  14.680 -0.2040 -0.0695 -0.0831
 4402TIP3    H134621   5.864   5.814  14.685 -0.2692 -0.1815  1.1746
 4402TIP3    H234622   5.749   5.820  14.586  1.1057  0.6910 -0.4060
 4403TIP3   OH234623   3.834   1.384   6.063  0.1445  0.6486 -0.0132
 4403TIP3    H134624   3.806   1.298   6.095  1.1604  0.5772  0.7053
 4403TIP3    H234625   3.921   1.397   6.101  0.7711  1.2157 -1.5583
 4404TIP3   OH234626   5.241   3.254   1.522  0.7215 -0.3563  0.5438
 4404TIP3    H134627   5.184   3.207   1.582 -0.2883  1.2924  0.9296
 4404TIP3    H234628   5.290   3.315   1.577  0.9929  0.0138 -0.0935
 4405TIP3   OH234629   2.806   4.930   3.222 -0.1273  0.1631 -0.6868
 4405TIP3    H134630   2.847   5.008   3.184  2.6375 -1.2697 -0.8620
 4405TIP3    H234631   2.780   4.878   3.146  0.2476 -0.1662 -0.5903
 4406TIP3   OH234632   4.475   6.342  14.597 -0.2152  0.1638  0.1150
 4406TIP3    H134633   4.488   6.434  14.619 -1.3486  0.2214  0.6208
 4406TIP3    H234634   4.562   6.302  14.605  0.4354  1.3202 -0.8255
 4407TIP3   OH234635   6.201   0.372  13.558 -0.1010 -0.0160 -0.1721
 4407TIP3    H134636   6.258   0.414  13.493  0.8972 -1.5778 -0.3728
 4407TIP3    H234637   6.148   0.311  13.507 -0.3658 -0.1753  0.2926
 4408TIP3   OH234638   0.142   4.386  15.804  0.0625 -0.1625  0.1922
 4408TIP3    H134639   0.051   4.392  15.834 -0.2159 -0.9189 -0.4700
 4408TIP3    H234640   0.178   4.311  15.852  0.2895  0.0259  0.3187
 4409TIP3   OH234641   5.310   1.524  16.390 -0.1833  0.3073 -0.1187
 4409TIP3    H134642   5.260   1.508  16.310 -3.3558 -0.8526  1.8954
 4409TIP3    H234643   5.273   1.463  16.454  1.7292  1.6266  2.4456
 4410TIP3   OH234644   3.726   1.506  15.383  0.2379  0.0195 -0.0440
 4410TIP3    H134645   3.698   1.469  15.467 -0.5176 -0.3651 -0.4508
 4410TIP3    H234646   3.796   1.449  15.353  0.1693 -0.1368  0.0923
 4411TIP3   OH234647   4.041   6.698  11.415  0.3221 -0.4589 -0.1656
 4411TIP3    H134648   4.033   6.687  11.320 -0.5966 -0.8760 -0.0550
 4411TIP3    H234649   3.976   6.765  11.437  0.1137 -0.7853  0.2369
 4412TIP3   OH234650   2.370   4.288   3.244  0.1075 -0.0167  0.6447
 4412TIP3    H134651   2.413   4.226   3.302  0.8981  0.5792  0.7039
 4412TIP3    H234652   2.313   4.339   3.301 -1.0553 -1.0896  0.5037
 4413TIP3   OH234653   3.329   0.152  11.217  0.1968 -0.3325  0.0436
 4413TIP3    H134654   3.268   0.153  11.291  2.1253 -1.8722  1.7950
 4413TIP3    H234655   3.274   0.138  11.140 -1.7691 -0.1031  1.3344
 4414TIP3   OH234656   5.188   2.459   5.473  0.2737 -0.2445 -0.6898
 4414TIP3    H134657   5.243   2.445   5.550 -1.1771 -1.5314  0.1799
 4414TIP3    H234658   5.247   2.497   5.408  2.4089 -2.2390 -0.0780
 4415TIP3   OH234659   0.473   4.873   1.668  0.0050 -0.4941  0.9227
 4415TIP3    H134660   0.463   4.778   1.656 -2.4184 -0.3555  1.4031
 4415TIP3    H234661   0.441   4.912   1.587  0.1428 -0.0560  1.0758
 4416TIP3   OH234662   6.216   2.785   0.923  0.2826 -0.4280  0.0561
 4416TIP3    H134663   6.268   2.733   0.984  2.0624  0.2261 -0.8492
 4416TIP3    H234664   6.280   2.829   0.868 -1.2592 -1.1959 -2.4812
 4417TIP3   OH234665   1.462   0.473  14.194  0.0694  0.2020  0.0198
 4417TIP3    H134666   1.439   0.557  14.234  0.1930  0.5735 -0.6691
 4417TIP3    H234667   1.389   0.453  14.136  0.1555 -0.0401 -0.0062
 4418TIP3   OH234668   0.176   2.513  12.934 -0.4214  0.4699  0.4156
 4418TIP3    H134669   0.105   2.542  12.876  0.7389 -0.6898 -1.6839
 4418TIP3    H234670   0.213   2.594  12.969 -1.1224  1.2115 -0.5165
 4419TIP3   OH234671   3.852   2.094   1.219 -0.7627  0.1483  0.6202
 4419TIP3    H134672   3.912   2.162   1.189 -1.6109  1.3614  1.5568
 4419TIP3    H234673   3.766   2.136   1.219 -2.0473 -2.0850 -2.5296
 4420TIP3   OH234674   1.691   2.305  12.922 -0.2950 -0.1815  0.2053
 4420TIP3    H134675   1.644   2.349  12.852 -0.8297  0.8827  1.1908
 4420TIP3    H234676   1.645   2.222  12.935 -3.3454  1.6581  2.5158
 4421TIP3   OH234677   2.731   1.186  13.034 -0.2698 -0.0647 -0.3220
 4421TIP3    H134678   2.706   1.216  13.121  0.3454  0.7344 -0.4126
 4421TIP3    H234679   2.721   1.090  13.038  0.1826 -0.0793  0.7611
 4422TIP3   OH234680   1.231   5.968  13.244  0.3372 -0.0362 -0.7860
 4422TIP3    H134681   1.163   6.036  13.249 -0.0573 -0.4932  0.4457
 4422TIP3    H234682   1.182   5.886  13.245  0.9059 -0.3792  0.4471
 4423TIP3   OH234683   0.159   6.563  16.414 -0.4132 -0.1454  0.0069
 4423TIP3    H134684   0.074   6.592  16.381 -0.7717 -2.1102 -0.9564
 4423TIP3    H234685   0.144   6.547  16.507 -0.7829  0.5428  0.0748
 4424TIP3   OH234686   5.555   4.656  15.185 -0.1717 -0.4295  0.2725
 4424TIP3    H134687   5.476   4.695  15.224 -1.1935 -0.8240 -1.3210
 4424TIP3    H234688   5.528   4.569  15.158  0.4778 -0.1591 -1.3447
 4425TIP3   OH234689   0.819   4.933  16.782 -0.6157 -0.1632  0.2350
 4425TIP3    H134690   0.845   4.927  16.874  1.4446  0.1193 -0.2808
 4425TIP3    H234691   0.900   4.919  16.733 -1.3751  1.1118 -1.5095
 4426TIP3   OH234692   5.088   2.201  14.362  0.0807 -0.7296  0.3213
 4426TIP3    H134693   5.095   2.206  14.267  1.3160  1.8808  0.4555
 4426TIP3    H234694   5.179   2.202  14.392 -0.2756 -2.1543  1.5498
 4427TIP3   OH234695   3.719   5.134  13.797 -0.1025  0.3841 -0.1929
 4427TIP3    H134696   3.787   5.068  13.807 -1.8974 -1.5151  0.1558
 4427TIP3    H234697   3.714   5.176  13.884 -0.7333 -0.8902  0.4123
 4428TIP3   OH234698   0.257   2.592  11.082  0.1284  0.7369  0.2050
 4428TIP3    H134699   0.167   2.560  11.072 -0.4165  1.6862  1.6667
 4428TIP3    H234700   0.309   2.535  11.027 -1.3579  0.0663 -0.5691
 4429TIP3   OH234701   0.948   0.174  16.586  0.1604  0.1993  0.5785
 4429TIP3    H134702   1.016   0.130  16.535 -0.9311 -0.0631 -0.6985
 4429TIP3    H234703   0.980   0.264  16.595  0.4396  0.2196 -0.4663
 4430TIP3   OH234704   0.068   3.518   0.792 -0.1036  0.8350  0.5229
 4430TIP3    H134705   0.146   3.573   0.780 -0.3461  1.2848  0.9589
 4430TIP3    H234706   0.039   3.538   0.881  0.4209 -0.8080  1.0943
 4431TIP3   OH234707   4.955   3.559  16.812 -0.3414  0.7885 -0.0694
 4431TIP3    H134708   5.020   3.625  16.837 -2.2094  3.0783 -0.8423
 4431TIP3    H234709   4.915   3.533  16.894  1.1431 -0.2775  0.3638
 4432TIP3   OH234710   4.281   6.184  15.344  0.8973 -0.3756  0.0879
 4432TIP3    H134711   4.321   6.128  15.411  0.1201 -1.1469 -0.0778
 4432TIP3    H234712   4.199   6.140  15.322  0.4220  0.6634 -0.2835
 4433TIP3   OH234713   4.079   2.820   4.006  0.3856  0.4136  0.2966
 4433TIP3    H134714   3.990   2.799   3.977  0.6111  0.5158 -0.5093
 4433TIP3    H234715   4.083   2.916   4.000 -0.4658  0.7510  3.4192
 4434TIP3   OH234716   0.116   2.653  14.799  0.3496  0.8409 -0.2493
 4434TIP3    H134717   0.156   2.728  14.842  0.4571  0.4038  0.4262
 4434TIP3    H234718   0.089   2.596  14.870  2.2217 -0.7982 -0.7658
 4435TIP3   OH234719   5.260   5.627   5.675 -0.7640 -0.1975  0.3529
 4435TIP3    H134720   5.291   5.553   5.623  2.3061  0.0134  1.6733
 4435TIP3    H234721   5.254   5.699   5.612  1.0902 -0.3910 -0.0831
 4436TIP3   OH234722   5.599   2.615   2.229 -0.1077 -0.5491  0.5356
 4436TIP3    H134723   5.614   2.540   2.171 -1.8956 -0.8814  0.4521
 4436TIP3    H234724   5.667   2.677   2.204  0.8343 -1.7595 -0.0474
 4437TIP3   OH234725   6.184   0.917   2.091  0.0998 -0.1430 -0.5473
 4437TIP3    H134726   6.182   0.945   2.182  1.1647 -1.4761 -0.0770
 4437TIP3    H234727   6.097   0.938   2.057  0.0143  1.2705  0.4774
 4438TIP3   OH234728   3.569   3.529   6.272  0.5404 -0.0444 -0.7229
 4438TIP3    H134729   3.475   3.512   6.265  0.3619 -1.6279  2.8767
 4438TIP3    H234730   3.610   3.450   6.237  0.5220  0.3296 -1.6042
 4439TIP3   OH234731   1.615   4.837  13.241  0.1770  0.5214 -0.4279
 4439TIP3    H134732   1.531   4.798  13.217 -0.2619 -0.1029  1.8817
 4439TIP3    H234733   1.675   4.806  13.174 -1.0567 -0.5963 -1.0733
 4440TIP3   OH234734   5.634   0.104   4.893 -0.6904 -0.7560 -0.0609
 4440TIP3    H134735   5.643   0.010   4.904  0.3488 -0.8893 -1.6603
 4440TIP3    H234736   5.724   0.137   4.892 -1.0453  0.3049  0.7713
 4441TIP3   OH234737   0.104   1.295  13.542 -0.2116  0.4174 -0.2808
 4441TIP3    H134738   0.100   1.200  13.535  0.5685  0.4022 -0.6985
 4441TIP3    H234739   0.143   1.324  13.459  0.1255  1.0469  0.0820
 4442TIP3   OH234740   1.996   3.437   5.077 -0.3215 -0.2629  0.4491
 4442TIP3    H134741   2.062   3.379   5.039  2.9772  1.1065  3.5346
 4442TIP3    H234742   2.007   3.520   5.031 -0.0309 -0.0970  0.8141
 4443TIP3   OH234743   5.068   1.003  14.003 -0.3849 -0.1927  0.6192
 4443TIP3    H134744   5.160   1.026  14.004  0.1206 -1.8667 -1.3501
 4443TIP3    H234745   5.048   0.985  13.911 -1.9858 -2.2829  1.2800
 4444TIP3   OH234746   5.958   1.868   1.316  0.1698 -0.1551 -0.2278
 4444TIP3    H134747   5.934   1.889   1.407  0.3376  1.9929 -0.6227
 4444TIP3    H234748   5.999   1.782   1.322 -1.7398 -1.0498  1.4066
 4445TIP3   OH234749   4.180   1.445   3.382  0.2496 -0.2088 -0.2648
 4445TIP3    H134750   4.228   1.364   3.367  1.4837  0.6781 -1.3798
 4445TIP3    H234751   4.209   1.475   3.468 -1.4938 -1.7496  0.9411
 4446TIP3   OH234752   1.202   4.131   1.696  0.4030 -0.0217 -0.2089
 4446TIP3    H134753   1.206   4.079   1.615 -3.6776 -2.1788  0.7156
 4446TIP3    H234754   1.188   4.221   1.666 -2.8487 -0.9894 -2.0930
 4447TIP3   OH234755   1.569   2.395   3.507  0.2554  0.3010 -0.4663
 4447TIP3    H134756   1.547   2.387   3.414 -1.1726  0.3348 -0.1515
 4447TIP3    H234757   1.624   2.473   3.512 -0.7169  1.0630 -1.1262
 4448TIP3   OH234758   5.600   0.902  16.924 -0.0349 -0.6763  0.5364
 4448TIP3    H134759   5.637   0.823  16.886 -0.3255 -0.3249 -0.5165
 4448TIP3    H234760   5.587   0.881  17.016 -0.8752 -2.1326  0.1211
 4449TIP3   OH234761   0.630   4.279   4.890  0.3372  0.2142 -0.0589
 4449TIP3    H134762   0.600   4.188   4.892  1.3474 -0.1945 -1.7608
 4449TIP3    H234763   0.675   4.292   4.974  0.1859 -0.8583  0.1931
 4450TIP3   OH234764   4.230   6.089   6.379  0.1627  0.4565  0.0539
 4450TIP3    H134765   4.310   6.059   6.421  0.3473  1.4300  0.4414
 4450TIP3    H234766   4.218   6.178   6.412 -1.6247 -0.0153  0.7878
 4451TIP3   OH234767   0.789   4.666   1.692 -0.5798 -0.3449 -0.7799
 4451TIP3    H134768   0.823   4.583   1.727  0.4089  0.7528  1.0484
 4451TIP3    H234769   0.694   4.655   1.693 -0.5130 -1.0841  0.5094
 4452TIP3   OH234770   1.045   2.594  15.753 -0.1501  0.3057  0.3150
 4452TIP3    H134771   1.062   2.625  15.842 -1.6646  2.7317 -0.1293
 4452TIP3    H234772   1.126   2.613  15.705 -0.5357  2.5377  0.4047
 4453TIP3   OH234773   0.465   4.052   5.137 -0.1794  0.1895 -0.2988
 4453TIP3    H134774   0.479   4.133   5.187  1.6504 -0.9077  1.0797
 4453TIP3    H234775   0.409   3.999   5.194  0.7713 -0.5170  0.0034
 4454TIP3   OH234776   1.405   4.716  13.074 -0.1075 -0.2264  0.2404
 4454TIP3    H134777   1.389   4.622  13.083 -1.9051  0.0648  0.4313
 4454TIP3    H234778   1.435   4.727  12.984 -0.3827 -0.9214  0.0586
 4455TIP3   OH234779   6.029   2.659  12.443 -0.3837  0.1214 -0.0037
 4455TIP3    H134780   5.954   2.718  12.442 -0.3517  0.1743 -1.7506
 4455TIP3    H234781   6.003   2.585  12.389  0.4772 -0.3161  0.1593
 4456TIP3   OH234782   4.115   1.051   3.178 -0.1605  0.2578  0.3370
 4456TIP3    H134783   4.060   1.121   3.143 -0.4724 -0.6421 -1.0834
 4456TIP3    H234784   4.055   0.994   3.224 -0.0615  0.4146  0.6615
 4457TIP3   OH234785   5.684   4.908   5.661  0.1993 -0.1398  0.5380
 4457TIP3    H134786   5.671   4.929   5.568  2.9080 -1.6585 -0.2758
 4457TIP3    H234787   5.595   4.894   5.694 -1.0090  2.4014 -1.2677
 4458TIP3   OH234788   1.595   0.359  11.482 -0.1963 -0.0489 -0.0180
 4458TIP3    H134789   1.645   0.357  11.400 -0.4690 -0.0625 -0.1833
 4458TIP3    H234790   1.624   0.280  11.529  1.0754  0.7298  0.5661
 4459TIP3   OH234791   2.454   1.947  12.048  0.3001  0.6383  0.2419
 4459TIP3    H134792   2.499   1.934  11.964  2.5368  0.4385  1.3948
 4459TIP3    H234793   2.438   1.859  12.080  1.1054  0.6871  0.8181
 4460TIP3   OH234794   2.415   6.086  14.512  0.2371 -0.3918 -0.4499
 4460TIP3    H134795   2.474   6.026  14.558 -0.1555 -0.2148  0.2965
 4460TIP3    H234796   2.411   6.051  14.423  0.3773 -1.2110 -0.1447
 4461TIP3   OH234797   2.132   3.363  14.187  0.2699  0.5242  0.1129
 4461TIP3    H134798   2.124   3.314  14.269 -0.8411 -1.6758 -1.1988
 4461TIP3    H234799   2.190   3.436  14.208  0.7262 -0.4507  2.6179
 4462TIP3   OH234800   1.252   2.083  13.206 -0.8744 -0.2100 -0.5742
 4462TIP3    H134801   1.337   2.099  13.248 -1.6753  0.3183  0.9458
 4462TIP3    H234802   1.244   1.988  13.203  0.2513 -0.2888 -1.8021
 4463TIP3   OH234803   0.309   4.858  12.563  0.0443  0.1907  0.6863
 4463TIP3    H134804   0.403   4.875  12.556 -0.0863  0.5466 -0.5250
 4463TIP3    H234805   0.297   4.775  12.517 -0.2491  0.2174  0.7136
 4464TIP3   OH234806   1.128   2.280  17.306  0.4615 -0.8513  0.6049
 4464TIP3    H134807   1.207   2.315  17.348  1.1702 -1.5135 -0.1398
 4464TIP3    H234808   1.155   2.262  17.216 -0.4434 -1.4239  0.4365
 4465TIP3   OH234809   3.173   3.200  16.353 -0.8577 -0.6171  0.0485
 4465TIP3    H134810   3.091   3.202  16.402 -0.1096 -1.3179  1.4069
 4465TIP3    H234811   3.156   3.253  16.275 -2.5713 -0.7212  0.3082
 4466TIP3   OH234812   5.077   6.080  11.576 -0.0863  0.4357  0.1185
 4466TIP3    H134813   5.127   6.084  11.657 -1.4892  1.7491  0.9754
 4466TIP3    H234814   5.006   6.143  11.588 -0.6101  0.3360 -1.9554
 4467TIP3   OH234815   6.741   5.382   3.224  0.0820  0.1915  0.2303
 4467TIP3    H134816   6.761   5.453   3.286 -1.2448 -1.5856  2.8700
 4467TIP3    H234817   6.674   5.420   3.167 -0.9509  0.9952  1.8845
 4468TIP3   OH234818   6.155   1.636   6.066  0.7399  0.8128 -0.1412
 4468TIP3    H134819   6.202   1.570   6.116 -0.2439 -0.0317 -0.2902
 4468TIP3    H234820   6.198   1.719   6.088  2.6134  0.0296 -0.6815
 4469TIP3   OH234821   3.050   3.952  15.251 -0.3252  0.9443 -0.2313
 4469TIP3    H134822   2.969   3.901  15.251  0.3463 -0.1714 -0.9443
 4469TIP3    H234823   3.091   3.932  15.167  2.2888 -1.2069  1.3787
 4470TIP3   OH234824   2.502   1.923   2.544  0.4764  0.3090  0.1597
 4470TIP3    H134825   2.435   1.989   2.558 -1.5408 -1.5925  0.1179
 4470TIP3    H234826   2.528   1.935   2.452 -2.6750 -1.2289 -1.0891
 4471TIP3   OH234827   2.057   1.142   3.618  0.2131  0.5343 -0.5405
 4471TIP3    H134828   1.990   1.137   3.687  1.9218  0.2563  1.1858
 4471TIP3    H234829   2.038   1.224   3.571 -0.6824  1.0091  0.6114
 4472TIP3   OH234830   3.174   5.964  13.712 -0.2334  0.1735 -0.0098
 4472TIP3    H134831   3.097   5.923  13.752 -0.3795  1.4438  1.1012
 4472TIP3    H234832   3.199   6.033  13.774  2.6793 -1.0860  0.3817
 4473TIP3   OH234833   1.810   1.106  11.273  0.5542 -0.4366 -0.3919
 4473TIP3    H134834   1.776   1.117  11.184  0.6547  1.1631 -0.2521
 4473TIP3    H234835   1.892   1.156  11.274  0.1526  0.2289  0.8178
 4474TIP3   OH234836   5.629   2.730   3.998 -0.0345  0.1371  0.5177
 4474TIP3    H134837   5.607   2.649   3.953  0.1556  1.1665 -1.5299
 4474TIP3    H234838   5.723   2.724   4.015  0.0775  0.1315 -0.0871
 4475TIP3   OH234839   1.723   5.236   4.438  0.6578  0.0690 -0.4145
 4475TIP3    H134840   1.784   5.241   4.364 -0.4693  0.6626 -1.3502
 4475TIP3    H234841   1.731   5.322   4.481  1.1942 -0.2170  0.0697
 4476TIP3   OH234842   2.004   3.320   2.789  0.3021  0.5636  0.0129
 4476TIP3    H134843   2.004   3.227   2.810  0.9388  0.3137 -1.0261
 4476TIP3    H234844   2.031   3.363   2.870 -0.5083 -0.1069  0.6538
 4477TIP3   OH234845   1.059   0.480  11.668 -0.2273 -0.2585 -0.2222
 4477TIP3    H134846   1.065   0.492  11.574 -0.4238 -0.9279 -0.3266
 4477TIP3    H234847   0.989   0.416  11.680  0.8978 -1.4614  0.2660
 4478TIP3   OH234848   0.117   1.119  16.575 -0.7858  0.7954  0.1266
 4478TIP3    H134849   0.110   1.057  16.648 -0.3560  2.8498  2.0518
 4478TIP3    H234850   0.208   1.112  16.547 -0.8935  0.1457 -0.0785
 4479TIP3   OH234851   1.476   0.637  16.926 -0.7172 -0.1850  0.9866
 4479TIP3    H134852   1.417   0.612  16.855  0.1469 -1.8015  0.8033
 4479TIP3    H234853   1.496   0.555  16.971  2.1918  0.1271  0.4042
 4480TIP3   OH234854   1.968   4.692   5.024  0.4265 -0.1355  0.0122
 4480TIP3    H134855   2.045   4.656   4.981 -0.7428 -0.2902 -2.0773
 4480TIP3    H234856   1.997   4.713   5.113  1.7939 -4.0274  0.6633
 4481TIP3   OH234857   2.490   3.109  11.374 -0.0832 -0.0939  0.5111
 4481TIP3    H134858   2.447   3.167  11.312  1.4587  0.6593  0.1046
 4481TIP3    H234859   2.503   3.162  11.452  0.9923 -0.0043  0.2753
 4482TIP3   OH234860   2.993   1.938   6.643  0.2389  0.1320  0.3121
 4482TIP3    H134861   2.999   1.999   6.717  1.7348  1.2996 -0.7197
 4482TIP3    H234862   2.960   1.990   6.571 -1.3911 -1.0481  0.1531
 4483TIP3   OH234863   0.280   4.983  14.683 -0.0181 -0.1963 -0.4742
 4483TIP3    H134864   0.285   4.895  14.721  2.0393  0.2109  0.3095
 4483TIP3    H234865   0.253   5.039  14.755  0.8832  0.1257 -0.3722
 4484TIP3   OH234866   0.145   4.866  11.004 -0.6939 -0.2190  0.3517
 4484TIP3    H134867   0.220   4.926  11.000 -0.9996  0.1091 -1.6203
 4484TIP3    H234868   0.177   4.786  10.962 -1.3654 -0.1201 -0.3866
 4485TIP3   OH234869   5.084   4.011  14.836  0.4503 -0.5876 -0.0056
 4485TIP3    H134870   5.105   4.006  14.743  1.8276  2.5448  0.0261
 4485TIP3    H234871   4.998   4.052  14.839 -0.0820 -1.6782  0.1242
 4486TIP3   OH234872   0.152   4.278  17.223  0.2820 -0.2231 -0.0954
 4486TIP3    H134873   0.156   4.360  17.273  1.1812 -0.8713  0.9555
 4486TIP3    H234874   0.073   4.234  17.254 -1.9107  1.4889 -2.7919
 4487TIP3   OH234875   0.264   3.150  16.473 -0.2303  0.3648 -0.3678
 4487TIP3    H134876   0.209   3.208  16.526 -0.1523 -0.5569  0.7554
 4487TIP3    H234877   0.335   3.207  16.443 -1.4028  1.4051 -1.2872
 4488TIP3   OH234878   6.486   1.890  11.174  0.3215 -0.2732  0.2410
 4488TIP3    H134879   6.397   1.862  11.198  0.2690  0.6519  1.1522
 4488TIP3    H234880   6.475   1.977  11.137  0.7275 -0.6384 -0.7995
 4489TIP3   OH234881   4.012   1.306   4.339 -0.4793  0.2415 -0.1607
 4489TIP3    H134882   3.974   1.229   4.381 -0.0648 -0.7233 -1.4764
 4489TIP3    H234883   4.097   1.316   4.381 -0.1773 -0.5575 -0.5447
 4490TIP3   OH234884   6.331   2.504  13.925 -0.3420 -0.8201 -0.5544
 4490TIP3    H134885   6.341   2.412  13.898 -0.9402 -1.0753  0.0529
 4490TIP3    H234886   6.312   2.551  13.843 -1.3764 -1.4572 -0.7088
 4491TIP3   OH234887   1.061   1.944  13.931 -0.3144 -0.2193 -0.1577
 4491TIP3    H134888   0.997   2.010  13.906  0.5695  1.3056  1.3656
 4491TIP3    H234889   1.088   1.970  14.020  1.5557 -1.4642 -0.3105
 4492TIP3   OH234890   1.336   0.397  10.481  0.1116 -0.1599  0.0114
 4492TIP3    H134891   1.325   0.474  10.536 -3.7043 -0.2646 -0.2946
 4492TIP3    H234892   1.368   0.329  10.540 -0.6868  0.5847  1.3485
 4493TIP3   OH234893   4.953   4.567  14.902 -0.7124  0.5253 -0.2637
 4493TIP3    H134894   4.908   4.566  14.987  0.0931 -0.2102  0.1702
 4493TIP3    H234895   5.042   4.594  14.922 -0.4291  0.0287 -0.8193
 4494TIP3   OH234896   3.516   1.814  15.374  0.1818 -0.3176  0.1424
 4494TIP3    H134897   3.424   1.793  15.393  0.1315 -2.2980 -1.8163
 4494TIP3    H234898   3.512   1.877  15.302  0.4010  1.1276  1.3479
 4495TIP3   OH234899   2.192   2.133  13.545 -0.7791 -0.2604  0.2504
 4495TIP3    H134900   2.260   2.157  13.608 -0.4878  0.8007 -0.4425
 4495TIP3    H234901   2.112   2.129  13.596 -0.7397  1.6469  0.5286
 4496TIP3   OH234902   6.715   0.687   5.820 -0.3567  0.2440  1.0353
 4496TIP3    H134903   6.636   0.638   5.842 -0.9640  0.2058 -0.9791
 4496TIP3    H234904   6.786   0.640   5.865 -1.0866 -1.7356  0.2431
 4497TIP3   OH234905   3.434   1.282   3.447 -0.3762  0.1142 -0.8589
 4497TIP3    H134906   3.471   1.202   3.482 -1.1191 -0.0481 -0.4337
 4497TIP3    H234907   3.479   1.352   3.495 -1.6460 -0.1073  0.7353
 4498TIP3   OH234908   0.091   6.676  13.075 -1.1749  0.3836 -0.0004
 4498TIP3    H134909   0.017   6.687  13.135 -0.3286  1.4254  0.8788
 4498TIP3    H234910   0.153   6.620  13.122 -0.6015  1.0221  0.0081
 4499TIP3   OH234911   2.798   0.107  14.079  0.6249  0.6286 -0.1225
 4499TIP3    H134912   2.810   0.063  14.163 -1.4581  0.8864  0.3809
 4499TIP3    H234913   2.707   0.138  14.082  0.8173  1.4986 -2.0788
 4500TIP3   OH234914   4.138   0.611   5.948  0.4828 -0.0610 -0.2561
 4500TIP3    H134915   4.202   0.589   6.016 -0.4632  3.2234  1.8948
 4500TIP3    H234916   4.057   0.570   5.977 -0.0927  1.9129  1.1033
 4501TIP3   OH234917   2.845   4.631  14.960 -0.0076 -0.3778  0.2057
 4501TIP3    H134918   2.819   4.573  14.889 -0.4102 -0.0953  0.1160
 4501TIP3    H234919   2.775   4.697  14.963  1.3875  1.2267 -0.9639
 4502TIP3   OH234920   0.741   2.907   3.891 -0.0828 -0.2182  0.2159
 4502TIP3    H134921   0.718   2.911   3.798 -3.7046  1.0552  0.9684
 4502TIP3    H234922   0.765   2.997   3.914 -2.6334  0.3299  1.0925
 4503TIP3   OH234923   4.528   0.697   2.556 -0.2424  1.0800 -0.0916
 4503TIP3    H134924   4.570   0.774   2.593 -0.8138  1.5628 -0.4371
 4503TIP3    H234925   4.494   0.726   2.471 -0.4755  0.4568 -0.2183
 4504TIP3   OH234926   5.221   0.748   2.081 -0.3498 -0.0504 -0.1458
 4504TIP3    H134927   5.130   0.767   2.103 -0.7758 -0.3939 -1.5566
 4504TIP3    H234928   5.267   0.831   2.096 -1.1936  0.5877 -0.9473
 4505TIP3   OH234929   5.072   6.759   3.327 -0.0454 -0.0853  0.2088
 4505TIP3    H134930   5.017   6.688   3.362 -1.3761  1.1223  0.6508
 4505TIP3    H234931   5.110   6.722   3.248 -1.4503 -1.0126 -0.0770
 4506TIP3   OH234932   0.675   6.207   2.402  0.2157  0.3994  0.0078
 4506TIP3    H134933   0.696   6.206   2.309  1.1708  2.0835  0.1637
 4506TIP3    H234934   0.745   6.258   2.442 -1.0668  1.1407  1.4261
 4507TIP3   OH234935   3.953   0.280   4.822  0.1300  0.8061 -0.0682
 4507TIP3    H134936   3.885   0.218   4.799  0.5215 -0.3272  1.5755
 4507TIP3    H234937   4.035   0.236   4.800  0.3870  1.1592  0.1469
 4508TIP3   OH234938   3.363   1.986   0.507 -0.2357 -0.3647 -1.0079
 4508TIP3    H134939   3.304   1.999   0.582  1.3843 -2.1704  0.6955
 4508TIP3    H234940   3.306   1.957   0.436 -1.4817 -1.6301  0.4347
 4509TIP3   OH234941   4.988   4.559   4.845 -0.1016  0.0174  0.7425
 4509TIP3    H134942   5.047   4.634   4.855 -1.8144  1.9556 -2.2510
 4509TIP3    H234943   4.951   4.569   4.757 -1.7117 -3.4513  0.8676
 4510TIP3   OH234944   0.930   5.604  14.321  0.0891  0.7233  0.1393
 4510TIP3    H134945   1.012   5.585  14.275  0.7040 -1.2911  1.8574
 4510TIP3    H234946   0.865   5.549  14.277  0.4060 -0.2082  0.7845
 4511TIP3   OH234947   4.475   4.498   0.661 -0.0073  0.2083 -0.1205
 4511TIP3    H134948   4.429   4.456   0.733  0.1872  1.4719  0.7562
 4511TIP3    H234949   4.534   4.560   0.702  0.5059  0.5711 -1.3504
 4512TIP3   OH234950   5.732   4.296  11.214  0.4662 -0.3983 -0.2461
 4512TIP3    H134951   5.736   4.369  11.275  0.6540 -0.4263 -0.2259
 4512TIP3    H234952   5.753   4.334  11.129 -1.0860 -0.0870 -0.5326
 4513TIP3   OH234953   4.172   1.405  15.420 -0.1136  0.2862 -0.1204
 4513TIP3    H134954   4.252   1.447  15.387 -0.6199  0.6429 -0.8894
 4513TIP3    H234955   4.187   1.311  15.406  0.2346  0.3369 -0.1095
 4514TIP3   OH234956   1.475   5.199   3.336  0.1357  0.0238  0.2000
 4514TIP3    H134957   1.477   5.138   3.410  0.8324 -0.3945 -0.1574
 4514TIP3    H234958   1.490   5.144   3.259 -1.5892  0.3050 -0.3791
 4515TIP3   OH234959   0.941   6.438  12.693  0.6904 -0.1828  0.0092
 4515TIP3    H134960   0.957   6.515  12.746  0.6762  1.0681 -1.7169
 4515TIP3    H234961   0.930   6.471  12.604  2.1877 -2.3043 -1.0639
 4516TIP3   OH234962   3.806   2.770  11.392  0.2385  0.1138 -0.0118
 4516TIP3    H134963   3.847   2.748  11.476 -0.2474 -0.6156  0.0464
 4516TIP3    H234964   3.793   2.686  11.349 -1.3363  0.2871  0.0505
 4517TIP3   OH234965   4.392   6.230  11.736  0.2480 -0.4197 -0.8555
 4517TIP3    H134966   4.297   6.243  11.735  0.2854  0.5062  1.4572
 4517TIP3    H234967   4.429   6.318  11.733  0.9763 -0.6991 -0.4470
 4518TIP3   OH234968   6.293   4.673   1.744 -0.5989  0.4061 -0.5167
 4518TIP3    H134969   6.254   4.653   1.659  1.5579 -0.3794 -1.3830
 4518TIP3    H234970   6.377   4.714   1.724  0.5997 -1.0488  1.1900
 4519TIP3   OH234971   2.118   4.782   0.508  0.3481 -0.5579  0.5682
 4519TIP3    H134972   2.098   4.873   0.529  0.5869 -0.1276 -0.9552
 4519TIP3    H234973   2.193   4.761   0.564 -0.5414 -0.2748  1.9159
 4520TIP3   OH234974   3.719   5.682   1.422 -0.4317 -0.6815 -1.0882
 4520TIP3    H134975   3.632   5.643   1.431 -0.9035  0.4236 -0.7046
 4520TIP3    H234976   3.778   5.621   1.467 -1.2612 -0.5620  0.1918
 4521TIP3   OH234977   1.561   4.341   0.431  0.2211 -0.3841 -0.6686
 4521TIP3    H134978   1.481   4.362   0.480  0.8266  2.4802 -0.7151
 4521TIP3    H234979   1.538   4.356   0.340  0.3077 -1.4174 -0.8663
 4522TIP3   OH234980   0.169   3.912   3.904  0.1419  0.2933 -0.8536
 4522TIP3    H134981   0.249   3.870   3.936 -0.3733 -1.0358 -1.2065
 4522TIP3    H234982   0.174   3.902   3.809 -0.1915  0.6772 -0.9095
 4523TIP3   OH234983   1.274   2.028   3.104  0.3909  0.6235  0.1970
 4523TIP3    H134984   1.201   2.077   3.067  2.1261  2.0309 -1.6229
 4523TIP3    H234985   1.322   2.093   3.156  0.6577 -0.1385  0.9289
 4524TIP3   OH234986   0.815   5.406  14.872  0.5675  0.0842 -0.5103
 4524TIP3    H134987   0.740   5.355  14.841  0.5061 -0.6743  0.8001
 4524TIP3    H234988   0.796   5.495  14.843 -1.6661  0.2160  1.0878
 4525TIP3   OH234989   6.566   2.991  11.969  0.0854  0.1945 -0.1371
 4525TIP3    H134990   6.497   2.937  12.007  1.3341 -2.2945 -1.1790
 4525TIP3    H234991   6.605   3.037  12.044  0.3531 -2.0352  1.1869
 4526TIP3   OH234992   1.098   1.995  15.220  0.6185 -0.1549  0.5074
 4526TIP3    H134993   1.115   2.007  15.314  2.4154 -0.1584  0.2345
 4526TIP3    H234994   1.073   2.081  15.189  0.8704  0.0490  0.8546
 4527TIP3   OH234995   4.039   1.593   4.005 -0.3049 -0.0422  0.5662
 4527TIP3    H134996   4.020   1.649   4.080 -0.8637 -0.3618  0.6694
 4527TIP3    H234997   4.070   1.511   4.044  1.1156  0.3901  0.4062
 4528TIP3   OH234998   1.243   3.577   2.766 -0.2031 -0.6369  0.5247
 4528TIP3    H134999   1.263   3.586   2.673  0.8179 -0.5950  0.7393
 4528TIP3    H235000   1.326   3.553   2.807 -0.0797  1.5948  1.7573
 4529TIP3   OH235001   1.538   6.617   0.325  0.4163  0.4707  0.3281
 4529TIP3    H135002   1.446   6.610   0.352  0.3985  2.5856  1.0088
 4529TIP3    H235003   1.574   6.529   0.340 -1.7390 -0.7274 -1.0577
 4530TIP3   OH235004   6.138   5.066   0.096  0.3074 -0.1319 -0.4140
 4530TIP3    H135005   6.185   5.113   0.027  0.1664  0.1442 -0.3245
 4530TIP3    H235006   6.131   5.130   0.167  0.1767 -0.3147 -0.2639
 4531TIP3   OH235007   1.348   4.157  15.056 -0.0824  0.7569 -0.0839
 4531TIP3    H135008   1.276   4.199  15.103 -0.0528  3.5426 -2.2848
 4531TIP3    H235009   1.420   4.220  15.062  0.8453 -0.1391 -1.3521
 4532TIP3   OH235010   1.770   2.476  15.087 -0.0516 -0.0079 -0.4531
 4532TIP3    H135011   1.807   2.418  15.154  2.0447  0.3358 -1.2253
 4532TIP3    H235012   1.676   2.463  15.093  0.1842 -1.2247  1.4254
 4533TIP3   OH235013   3.523   5.925   1.446 -0.2300 -0.0941 -0.4332
 4533TIP3    H135014   3.609   5.885   1.435 -1.2585 -2.7325  0.4987
 4533TIP3    H235015   3.488   5.888   1.526 -2.2529  0.9481 -0.7532
 4534TIP3   OH235016   4.248   1.782  11.208  0.2440  0.5316  0.3028
 4534TIP3    H135017   4.259   1.757  11.116 -0.6356  1.3055 -0.0209
 4534TIP3    H235018   4.315   1.732  11.254 -2.2473 -3.6258 -0.0951
 4535TIP3   OH235019   5.243   6.355  14.142  0.0265 -0.2385  0.4899
 4535TIP3    H135020   5.161   6.398  14.165  0.0896 -0.2069  0.6613
 4535TIP3    H235021   5.301   6.426  14.114 -0.6386 -0.4590 -1.5825
 4536TIP3   OH235022   0.175   2.811  15.343 -0.0348 -0.0154 -0.1642
 4536TIP3    H135023   0.202   2.898  15.371 -0.2808 -0.1663  0.5611
 4536TIP3    H235024   0.086   2.823  15.310  0.3285  0.1995 -1.1073
 4537TIP3   OH235025   6.581   1.051   1.472  0.0254 -0.1116 -0.5535
 4537TIP3    H135026   6.617   1.008   1.549 -0.4867  0.2142 -0.1242
 4537TIP3    H235027   6.567   1.142   1.499 -2.1761 -0.4763 -0.3283
 4538TIP3   OH235028   0.998   5.238   3.908 -0.5567 -0.4345  0.4083
 4538TIP3    H135029   1.002   5.333   3.922 -0.6056 -0.5136  0.9933
 4538TIP3    H235030   0.973   5.203   3.993 -1.0693 -0.9379  0.0564
 4539TIP3   OH235031   4.530   0.743  13.676  0.3256 -0.0480  0.5963
 4539TIP3    H135032   4.586   0.707  13.608  0.9829 -0.6982  1.4443
 4539TIP3    H235033   4.500   0.827  13.642  1.0335 -0.1381 -0.2744
 4540TIP3   OH235034   2.299   1.131  15.036 -0.0451  0.4820  0.0615
 4540TIP3    H135035   2.303   1.080  14.955  0.4117  0.8856 -0.1727
 4540TIP3    H235036   2.234   1.200  15.018  0.3809  0.8412 -0.1230
 4541TIP3   OH235037   4.265   5.395  15.552 -0.1763 -0.4755  0.1333
 4541TIP3    H135038   4.194   5.398  15.487 -1.3956  0.2190  1.4489
 4541TIP3    H235039   4.329   5.335  15.514 -1.7469 -1.6208 -0.8351
 4542TIP3   OH235040   3.654   4.013   4.159  0.4533 -0.4313  0.3289
 4542TIP3    H135041   3.659   4.099   4.117  1.7875 -0.1084  1.0696
 4542TIP3    H235042   3.578   4.018   4.217  0.2494  0.0873  0.0151
 4543TIP3   OH235043   1.438   5.498  16.066 -0.0404 -0.0464 -0.2560
 4543TIP3    H135044   1.364   5.557  16.078  0.0856 -0.0804  0.7506
 4543TIP3    H235045   1.452   5.496  15.971 -1.0387  0.3057 -0.4188
 4544TIP3   OH235046   1.161   5.338  15.992 -0.2099  0.2472  0.4100
 4544TIP3    H135047   1.246   5.306  16.020 -0.9381  1.0312  3.9242
 4544TIP3    H235048   1.111   5.349  16.073 -3.4804  0.3858 -1.4519
 4545TIP3   OH235049   6.376   3.197  14.181  0.0582 -0.1812  0.6493
 4545TIP3    H135050   6.333   3.125  14.136  1.4432 -0.3964 -0.3991
 4545TIP3    H235051   6.314   3.224  14.249 -0.8827 -1.7253  0.4451
 4546TIP3   OH235052   1.054   6.250   4.742  0.5313  0.7795 -0.0277
 4546TIP3    H135053   0.984   6.309   4.713  0.6176  0.1004 -1.7290
 4546TIP3    H235054   1.089   6.213   4.661  1.3243 -0.6583  0.9305
 4547TIP3   OH235055   2.736   5.726   3.233  0.3404  0.5922  0.0374
 4547TIP3    H135056   2.788   5.806   3.227  0.3990  0.5622  0.1435
 4547TIP3    H235057   2.677   5.730   3.157 -1.4090  1.9586  1.3778
 4548TIP3   OH235058   6.417   3.565   4.705 -0.0395  0.0770 -0.0566
 4548TIP3    H135059   6.374   3.480   4.696 -0.0948 -0.0113  0.9973
 4548TIP3    H235060   6.456   3.581   4.619  0.1442 -1.0971 -0.2023
 4549TIP3   OH235061   5.262   5.924   2.185  0.2862 -0.3432 -0.3721
 4549TIP3    H135062   5.243   5.953   2.096 -0.9780 -1.2565 -0.4249
 4549TIP3    H235063   5.342   5.871   2.176 -0.2057 -0.9869 -1.0847
 4550TIP3   OH235064   1.574   6.336   3.870 -0.3501  0.9478 -0.0299
 4550TIP3    H135065   1.601   6.301   3.786 -3.0595  0.3771 -0.7460
 4550TIP3    H235066   1.650   6.322   3.927  1.0225  0.0334 -1.9707
 4551TIP3   OH235067   0.791   2.270  14.867  0.0577  0.1729 -0.4195
 4551TIP3    H135068   0.772   2.305  14.954 -0.6385 -1.6845  0.2216
 4551TIP3    H235069   0.717   2.297  14.813  0.1768  0.7813 -0.2862
 4552TIP3   OH235070   5.020   5.283  15.273 -0.0545  0.0870 -0.0793
 4552TIP3    H135071   5.012   5.361  15.328 -0.2572  0.5985 -0.8125
 4552TIP3    H235072   4.983   5.309  15.189  0.1850 -0.7014 -0.4442
 4553TIP3   OH235073   0.715   3.720   0.959  0.8284  0.2259  0.3145
 4553TIP3    H135074   0.662   3.686   1.031  0.2965 -0.2886 -0.3096
 4553TIP3    H235075   0.766   3.645   0.930  1.6130  0.6185  0.6436
 4554TIP3   OH235076   5.938   4.003   5.152 -0.3478  0.3992  0.5637
 4554TIP3    H135077   5.854   3.969   5.185  0.4906 -0.0056  2.4174
 4554TIP3    H235078   5.932   4.098   5.164 -0.6928  0.4142  0.2910
 4555TIP3   OH235079   2.423   3.640  15.515 -0.4274  0.4007 -0.2884
 4555TIP3    H135080   2.444   3.553  15.483  0.9002  0.3081  0.7461
 4555TIP3    H235081   2.453   3.640  15.606  1.6469  2.6175 -0.8604
 4556TIP3   OH235082   2.126   0.185  15.241 -0.3753  0.2023 -0.3293
 4556TIP3    H135083   2.148   0.148  15.156  0.3285 -0.5657  0.1737
 4556TIP3    H235084   2.058   0.127  15.275  0.0838 -0.1179  0.0665
 4557TIP3   OH235085   2.351   2.219  11.597 -0.4560 -0.3494 -0.2479
 4557TIP3    H135086   2.267   2.210  11.553 -1.1036  0.8860  0.6634
 4557TIP3    H235087   2.354   2.310  11.625  1.1583 -0.3940 -0.1773
 4558TIP3   OH235088   1.007   1.773  16.383 -0.3763  0.4121 -0.4686
 4558TIP3    H135089   0.945   1.845  16.370  0.5341  1.0836 -1.1386
 4558TIP3    H235090   1.064   1.802  16.454 -0.4050  0.0743 -0.3031
 4559TIP3   OH235091   4.808   0.366   2.881 -0.2674  0.2060  0.3145
 4559TIP3    H135092   4.834   0.384   2.790  0.1053  2.0056  0.7473
 4559TIP3    H235093   4.890   0.364   2.930 -0.5061 -0.1917  0.7035
 4560TIP3   OH235094   2.515   6.147  16.208 -0.0966 -0.3159  0.1684
 4560TIP3    H135095   2.437   6.202  16.208 -0.4713 -0.7987  1.7628
 4560TIP3    H235096   2.527   6.122  16.116  0.0416  2.3207 -0.6136
 4561TIP3   OH235097   4.967   1.232  17.294 -0.5733  0.0100  0.1632
 4561TIP3    H135098   5.051   1.187  17.286  0.0045  1.1872 -0.6598
 4561TIP3    H235099   4.989   1.325  17.290 -1.7599  0.3868  1.5751
 4562TIP3   OH235100   2.402   1.843  11.005 -0.4672 -0.3104 -0.2819
 4562TIP3    H135101   2.356   1.890  10.935  2.8222  4.5913  0.3377
 4562TIP3    H235102   2.358   1.869  11.085 -0.6868 -1.1629 -0.1157
 4563TIP3   OH235103   4.080   0.413  12.141  0.0749 -0.3841 -0.1210
 4563TIP3    H135104   4.015   0.438  12.076  0.4593  1.0578  0.0204
 4563TIP3    H235105   4.091   0.492  12.195 -0.7408 -1.7141  2.1267
 4564TIP3   OH235106   5.678   5.602   2.252 -0.6792 -0.7980 -0.3463
 4564TIP3    H135107   5.637   5.517   2.238 -0.3541 -1.0599  0.2467
 4564TIP3    H235108   5.700   5.633   2.164 -1.2419 -1.1050 -0.5947
 4565TIP3   OH235109   1.974   4.010  14.025 -0.0408 -0.5619 -0.0755
 4565TIP3    H135110   2.068   4.000  14.036  0.1232  0.6691 -0.2477
 4565TIP3    H235111   1.945   4.052  14.106 -0.6437 -1.9505  0.4707
 4566TIP3   OH235112   6.541   2.535   2.327  0.0562 -0.0219  0.2831
 4566TIP3    H135113   6.550   2.595   2.400 -0.1422  0.5927 -0.1908
 4566TIP3    H235114   6.627   2.537   2.284 -0.2750  0.7513 -0.3584
 4567TIP3   OH235115   5.561   1.382  16.642  0.2023 -0.8225 -0.1197
 4567TIP3    H135116   5.497   1.377  16.571 -0.5418  2.3663  0.1618
 4567TIP3    H235117   5.508   1.369  16.721  0.0621  0.6877  0.0559
 4568TIP3   OH235118   6.253   0.877   1.359  0.0033  0.1620 -0.4423
 4568TIP3    H135119   6.268   0.824   1.281 -1.8400 -0.1991 -0.5977
 4568TIP3    H235120   6.244   0.966   1.326 -1.9727 -0.1416 -0.8495
 4569TIP3   OH235121   1.451   0.928   0.404  0.1235 -0.4616  0.5171
 4569TIP3    H135122   1.403   0.879   0.337  0.1656 -1.0388  0.9036
 4569TIP3    H235123   1.383   0.969   0.457  0.0937  0.5258 -0.2490
 4570TIP3   OH235124   1.057   1.648   4.449  0.5462  0.7501  0.1133
 4570TIP3    H135125   1.042   1.640   4.543 -1.8116 -0.9910 -0.3250
 4570TIP3    H235126   1.150   1.625   4.438  0.2995 -1.3999  1.8141
 4571TIP3   OH235127   1.384   0.714  14.322 -0.3149  0.1041  0.4910
 4571TIP3    H135128   1.371   0.770  14.398  0.3440 -1.3947  1.7679
 4571TIP3    H235129   1.297   0.686  14.297 -0.4593 -0.3138  1.4319
 4572TIP3   OH235130   2.189   3.455  15.203 -0.4037 -0.1299 -0.3762
 4572TIP3    H135131   2.222   3.545  15.211  0.4562 -0.4369 -0.3675
 4572TIP3    H235132   2.262   3.406  15.163 -0.5886 -0.9789  0.3038
 4573TIP3   OH235133   5.242   3.963  13.822  0.1615  0.1030  0.4363
 4573TIP3    H135134   5.148   3.965  13.839  0.0080 -2.3355  0.1404
 4573TIP3    H235135   5.251   4.000  13.734 -0.4465  0.7204  0.6174
 4574TIP3   OH235136   0.260   2.414  17.019 -0.9184  0.3239  0.5443
 4574TIP3    H135137   0.249   2.360  17.097 -2.4270  0.7596  0.6590
 4574TIP3    H235138   0.327   2.478  17.044  0.7213 -1.2681  0.4798
 4575TIP3   OH235139   5.656   4.360   2.389 -0.5534 -0.6384  0.0346
 4575TIP3    H135140   5.582   4.418   2.374 -1.9981 -2.2635  0.5329
 4575TIP3    H235141   5.634   4.312   2.469 -0.1676 -2.9254 -1.1359
 4576TIP3   OH235142   1.184   1.513  16.464  0.1974  0.0283 -0.2923
 4576TIP3    H135143   1.215   1.499  16.553  0.0753  0.9001 -0.1007
 4576TIP3    H235144   1.241   1.582  16.429 -0.0986  0.0677 -0.7051
 4577TIP3   OH235145   5.827   6.035  14.879  0.4477  0.5480  0.4726
 4577TIP3    H135146   5.811   5.959  14.823  2.3539  1.0290 -0.8548
 4577TIP3    H235147   5.889   6.004  14.945 -0.0474  0.5470  0.9405
 4578TIP3   OH235148   3.467   5.748  16.508 -0.4311 -0.3248 -0.9834
 4578TIP3    H135149   3.430   5.736  16.595 -2.1227 -0.6503 -1.7119
 4578TIP3    H235150   3.436   5.672  16.458  3.0907 -1.8670 -1.1161
 4579TIP3   OH235151   4.389   3.343  14.937  0.1276 -0.0827  0.1534
 4579TIP3    H135152   4.480   3.312  14.945 -0.1410 -1.4118 -1.4022
 4579TIP3    H235153   4.390   3.395  14.857 -0.2318  0.9605  0.8172
 4580TIP3   OH235154   0.269   1.371   5.199  0.3938 -0.4450 -0.3142
 4580TIP3    H135155   0.363   1.390   5.204  0.4982 -0.5681 -1.5456
 4580TIP3    H235156   0.264   1.292   5.145 -0.4494 -0.1315 -0.7011
 4581TIP3   OH235157   2.064   0.731   0.987 -0.0529 -0.0256  0.4691
 4581TIP3    H135158   2.115   0.731   1.068  0.0501 -1.1139  0.4115
 4581TIP3    H235159   2.104   0.663   0.933  1.0860  1.9118 -1.2821
 4582TIP3   OH235160   1.731   5.418  17.221 -0.6878 -0.4262 -0.3582
 4582TIP3    H135161   1.775   5.383  17.143 -2.4811 -0.9239 -1.1902
 4582TIP3    H235162   1.741   5.349  17.287 -1.7026 -1.3140 -1.0988
 4583TIP3   OH235163   1.813   0.142  15.252 -0.8374  0.1026 -0.1887
 4583TIP3    H135164   1.837   0.154  15.160 -1.6429  1.3526 -0.2674
 4583TIP3    H235165   1.776   0.054  15.255 -1.2208  0.2106 -1.1731
 4584TIP3   OH235166   1.352   2.822   3.819 -0.5587  0.0520 -0.6787
 4584TIP3    H135167   1.409   2.867   3.756 -1.0735  0.6774 -0.7183
 4584TIP3    H235168   1.300   2.893   3.857  1.3575  0.0419  2.2157
 4585TIP3   OH235169   0.360   2.424  10.871 -0.7939  0.0704  0.0725
 4585TIP3    H135170   0.299   2.445  10.801 -0.2944  0.8531 -0.1417
 4585TIP3    H235171   0.380   2.331  10.859  1.3329  0.7277 -2.5109
 4586TIP3   OH235172   5.571   6.422  14.306  0.5681 -0.5268 -0.5314
 4586TIP3    H135173   5.660   6.393  14.287  0.8115 -0.8058  0.9136
 4586TIP3    H235174   5.538   6.359  14.370  0.0321  0.6671  0.4128
 4587TIP3   OH235175   1.395   2.274   4.180  0.2722 -0.3468  0.1920
 4587TIP3    H135176   1.343   2.316   4.249  0.6618 -0.1333  0.3656
 4587TIP3    H235177   1.485   2.304   4.198  0.5753 -1.3271  0.3732
 4588TIP3   OH235178   1.330   2.310  16.295  0.5028  0.6092  0.6251
 4588TIP3    H135179   1.369   2.283  16.378 -1.4655 -0.6819  1.2117
 4588TIP3    H235180   1.253   2.253  16.285  0.0857  1.4397 -1.5755
 4589TIP3   OH235181   2.231   6.651   1.920  0.6857 -0.4502  0.0075
 4589TIP3    H135182   2.240   6.723   1.983 -0.3435 -2.4508  2.6235
 4589TIP3    H235183   2.321   6.630   1.894  0.9994  1.7592 -0.9199
 4590TIP3   OH235184   5.921   1.152  15.358  0.5643 -0.2157 -0.4426
 4590TIP3    H135185   5.915   1.222  15.422 -0.2740 -2.4769  2.1467
 4590TIP3    H235186   6.015   1.140  15.343  0.7579  0.5111  0.1662
 4591TIP3   OH235187   6.556   2.169   4.003  0.4957 -0.2104 -0.2065
 4591TIP3    H135188   6.465   2.182   4.029  0.5784 -0.3877  0.1716
 4591TIP3    H235189   6.588   2.258   3.985 -0.0750 -0.2398 -1.4516
 4592TIP3   OH235190   6.678   2.050   5.795  0.3794  0.3657  0.3774
 4592TIP3    H135191   6.698   2.073   5.704  0.3678  1.6985  0.6960
 4592TIP3    H235192   6.583   2.059   5.802  0.5882  2.3724  1.0525
 4593TIP3   OH235193   5.477   5.154   4.063 -0.0122  0.5638  0.3553
 4593TIP3    H135194   5.527   5.231   4.034  0.0622  0.2892 -0.2656
 4593TIP3    H235195   5.404   5.149   4.000 -0.2474  0.3655  0.6431
 4594TIP3   OH235196   4.672   3.664   1.639 -0.2355  0.2289  0.3672
 4594TIP3    H135197   4.641   3.701   1.557  0.5007  0.5850  0.2351
 4594TIP3    H235198   4.661   3.735   1.702  1.3842  0.7885  0.0687
 4595TIP3   OH235199   5.631   5.126  12.200  0.4428 -0.1405  0.0610
 4595TIP3    H135200   5.614   5.079  12.118  3.0125  0.2325 -0.8052
 4595TIP3    H235201   5.601   5.067  12.269  1.7869 -2.2740 -1.0575
 4596TIP3   OH235202   1.989   3.829  11.406 -0.1993 -0.5171 -0.1826
 4596TIP3    H135203   2.065   3.796  11.453  1.5596  1.5067 -1.4403
 4596TIP3    H235204   1.977   3.918  11.439 -2.3728 -0.9160  0.3061
 4597TIP3   OH235205   0.319   1.765  14.816 -0.1508  0.5587 -0.0940
 4597TIP3    H135206   0.304   1.832  14.749 -1.5410  0.1224 -0.2687
 4597TIP3    H235207   0.413   1.752  14.816 -0.1376  0.2064 -2.3414
 4598TIP3   OH235208   0.730   5.007   1.726 -0.0290  0.1284  0.1838
 4598TIP3    H135209   0.798   4.944   1.703 -1.1740 -0.7207 -0.9820
 4598TIP3    H235210   0.652   4.953   1.744 -0.4976  1.0952  1.1777
 4599TIP3   OH235211   0.096   3.943   3.426  0.1342  0.2560  0.4763
 4599TIP3    H135212   0.110   3.982   3.340 -0.8807 -0.1551  0.1143
 4599TIP3    H235213   0.051   3.861   3.408  1.1770 -0.5301  1.3105
 4600TIP3   OH235214   1.088   4.106  11.225  0.8630 -0.1576  0.9245
 4600TIP3    H135215   1.065   4.197  11.246 -0.9716 -0.6072  1.0473
 4600TIP3    H235216   1.088   4.103  11.130  1.5891  0.1129  0.9105
 4601TIP3   OH235217   3.420   3.973  11.283 -0.7248 -0.3811 -0.6040
 4601TIP3    H135218   3.430   4.068  11.282  0.7694 -0.5082 -0.2248
 4601TIP3    H235219   3.454   3.944  11.198 -1.5161 -0.5597 -0.8685
 4602TIP3   OH235220   4.374   0.145   2.131  0.3931  0.1721  0.5431
 4602TIP3    H135221   4.385   0.122   2.223 -0.6009 -1.4111  0.2961
 4602TIP3    H235222   4.283   0.123   2.111 -0.4169  3.3967 -0.0442
 4603TIP3   OH235223   1.935   1.918   5.168 -0.3291  0.4346 -0.1444
 4603TIP3    H135224   1.873   1.848   5.148 -1.0868  1.4743 -1.5557
 4603TIP3    H235225   1.919   1.938   5.261 -1.3135 -0.0947 -0.1855
 4604TIP3   OH235226   1.577   1.117   0.241  0.2104 -0.1039  0.4010
 4604TIP3    H135227   1.639   1.068   0.294 -0.1385 -0.0803  0.8315
 4604TIP3    H235228   1.496   1.067   0.246  0.3473 -0.4584 -0.6488
 4605TIP3   OH235229   3.691   3.932   0.159 -0.2616 -0.2013  0.6247
 4605TIP3    H135230   3.668   4.022   0.182  0.2360  0.3931 -1.0096
 4605TIP3    H235231   3.607   3.891   0.134 -0.3534  0.1351  0.3736
 4606TIP3   OH235232   5.206   2.922   1.934 -0.0447 -0.1614  0.0356
 4606TIP3    H135233   5.237   2.834   1.956 -1.4456 -0.9694 -1.0534
 4606TIP3    H235234   5.231   2.976   2.009  0.4672 -1.5651  0.9115
 4607TIP3   OH235235   0.603   0.490   2.444  0.2028  0.1330  0.1591
 4607TIP3    H135236   0.544   0.491   2.519  0.4808  0.2574  0.3734
 4607TIP3    H235237   0.582   0.571   2.396 -2.0980 -1.3458 -1.5456
 4608TIP3   OH235238   2.077   0.796   1.431  0.1027  0.2858 -0.0642
 4608TIP3    H135239   2.004   0.849   1.399  0.3307  0.4378 -0.3364
 4608TIP3    H235240   2.102   0.837   1.514  0.2635  0.5939 -0.2629
 4609TIP3   OH235241   5.332   2.796   0.276 -0.4357 -0.2366 -0.0552
 4609TIP3    H135242   5.238   2.781   0.281 -0.4079 -0.0116  1.2441
 4609TIP3    H235243   5.365   2.722   0.224 -1.3252 -0.2481 -0.6293
 4610TIP3   OH235244   5.530   4.315   4.454  0.0858 -0.5851 -0.1468
 4610TIP3    H135245   5.577   4.383   4.502 -0.7537 -0.3128  0.3033
 4610TIP3    H235246   5.596   4.275   4.397  0.8505 -0.2108  0.4740
 4611TIP3   OH235247   3.075   4.142  14.875 -0.6914 -0.3157 -0.2477
 4611TIP3    H135248   3.083   4.055  14.913 -1.2886 -0.7529 -1.0846
 4611TIP3    H235249   2.982   4.149  14.851 -1.0026  1.1334  1.1800
 4612TIP3   OH235250   5.442   0.398  15.407 -0.3080 -0.2940 -0.5351
 4612TIP3    H135251   5.349   0.398  15.383 -0.1857  0.0759 -1.0114
 4612TIP3    H235252   5.471   0.487  15.389  0.5000 -0.7940 -1.7982
 4613TIP3   OH235253   0.683   4.065   4.351 -0.1147  0.6149  0.0139
 4613TIP3    H135254   0.719   4.152   4.330  1.8069 -0.0321  0.3897
 4613TIP3    H235255   0.609   4.083   4.408  0.8084  2.0003  0.8475
 4614TIP3   OH235256   0.696   1.634   2.906 -0.6808 -0.4684 -0.7889
 4614TIP3    H135257   0.662   1.545   2.910 -1.0304 -0.3569 -1.2184
 4614TIP3    H235258   0.736   1.641   2.820  3.7125 -1.7446  0.8919
 4615TIP3   OH235259   3.264   1.769  13.448 -0.6396 -0.3996  0.3788
 4615TIP3    H135260   3.211   1.697  13.483 -0.5111 -0.6703  0.0235
 4615TIP3    H235261   3.269   1.751  13.354  0.4335 -0.6024  0.4673
 4616TIP3   OH235262   5.821   6.301  17.205 -0.0038  0.2815  0.2107
 4616TIP3    H135263   5.854   6.292  17.115  1.6733  2.7192  0.4905
 4616TIP3    H235264   5.792   6.391  17.211 -1.4882 -0.2655  1.7255
 4617TIP3   OH235265   3.771   6.005   1.870 -0.1061 -0.4520 -0.0725
 4617TIP3    H135266   3.807   6.018   1.782  0.2456 -0.2690  0.0983
 4617TIP3    H235267   3.805   6.078   1.921 -0.9656 -0.1130  0.0201
 4618TIP3   OH235268   2.621   4.394   0.476  0.2443  0.3184  0.4401
 4618TIP3    H135269   2.646   4.480   0.442 -0.5311  0.0844 -0.7754
 4618TIP3    H235270   2.701   4.342   0.469  0.7626  0.9601  1.3318
 4619TIP3   OH235271   0.615   1.387   1.651  0.4001 -0.4110 -0.2338
 4619TIP3    H135272   0.581   1.352   1.569 -1.4167  2.8323 -1.0525
 4619TIP3    H235273   0.708   1.403   1.633  0.0520  0.1362 -1.6732
 4620TIP3   OH235274   3.883   3.328  14.468  0.2739  0.1682 -0.1488
 4620TIP3    H135275   3.975   3.347  14.490  0.6188  1.5808 -2.4328
 4620TIP3    H235276   3.888   3.248  14.414  0.2656  0.5914 -0.7911
 4621TIP3   OH235277   6.512   3.901   1.431  0.0939 -0.4402  0.3068
 4621TIP3    H135278   6.425   3.925   1.398 -0.0389 -0.7217  0.4564
 4621TIP3    H235279   6.548   3.983   1.465  1.3096  0.5376 -2.9034
 4622TIP3   OH235280   1.001   6.144  10.848 -0.5822 -0.7342 -0.4982
 4622TIP3    H135281   0.990   6.219  10.906 -1.1434 -1.8386  0.8769
 4622TIP3    H235282   1.043   6.180  10.769 -0.4888  0.9288  0.2779
 4623TIP3   OH235283   2.840   3.675   5.491 -0.3984 -0.1777 -0.3316
 4623TIP3    H135284   2.774   3.710   5.552  0.6079  2.0369 -0.4292
 4623TIP3    H235285   2.915   3.733   5.501  1.0712 -1.8412 -1.2105
 4624TIP3   OH235286   5.089   3.876   2.491 -0.4597  0.4147 -0.5077
 4624TIP3    H135287   5.182   3.886   2.475 -0.4450  0.7607 -0.2152
 4624TIP3    H235288   5.047   3.901   2.408 -0.2826 -0.0021 -0.7243
 4625TIP3   OH235289   6.251   6.076  14.173 -0.2868 -0.0617 -1.0762
 4625TIP3    H135290   6.208   6.139  14.231  1.2191 -1.6713  1.9667
 4625TIP3    H235291   6.181   6.017  14.146 -0.5434 -1.3397  2.0187
 4626TIP3   OH235292   0.619   6.453   1.552 -0.1883  0.0648  0.0742
 4626TIP3    H135293   0.660   6.367   1.541  0.9728  0.8439 -2.3234
 4626TIP3    H235294   0.692   6.513   1.568 -0.7691  0.8923 -0.2988
 4627TIP3   OH235295   2.125   5.418   5.812  0.4334 -0.0535 -0.5853
 4627TIP3    H135296   2.220   5.419   5.800  0.3745 -0.6545 -1.1539
 4627TIP3    H235297   2.095   5.344   5.759 -0.5967  1.4158 -2.1816
 4628TIP3   OH235298   1.207   4.812  13.887  0.2022  0.5968 -0.3759
 4628TIP3    H135299   1.240   4.892  13.848  0.5799 -0.4212 -2.2621
 4628TIP3    H235300   1.284   4.754  13.890 -0.4347 -0.2811 -0.6788
 4629TIP3   OH235301   1.820   2.656  12.881  0.4601 -0.5325  0.0126
 4629TIP3    H135302   1.830   2.597  12.955  1.0210 -1.8229 -1.0374
 4629TIP3    H235303   1.731   2.641  12.849  0.9050 -1.5521 -0.8195
 4630TIP3   OH235304   0.286   3.048  17.070  0.0784  0.2922  0.0612
 4630TIP3    H135305   0.224   2.982  17.103 -0.7251 -1.0145 -3.5073
 4630TIP3    H235306   0.287   3.116  17.137 -2.5693 -1.2594  1.8765
 4631TIP3   OH235307   2.942   2.698   5.211  0.1770  0.1430 -0.0266
 4631TIP3    H135308   2.944   2.678   5.118 -0.1638  1.6137 -0.3755
 4631TIP3    H235309   2.974   2.788   5.217 -0.6223  0.3697  1.1826
 4632TIP3   OH235310   1.157   6.687   3.641  1.0873  0.1448 -0.6823
 4632TIP3    H135311   1.211   6.635   3.700 -1.6270 -0.6205  1.3357
 4632TIP3    H235312   1.089   6.627   3.611 -1.1737  2.0263  0.3720
 4633TIP3   OH235313   0.153   4.884  15.058  0.2015  0.1874 -0.2782
 4633TIP3    H135314   0.199   4.818  15.111  0.6520 -0.0385 -0.9355
 4633TIP3    H235315   0.214   4.958  15.054 -1.5117  2.0006  3.0811
 4634TIP3   OH235316   2.210   0.905  12.334 -0.1961 -0.0883 -0.4099
 4634TIP3    H135317   2.190   0.939  12.421  0.5004  1.5152 -0.8410
 4634TIP3    H235318   2.275   0.966  12.299  0.8346 -1.6767 -1.3882
 4635TIP3   OH235319   6.634   0.936   5.461 -0.2803 -0.3502  0.1964
 4635TIP3    H135320   6.584   1.007   5.422 -1.0571 -1.1662 -0.3527
 4635TIP3    H235321   6.636   0.869   5.393  1.9951 -0.1636  0.0159
 4636TIP3   OH235322   2.755   1.551   5.791  0.4194  0.4814 -0.2118
 4636TIP3    H135323   2.726   1.633   5.751  1.0122 -0.2849 -2.3641
 4636TIP3    H235324   2.828   1.577   5.848 -0.0432  1.5554 -0.0773
 4637TIP3   OH235325   6.376   1.463   0.232  0.0943 -0.2245 -0.0827
 4637TIP3    H135326   6.398   1.556   0.221  0.5887 -0.2063  0.9094
 4637TIP3    H235327   6.281   1.461   0.239 -0.1026 -0.0412 -2.1915
 4638TIP3   OH235328   2.065   4.275   4.183  0.2388  0.4551 -0.3699
 4638TIP3    H135329   2.144   4.235   4.146  0.0190 -2.2185  1.7098
 4638TIP3    H235330   2.073   4.262   4.277 -2.6133  0.1438 -0.0719
 4639TIP3   OH235331   5.134   6.616  17.124  0.5037  0.4704  0.1542
 4639TIP3    H135332   5.084   6.565  17.060 -2.0201 -0.9234  3.0045
 4639TIP3    H235333   5.223   6.581  17.118  0.3386  0.3177 -2.4190
 4640TIP3   OH235334   1.160   4.192   2.413  0.0834  0.0512 -0.0107
 4640TIP3    H135335   1.138   4.103   2.387 -1.3171  0.0206  1.1765
 4640TIP3    H235336   1.198   4.231   2.334  1.2993 -1.7495 -0.3729
 4641TIP3   OH235337   5.728   4.864   1.964 -0.2956  0.0567 -0.3440
 4641TIP3    H135338   5.723   4.915   2.045  1.5196  2.1317 -1.4031
 4641TIP3    H235339   5.799   4.802   1.980  0.6303  1.0190 -0.5542
 4642TIP3   OH235340   3.582   0.906   3.815  0.0425  0.5924  0.4898
 4642TIP3    H135341   3.586   0.974   3.882  1.1626  0.1627  0.8638
 4642TIP3    H235342   3.672   0.874   3.806 -0.4394 -0.7578  0.2194
 4643TIP3   OH235343   5.407   4.724  12.551 -0.1449  0.2735  0.2885
 4643TIP3    H135344   5.423   4.709  12.644 -1.3288 -0.7393  0.3428
 4643TIP3    H235345   5.380   4.639  12.516  1.4778  0.3193 -1.2781
 4644TIP3   OH235346   6.429   5.556   1.551  0.2778  0.0509 -0.4068
 4644TIP3    H135347   6.348   5.547   1.502 -0.4456  0.5082  0.6594
 4644TIP3    H235348   6.401   5.586   1.638  1.6858  1.6244 -0.4545
 4645TIP3   OH235349   4.796   5.442  13.197 -0.1212 -0.0235 -0.1134
 4645TIP3    H135350   4.720   5.433  13.255 -0.4772 -1.8799 -0.7990
 4645TIP3    H235351   4.759   5.464  13.112 -0.0589 -2.1233 -0.7394
 4646TIP3   OH235352   0.268   0.990  17.250  0.6308  0.4587  0.5189
 4646TIP3    H135353   0.220   0.977  17.168  1.6881  0.3546 -0.1053
 4646TIP3    H235354   0.326   1.065  17.233 -0.4461  1.6264  1.7935
 4647TIP3   OH235355   4.148   0.686  15.159  0.5379 -0.0683 -0.0500
 4647TIP3    H135356   4.085   0.700  15.089  0.4455 -0.4502 -0.0467
 4647TIP3    H235357   4.189   0.602  15.139  0.5042 -0.1843  0.3582
 4648TIP3   OH235358   5.396   3.252  12.241  0.5683 -0.3166  0.0997
 4648TIP3    H135359   5.302   3.249  12.226  0.2090  2.4377  1.2813
 4648TIP3    H235360   5.435   3.251  12.154 -0.9043  4.2801 -0.8743
 4649TIP3   OH235361   0.397   4.270  17.064 -0.0640 -0.2136 -0.4804
 4649TIP3    H135362   0.320   4.284  17.120  0.2476 -0.4950  0.0228
 4649TIP3    H235363   0.421   4.357  17.035  0.9508  0.1860  1.4158
 4650TIP3   OH235364   0.507   4.593   0.348 -0.4950  0.6563 -0.6726
 4650TIP3    H135365   0.419   4.554   0.345  0.2859 -1.3140  0.2115
 4650TIP3    H235366   0.494   4.677   0.392 -1.7711 -0.1904  0.6788
 4651TIP3   OH235367   6.702   0.264   5.637 -0.2233 -0.3319  0.0755
 4651TIP3    H135368   6.782   0.303   5.603  0.3102 -0.6826  0.9087
 4651TIP3    H235369   6.640   0.336   5.642  0.0952 -0.0235 -0.3970
 4652TIP3   OH235370   5.076   0.854   4.426  0.4785  0.3906 -0.6024
 4652TIP3    H135371   5.052   0.882   4.514 -0.6089 -0.4268 -0.6161
 4652TIP3    H235372   5.165   0.887   4.414  1.4551 -1.1724  1.5795
 4653TIP3   OH235373   6.779   3.081   3.391 -0.6639  0.5192  0.2862
 4653TIP3    H135374   6.826   3.144   3.336 -0.3100  0.7889  0.8714
 4653TIP3    H235375   6.847   3.022   3.423 -0.9187  0.1473  0.1399
 4654TIP3   OH235376   2.998   5.943  15.955 -0.3672  0.0446 -0.3196
 4654TIP3    H135377   2.968   5.968  16.043 -1.6647  0.1322 -0.7686
 4654TIP3    H235378   3.093   5.948  15.960 -0.4089  4.2354 -0.0709
 4655TIP3   OH235379   6.378   3.936  11.721  0.1648  0.2199  0.3526
 4655TIP3    H135380   6.422   4.009  11.676 -0.4327  1.7214  2.0539
 4655TIP3    H235381   6.420   3.934  11.807 -1.1094 -0.2231  0.9753
 4656TIP3   OH235382   5.034   1.223  14.943 -0.2156 -0.0986  0.4659
 4656TIP3    H135383   5.048   1.244  15.035  0.7187 -2.7457  1.0091
 4656TIP3    H235384   5.094   1.281  14.896  1.2385 -0.4821  1.7434
 4657TIP3   OH235385   4.170   3.253  11.759 -0.5255  0.0178  0.3632
 4657TIP3    H135386   4.247   3.294  11.719 -0.3113  1.1824  1.8857
 4657TIP3    H235387   4.131   3.201  11.688  0.3808  1.2078 -1.0677
 4658TIP3   OH235388   1.111   4.140  17.099  0.0217 -0.1218 -0.4489
 4658TIP3    H135389   1.041   4.203  17.078 -0.6577  0.0340  2.0071
 4658TIP3    H235390   1.065   4.056  17.107  0.2233 -0.1538  0.4219
 4659TIP3   OH235391   0.036   0.927   2.330 -0.1440 -0.0304 -0.2136
 4659TIP3    H135392   0.043   0.916   2.425  1.0647  1.1715 -0.1293
 4659TIP3    H235393  -0.058   0.932   2.313 -0.4029 -1.0050  0.8173
 4660TIP3   OH235394   0.884   6.264  11.985 -0.0854  0.1721 -0.5642
 4660TIP3    H135395   0.931   6.284  12.066 -0.0218 -0.7861 -0.3503
 4660TIP3    H235396   0.843   6.346  11.959  0.4457  0.6441  0.0823
 4661TIP3   OH235397   5.646   3.164  11.239 -0.3206 -0.4093 -0.1776
 4661TIP3    H135398   5.705   3.096  11.207  0.5259  0.4555 -0.5398
 4661TIP3    H235399   5.648   3.156  11.334  0.3924 -0.4037 -0.1838
 4662TIP3   OH235400   2.171   6.710   4.042  0.2687  0.3274  0.2389
 4662TIP3    H135401   2.244   6.763   4.075  1.5332 -2.1423  1.7163
 4662TIP3    H235402   2.095   6.767   4.049  1.6262  2.1357  1.1418
 4663TIP3   OH235403   3.548   4.536   2.679 -0.2018 -0.1667  0.0844
 4663TIP3    H135404   3.527   4.617   2.633  2.0165  0.3552 -0.1094
 4663TIP3    H235405   3.579   4.477   2.610  0.3518 -0.3943  0.5238
 4664TIP3   OH235406   4.331   5.877  15.731  0.1124 -0.0225 -0.4857
 4664TIP3    H135407   4.406   5.871  15.789 -0.1410 -1.1508 -0.2657
 4664TIP3    H235408   4.255   5.866  15.788 -0.2932  1.8439 -0.5782
 4665TIP3   OH235409   0.075   5.713  13.383  0.1113  0.4232  0.1813
 4665TIP3    H135410   0.166   5.743  13.385  0.5194 -0.5276 -2.0485
 4665TIP3    H235411   0.044   5.736  13.296 -0.6912 -2.2967 -0.3399
 4666TIP3   OH235412   3.910   5.290   3.592 -0.6627  0.3056  0.2638
 4666TIP3    H135413   3.855   5.224   3.550 -0.3898 -1.2960  2.2814
 4666TIP3    H235414   3.898   5.276   3.686 -0.3621  2.9817  0.7855
 4667TIP3   OH235415   3.299   6.632   0.038  0.0138 -0.3335 -0.4213
 4667TIP3    H135416   3.204   6.626   0.036  0.0840 -1.5035 -1.5017
 4667TIP3    H235417   3.328   6.546   0.070  0.6997  0.1481  0.2857
 4668TIP3   OH235418   3.442   0.221  13.821 -0.6116 -0.3898  0.2592
 4668TIP3    H135419   3.536   0.239  13.811 -0.7931  0.7926  0.5275
 4668TIP3    H235420   3.404   0.242  13.736 -0.1562 -4.7731 -1.2798
 4669TIP3   OH235421   5.229   2.733  13.321 -0.3260  0.4886  0.7046
 4669TIP3    H135422   5.305   2.755  13.374  0.2087 -0.5962  0.3978
 4669TIP3    H235423   5.251   2.765  13.233  0.5883 -1.4367  0.1828
 4670TIP3   OH235424   2.866   0.757  16.641  1.1174  0.4455  0.4143
 4670TIP3    H135425   2.870   0.782  16.549  0.4320 -1.8953 -0.3243
 4670TIP3    H235426   2.840   0.837  16.687  0.1406  1.3405 -1.5856
 4671TIP3   OH235427   2.700   6.068  16.724 -0.4881  0.5470 -0.0091
 4671TIP3    H135428   2.624   6.115  16.757 -1.0361 -0.1029 -0.3074
 4671TIP3    H235429   2.714   6.103  16.636 -0.0548  1.1005  0.2731
 4672TIP3   OH235430   0.709   3.719  11.804  0.3932  0.5438  0.8296
 4672TIP3    H135431   0.797   3.700  11.837  0.7172 -0.4955 -0.5446
 4672TIP3    H235432   0.722   3.738  11.711 -1.0116 -1.5920  0.1169
 4673TIP3   OH235433   1.995   5.008  15.038 -0.2457 -0.0338  0.1952
 4673TIP3    H135434   2.050   4.972  15.108  0.3490 -0.8537 -0.6688
 4673TIP3    H235435   2.051   5.008  14.961 -1.3361 -0.5216 -0.6276
 4674TIP3   OH235436   4.476   6.427   1.926  0.3551  1.2098  0.3535
 4674TIP3    H135437   4.513   6.382   2.002  2.0607  2.9874  0.6505
 4674TIP3    H235438   4.393   6.462   1.958 -0.9153 -1.4080  0.1719
 4675TIP3   OH235439   2.610   2.658  13.572  0.3590 -0.1743  0.8822
 4675TIP3    H135440   2.620   2.723  13.503 -0.6317  1.0861  1.8872
 4675TIP3    H235441   2.515   2.655  13.589  0.6348  0.0781  2.6657
 4676TIP3   OH235442   1.066   3.736   0.848  0.6431 -0.8840  0.0010
 4676TIP3    H135443   1.026   3.750   0.762  1.1216 -1.3894 -0.3089
 4676TIP3    H235444   1.160   3.746   0.832  0.6901 -0.2930  0.6035
 4677TIP3   OH235445   5.659   5.727   6.396 -0.0931  0.4524  0.3500
 4677TIP3    H135446   5.609   5.726   6.478 -0.4789 -1.0151  0.1208
 4677TIP3    H235447   5.677   5.820   6.380 -5.5966  1.6171 -1.2941
 4678TIP3   OH235448   5.382   3.834   0.148 -0.0098 -0.2357  0.1005
 4678TIP3    H135449   5.422   3.852   0.063 -2.2081  1.4540 -0.6547
 4678TIP3    H235450   5.299   3.792   0.127 -0.2418 -0.5012  1.4576
 4679TIP3   OH235451   2.755   3.520  16.868 -0.6094  0.1326  0.2044
 4679TIP3    H135452   2.685   3.576  16.902 -0.4558 -0.0708  0.8829
 4679TIP3    H235453   2.777   3.558  16.783 -2.3440 -0.4849 -0.5786
 4680TIP3   OH235454   3.748   5.674   4.078 -0.7206  0.3073 -0.0977
 4680TIP3    H135455   3.813   5.672   4.148 -0.6814 -1.7602 -0.1154
 4680TIP3    H235456   3.770   5.599   4.023 -1.4872  1.1838 -1.6608
 4681TIP3   OH235457   3.814   5.860   2.208 -0.3100 -0.1104 -0.1448
 4681TIP3    H135458   3.865   5.923   2.259 -0.2110  0.0397 -0.4297
 4681TIP3    H235459   3.811   5.782   2.263 -1.8372  0.6700  0.9393
 4682TIP3   OH235460   6.520   2.512   3.695 -0.5978  0.7931 -0.1515
 4682TIP3    H135461   6.599   2.500   3.747  1.0116  0.7819 -2.4752
 4682TIP3    H235462   6.499   2.424   3.663 -0.0173  1.1698 -1.6289
 4683TIP3   OH235463   5.076   5.657   6.304  0.6250 -0.4577  0.1364
 4683TIP3    H135464   5.081   5.676   6.398  1.6132  2.5455 -0.3798
 4683TIP3    H235465   4.983   5.647   6.286  0.4774 -1.9726  1.5385
 4684TIP3   OH235466   0.978   5.696  11.561  0.2387  0.2602 -0.4518
 4684TIP3    H135467   0.938   5.651  11.635  0.7729 -1.9140 -1.4064
 4684TIP3    H235468   1.019   5.774  11.599 -0.8784  0.0598  1.2492
 4685TIP3   OH235469   4.160   5.135  13.443  0.5060 -0.3425  0.0665
 4685TIP3    H135470   4.252   5.125  13.418  0.7445 -0.5565  1.0090
 4685TIP3    H235471   4.147   5.072  13.513 -0.1952  0.1154  0.3596
 4686TIP3   OH235472   2.605   1.814  14.584 -0.2041  0.7559 -0.4368
 4686TIP3    H135473   2.606   1.758  14.507 -2.7519  0.6149 -0.4709
 4686TIP3    H235474   2.598   1.753  14.658 -2.3324  0.9211 -0.4373
 4687TIP3   OH235475   6.265   4.317   2.713  0.5687  0.1800 -0.2889
 4687TIP3    H135476   6.305   4.396   2.676  2.0675 -0.2553  0.3369
 4687TIP3    H235477   6.200   4.351   2.775  0.1139  0.9036 -1.1245
 4688TIP3   OH235478   2.177   1.337  12.693 -0.2087  0.3425  0.2001
 4688TIP3    H135479   2.117   1.409  12.675 -0.2188  0.3698  0.3427
 4688TIP3    H235480   2.259   1.380  12.715 -0.0998  0.3036 -0.1211
 4689TIP3   OH235481   1.002   0.033   2.625  0.1721 -0.0603  0.1632
 4689TIP3    H135482   1.043   0.063   2.544 -0.3270  0.8664  0.2359
 4689TIP3    H235483   0.926  -0.018   2.596  0.5179 -0.5219  0.0496
 4690TIP3   OH235484   0.750   3.925  12.967 -0.0035  0.1437 -0.1468
 4690TIP3    H135485   0.690   3.901  13.038 -1.8720  0.5309 -1.5109
 4690TIP3    H235486   0.793   3.843  12.943  1.2485  0.1301  1.8727
 4691TIP3   OH235487   3.889   3.812   2.798  0.3919 -0.0065 -0.3351
 4691TIP3    H135488   3.984   3.801   2.788  0.1822  0.1216 -3.3125
 4691TIP3    H235489   3.851   3.732   2.762 -0.6367  0.4583 -0.3259
 4692TIP3   OH235490   1.239   3.258  14.449  0.2519  0.0254 -0.0773
 4692TIP3    H135491   1.179   3.184  14.438  2.0732 -1.5917  0.1901
 4692TIP3    H235492   1.292   3.234  14.526  1.9939  0.7850 -0.9892
 4693TIP3   OH235493   5.379   0.468   7.140  0.1665 -1.0065 -0.2897
 4693TIP3    H135494   5.401   0.553   7.102  0.2825 -1.4506 -1.2667
 4693TIP3    H235495   5.385   0.407   7.066  0.1369 -1.8703  0.4012
 4694TIP3   OH235496   6.741   2.478   1.724 -0.2551 -0.0382 -0.1069
 4694TIP3    H135497   6.687   2.552   1.751 -0.1455 -0.4612  1.3213
 4694TIP3    H235498   6.777   2.505   1.639 -0.0147  1.6579  0.4993
 4695TIP3   OH235499   3.848   0.601   6.345 -0.0108  0.2250 -0.1278
 4695TIP3    H135500   3.828   0.553   6.426  0.8290  0.8005  0.4401
 4695TIP3    H235501   3.933   0.641   6.362 -0.8606  2.2554 -0.4183
 4696TIP3   OH235502   4.620   0.553  13.441 -0.8152  0.0442  0.3279
 4696TIP3    H135503   4.546   0.556  13.379  0.3051 -0.3367 -1.0782
 4696TIP3    H235504   4.691   0.514  13.391  0.3518  0.3915  1.6687
 4697TIP3   OH235505   3.117   3.523  15.252  0.1297  0.4826 -0.6683
 4697TIP3    H135506   3.121   3.474  15.170  2.0386  0.8370 -0.8496
 4697TIP3    H235507   3.201   3.504  15.295 -1.1198 -0.3473  1.6230
 4698TIP3   OH235508   0.255   1.526  13.613 -0.7850 -0.3963  0.3040
 4698TIP3    H135509   0.190   1.590  13.584 -0.8504 -1.1839 -1.4293
 4698TIP3    H235510   0.206   1.445  13.626 -0.7167 -0.1427  2.5424
 4699TIP3   OH235511   5.179   4.256   2.013  0.0002  0.5300 -0.4291
 4699TIP3    H135512   5.254   4.220   1.968  0.7118 -0.9020  1.7411
 4699TIP3    H235513   5.204   4.347   2.032  0.8363  0.3223 -0.4916
 4700TIP3   OH235514   5.700   4.620   1.270  0.0823  0.3253  0.3335
 4700TIP3    H135515   5.662   4.701   1.301 -0.3036  0.7263 -1.1484
 4700TIP3    H235516   5.676   4.555   1.337 -2.0431  0.8316  0.1114
 4701TIP3   OH235517   3.590   4.522   5.489  0.2589 -0.2042  0.9215
 4701TIP3    H135518   3.683   4.536   5.475  0.1502 -0.9338 -0.9154
 4701TIP3    H235519   3.584   4.434   5.526  0.2415 -1.3852 -1.6267
 4702TIP3   OH235520   4.685   4.019   4.157  0.2033  0.6701 -0.0355
 4702TIP3    H135521   4.601   3.989   4.124  0.5717 -0.0054 -0.3775
 4702TIP3    H235522   4.682   4.114   4.146 -1.8534  1.1372  3.0890
 4703TIP3   OH235523   1.528   0.837   0.917  0.1058 -0.4952  0.1389
 4703TIP3    H135524   1.479   0.872   0.991  0.8875  1.5147 -0.2388
 4703TIP3    H235525   1.619   0.842   0.944  0.4049  0.3337 -0.9735
 4704TIP3   OH235526   6.148   2.946   0.569  0.2050  0.4728  0.4852
 4704TIP3    H135527   6.201   2.898   0.505 -2.1002  1.4973 -2.4130
 4704TIP3    H235528   6.204   3.017   0.599  1.9860 -1.1253  1.1387
 4705TIP3   OH235529   6.185   4.442  12.413 -0.1391  0.0105  0.3915
 4705TIP3    H135530   6.249   4.414  12.479  0.3594  1.7125  0.6805
 4705TIP3    H235531   6.155   4.528  12.444 -2.3011 -0.5682  0.0636
 4706TIP3   OH235532   2.555   1.600   3.707  0.1169 -0.0410  0.4761
 4706TIP3    H135533   2.461   1.605   3.724  0.2244  1.6388  0.7677
 4706TIP3    H235534   2.568   1.513   3.670 -1.5208 -0.3664  0.5815
 4707TIP3   OH235535   4.949   6.031  16.434 -0.2093  0.0804  0.4994
 4707TIP3    H135536   5.040   6.026  16.405 -0.5951 -2.8795 -0.5837
 4707TIP3    H235537   4.954   6.061  16.525  1.9132 -0.7603  0.7078
 4708TIP3   OH235538   2.915   4.920  16.200 -0.1587  0.4703 -0.3358
 4708TIP3    H135539   2.994   4.883  16.161  0.5542  2.1851 -0.6208
 4708TIP3    H235540   2.864   4.951  16.126  0.1907  1.7914 -0.0560
 4709TIP3   OH235541   3.589   2.271   2.969  0.0827  0.3973  0.4311
 4709TIP3    H135542   3.569   2.208   3.038 -0.8271  0.7222  0.4830
 4709TIP3    H235543   3.613   2.217   2.893 -0.8890 -0.0342  0.4129
 4710TIP3   OH235544   4.960   5.010  11.166 -0.0494  0.5715  0.5430
 4710TIP3    H135545   4.936   5.097  11.134  0.0461  0.6017  0.5534
 4710TIP3    H235546   5.051   4.999  11.138  0.6114  1.2808  2.2427
 4711TIP3   OH235547   4.327   1.275   0.451 -0.1732  0.9514 -0.0930
 4711TIP3    H135548   4.287   1.268   0.364  1.4068  1.5813 -0.8970
 4711TIP3    H235549   4.292   1.357   0.486 -2.8949 -0.5438  1.0397
 4712TIP3   OH235550   6.259   0.938   4.240  0.2493 -0.0744 -0.6148
 4712TIP3    H135551   6.313   0.884   4.182 -0.3284  0.2383 -1.4713
 4712TIP3    H235552   6.202   0.987   4.180 -0.1976  0.4368  0.2159
 4713TIP3   OH235553   5.488   4.748  11.290 -0.7749 -0.0748  1.2265
 4713TIP3    H135554   5.506   4.654  11.298  0.0234  0.0175  0.7090
 4713TIP3    H235555   5.553   4.790  11.346  1.1610  0.2956 -1.1276
 4714TIP3   OH235556   0.239   6.346  12.489  0.1590 -0.0468 -0.6868
 4714TIP3    H135557   0.234   6.401  12.567 -1.4436  0.1991 -0.9122
 4714TIP3    H235558   0.307   6.386  12.436  0.5696  0.3831  0.1447
 4715TIP3   OH235559   3.771   0.029   0.273 -0.4820 -0.1355 -0.2294
 4715TIP3    H135560   3.764  -0.023   0.353 -1.8238 -0.8974 -0.8173
 4715TIP3    H235561   3.681   0.040   0.243 -0.1313  1.4855 -0.7981
 4716TIP3   OH235562   5.664   2.483   1.651  0.0264  0.5331 -0.0621
 4716TIP3    H135563   5.737   2.449   1.599  1.0195  0.8239  1.0943
 4716TIP3    H235564   5.698   2.487   1.740 -1.0804  1.6249  0.3376
 4717TIP3   OH235565   2.144   1.215  13.105  0.3478 -0.0312 -0.1742
 4717TIP3    H135566   2.179   1.208  13.193  0.1852  1.9575  0.0813
 4717TIP3    H235567   2.051   1.235  13.117  0.4094  0.6875 -0.7640
 4718TIP3   OH235568   3.096   3.294   5.809 -0.4318  0.1856  0.1566
 4718TIP3    H135569   3.057   3.376   5.838 -0.2016 -0.1216  1.4061
 4718TIP3    H235570   3.173   3.320   5.758 -0.3728  0.7564  0.5279
 4719TIP3   OH235571   1.905   1.373  12.914  0.1217 -0.2052 -0.0948
 4719TIP3    H135572   1.922   1.281  12.893 -0.5162 -0.1033 -1.1262
 4719TIP3    H235573   1.809   1.378  12.919  0.1899  0.0702  1.5943
 4720TIP3   OH235574   0.244   3.359  15.040  0.4109  0.0099  0.0935
 4720TIP3    H135575   0.218   3.383  15.128 -0.1554 -0.1115 -0.0376
 4720TIP3    H235576   0.282   3.272  15.049  1.6457  0.5574  0.4278
 4721TIP3   OH235577   2.213   3.858  12.444 -0.1387 -0.1509 -0.2960
 4721TIP3    H135578   2.135   3.805  12.426 -1.0418  0.6225  1.0891
 4721TIP3    H235579   2.180   3.948  12.448  0.6029  0.0800  1.4003
 4722TIP3   OH235580   4.958   2.936  16.360  0.3016  0.3836  0.5280
 4722TIP3    H135581   5.033   2.971  16.408 -0.0745 -0.2651  1.6065
 4722TIP3    H235582   4.930   2.859  16.410  0.2286 -0.6440 -1.0217
 4723TIP3   OH235583   6.401   3.306  13.578 -0.2247  0.0179 -0.2446
 4723TIP3    H135584   6.316   3.335  13.543 -1.3750 -1.7435  0.9635
 4723TIP3    H235585   6.423   3.372  13.644 -2.5264 -1.3784  2.0728
 4724TIP3   OH235586   5.887   2.074  13.119  0.6655 -0.0276  0.0997
 4724TIP3    H135587   5.897   1.980  13.130  0.2000 -0.2871 -1.5277
 4724TIP3    H235588   5.846   2.103  13.201  0.9258 -1.2045  0.6689
 4725TIP3   OH235589   3.742   3.087   3.919  0.3461 -0.3161 -0.6936
 4725TIP3    H135590   3.746   3.047   4.006  0.7239 -0.6926 -0.8779
 4725TIP3    H235591   3.827   3.131   3.909 -0.0210  0.4423 -0.5406
 4726TIP3   OH235592   5.579   2.570  13.050  0.0416 -0.1519 -0.1192
 4726TIP3    H135593   5.484   2.569  13.046 -0.0457  0.3168  1.2276
 4726TIP3    H235594   5.606   2.624  12.975 -0.7175 -0.6556 -0.7641
 4727TIP3   OH235595   5.487   2.645   2.657 -0.0455  0.2309  0.0237
 4727TIP3    H135596   5.451   2.580   2.716  1.2861 -1.0539 -0.5204
 4727TIP3    H235597   5.441   2.631   2.574  1.5653 -1.3661 -0.6522
 4728TIP3   OH235598   2.057   1.767  16.202  0.7837  0.1776 -1.1555
 4728TIP3    H135599   2.042   1.860  16.216 -1.5045 -0.5340  2.6543
 4728TIP3    H235600   2.009   1.747  16.122  0.4549  2.1052 -1.4918
 4729TIP3   OH235601   1.028   3.659  15.293  0.9248 -0.2495  0.3440
 4729TIP3    H135602   1.075   3.728  15.247  0.0636 -0.0699 -0.3010
 4729TIP3    H235603   1.039   3.679  15.386  2.2525 -0.3230  0.2234
 4730TIP3   OH235604   2.308   2.651  15.386  0.3192  0.5699 -0.1462
 4730TIP3    H135605   2.343   2.579  15.334 -0.8446  0.9558 -1.5317
 4730TIP3    H235606   2.385   2.690  15.428  1.3861  0.5037 -1.9366
 4731TIP3   OH235607   5.238   0.207  16.623  0.0529  0.5513  0.0630
 4731TIP3    H135608   5.320   0.256  16.612  0.5795 -0.4916 -0.7464
 4731TIP3    H235609   5.187   0.228  16.545 -0.2295  0.7672  0.3050
 4732TIP3   OH235610   2.532   0.371  12.673 -0.2156 -0.5684 -0.2774
 4732TIP3    H135611   2.488   0.375  12.758  0.5064  1.0129  0.0629
 4732TIP3    H235612   2.615   0.328  12.691  0.1129  0.1370 -0.0904
 4733TIP3   OH235613   6.438   5.096  11.969  0.4054 -0.3454  0.3497
 4733TIP3    H135614   6.408   5.060  12.053  1.3134 -0.3205  0.6925
 4733TIP3    H235615   6.467   5.020  11.919  0.8984 -0.2459  0.4852
 4734TIP3   OH235616   2.928   2.788  13.483 -0.1287 -0.0872  0.6086
 4734TIP3    H135617   2.895   2.760  13.568  0.8560 -1.8456  0.4638
 4734TIP3    H235618   2.965   2.709  13.445  1.0120  1.0355 -0.7193
 4735TIP3   OH235619   2.023   1.730  14.683  0.5818  0.7454 -0.0372
 4735TIP3    H135620   2.113   1.723  14.649 -0.1611 -0.3418 -1.9326
 4735TIP3    H235621   2.003   1.823  14.676  0.9120  0.7388 -1.5017
 4736TIP3   OH235622   1.696   4.110   5.285  0.1227 -0.0858  0.3995
 4736TIP3    H135623   1.605   4.097   5.256 -0.7545  2.0802  1.9508
 4736TIP3    H235624   1.747   4.105   5.204 -1.6750  1.0946 -0.8853
 4737TIP3   OH235625   4.946   3.160  15.456  0.4430 -0.5643 -0.2571
 4737TIP3    H135626   5.033   3.197  15.472 -0.3898  1.1770  0.6067
 4737TIP3    H235627   4.962   3.077  15.411  2.5164 -0.0805 -0.4937
 4738TIP3   OH235628   0.502   4.562   2.468  0.4371 -0.4603 -0.5876
 4738TIP3    H135629   0.575   4.527   2.417 -0.1444 -1.0480 -1.0354
 4738TIP3    H235630   0.477   4.490   2.526  0.6102 -0.0486  0.0082
 4739TIP3   OH235631   6.007   0.164   3.950  0.2810 -0.9966 -0.1606
 4739TIP3    H135632   5.912   0.157   3.946 -0.3478  4.0357 -0.6216
 4739TIP3    H235633   6.029   0.143   4.041 -1.6254 -0.0575  0.5704
 4740TIP3   OH235634   4.254   6.572  15.551 -0.0304 -0.2849  0.4176
 4740TIP3    H135635   4.328   6.512  15.544 -0.3765 -0.6085 -0.7094
 4740TIP3    H235636   4.240   6.603  15.462  0.7905  2.3171  1.1159
 4741TIP3   OH235637   4.592   2.499  15.113 -0.6394 -0.4419  0.5711
 4741TIP3    H135638   4.603   2.577  15.059 -1.5051 -0.5173  0.2743
 4741TIP3    H235639   4.514   2.517  15.165 -0.6223 -0.9622  0.7778
 4742TIP3   OH235640   4.379   0.758   2.879 -0.3104 -0.3091 -0.5614
 4742TIP3    H135641   4.447   0.702   2.844  0.6698  0.3081  0.2908
 4742TIP3    H235642   4.425   0.817   2.939 -1.6268 -0.0429  0.2273
 4743TIP3   OH235643   1.015   2.299  11.042 -0.0896 -0.1537  0.1231
 4743TIP3    H135644   1.047   2.214  11.073 -5.5206 -2.1472  1.4791
 4743TIP3    H235645   0.991   2.284  10.951  0.9423  0.7167 -0.3164
 4744TIP3   OH235646   6.521   4.752  11.322 -0.0686  0.2615  0.1164
 4744TIP3    H135647   6.442   4.764  11.374 -1.3444  0.6326 -1.8294
 4744TIP3    H235648   6.530   4.832  11.271  0.6997 -0.3693 -0.7923
 4745TIP3   OH235649   2.481   1.455  13.651  0.0140 -0.4363  0.3626
 4745TIP3    H135650   2.503   1.487  13.739  2.5484 -0.2169 -0.2647
 4745TIP3    H235651   2.434   1.527  13.610 -1.4572 -0.6525  1.5989
 4746TIP3   OH235652   6.561   4.594  13.111  0.4157  0.2211 -0.0665
 4746TIP3    H135653   6.542   4.688  13.103 -0.3623  0.0408 -0.3723
 4746TIP3    H235654   6.650   4.591  13.146  1.1152  1.0677 -1.6642
 4747TIP3   OH235655   6.315   2.547  15.330  0.2178 -0.2400  0.3979
 4747TIP3    H135656   6.291   2.469  15.279  0.7033 -1.1624  1.5276
 4747TIP3    H235657   6.393   2.580  15.286 -0.6559  0.3225 -0.7884
 4748TIP3   OH235658   0.197   5.553  17.296 -0.0694 -0.3229 -0.5454
 4748TIP3    H135659   0.171   5.494  17.366 -0.2043  1.1486  0.6885
 4748TIP3    H235660   0.156   5.516  17.217  0.0416 -1.9736  0.1159
 4749TIP3   OH235661   3.440   2.870  15.922 -0.0163  0.3942  0.5073
 4749TIP3    H135662   3.511   2.907  15.976  1.4332  0.2252 -1.1939
 4749TIP3    H235663   3.450   2.914  15.838 -2.3090  0.7408  0.3771
 4750TIP3   OH235664   5.257   1.007   5.071 -0.3473  0.4632 -0.1108
 4750TIP3    H135665   5.195   0.935   5.085 -0.0633  0.2668  0.1321
 4750TIP3    H235666   5.228   1.075   5.131 -1.3708  1.0387 -1.2054
 4751TIP3   OH235667   4.051   0.052  16.384  0.3837  0.4105 -0.9738
 4751TIP3    H135668   4.088  -0.035  16.371  0.5371  0.1502  0.8558
 4751TIP3    H235669   4.113   0.096  16.442 -1.2992  0.5297  0.8638
 4752TIP3   OH235670   2.184   5.562  13.936 -0.0073 -0.1877 -0.1515
 4752TIP3    H135671   2.139   5.646  13.929  0.7258  0.1120 -1.5087
 4752TIP3    H235672   2.123   5.506  13.985 -0.6952  0.9807  0.3654
 4753TIP3   OH235673   2.201   4.109   3.762  0.4349 -0.6071  0.0156
 4753TIP3    H135674   2.195   4.058   3.843 -1.2856  0.8665  0.8863
 4753TIP3    H235675   2.282   4.159   3.771 -0.4520  0.6324  1.5521
 4754TIP3   OH235676   2.251   4.821  12.792 -0.1033  0.1832  0.5519
 4754TIP3    H135677   2.284   4.885  12.728  1.3851 -2.3682 -1.4789
 4754TIP3    H235678   2.156   4.832  12.791 -0.0733  0.7369 -1.6218
 4755TIP3   OH235679   2.713   6.576   5.284 -0.2615  0.7738 -0.1531
 4755TIP3    H135680   2.730   6.579   5.378 -0.1317 -1.3567 -0.0466
 4755TIP3    H235681   2.671   6.491   5.270 -1.5826  1.6424 -1.8472
 4756TIP3   OH235682   4.963   5.671  13.243 -0.4067  0.0573 -0.3463
 4756TIP3    H135683   5.032   5.671  13.176 -0.8811  1.1159 -0.8456
 4756TIP3    H235684   4.904   5.600  13.216 -1.4552  1.4603 -1.9912
 4757TIP3   OH235685   3.010   2.361  12.156  0.3560 -0.4587  0.1449
 4757TIP3    H135686   2.926   2.316  12.146 -0.4523  1.1033 -0.5269
 4757TIP3    H235687   3.003   2.405  12.241 -1.0004  2.4644 -1.3348
 4758TIP3   OH235688   1.506   0.746   2.109  0.0733  0.5565  0.4579
 4758TIP3    H135689   1.554   0.813   2.060  2.3876 -1.1962  0.1554
 4758TIP3    H235690   1.491   0.676   2.045 -4.4105  1.5581  0.0809
 4759TIP3   OH235691   2.501   3.879   1.945  0.5320  0.3838  0.1766
 4759TIP3    H135692   2.502   3.857   1.852  0.9450 -1.3445  0.5582
 4759TIP3    H235693   2.523   3.973   1.948  1.7465  0.1832 -1.3864
 4760TIP3   OH235694   3.604   2.435   5.412 -0.0134  0.2108 -0.2415
 4760TIP3    H135695   3.674   2.499   5.415  0.3648 -0.2097  1.7047
 4760TIP3    H235696   3.545   2.460   5.483 -1.1081 -0.2511 -0.9498
 4761TIP3   OH235697   0.238   2.242   3.201  0.0005  0.6293  0.1450
 4761TIP3    H135698   0.332   2.225   3.200  0.3532  2.2602  0.7746
 4761TIP3    H235699   0.211   2.226   3.292 -0.7760 -1.7630 -0.4485
 4762TIP3   OH235700   2.777   2.543  13.936 -0.5984  0.7988  0.6378
 4762TIP3    H135701   2.755   2.565  14.027 -1.0524 -1.8206  1.2280
 4762TIP3    H235702   2.867   2.512  13.939 -0.2617  1.6708 -0.0154
 4763TIP3   OH235703   3.917   4.231   5.515  0.3327  0.1350 -0.6828
 4763TIP3    H135704   3.880   4.304   5.466  0.6114  0.1734 -0.8380
 4763TIP3    H235705   3.876   4.153   5.477 -2.0097  0.3338  1.2444
 4764TIP3   OH235706   3.914   4.075  16.421 -0.6452  0.2991 -0.3545
 4764TIP3    H135707   3.982   4.012  16.444  0.0694  1.4411  0.8305
 4764TIP3    H235708   3.955   4.130  16.354 -0.5985  0.6341 -0.0535
 4765TIP3   OH235709   2.756   1.775   3.586  0.6403 -0.2453  0.1630
 4765TIP3    H135710   2.702   1.711   3.632 -0.3553  0.2562 -0.2852
 4765TIP3    H235711   2.743   1.857   3.635  0.0387  0.1543 -0.6371
 4766TIP3   OH235712   3.101   6.345   0.413 -0.5775 -0.0530 -0.1265
 4766TIP3    H135713   3.012   6.378   0.398  0.1423  1.5944 -1.1217
 4766TIP3    H235714   3.100   6.257   0.378 -1.4128  0.5154 -1.6387
 4767TIP3   OH235715   1.283   3.506  17.186 -0.1275 -0.4778 -0.3010
 4767TIP3    H135716   1.248   3.505  17.275  1.7987 -2.3892  0.5287
 4767TIP3    H235717   1.354   3.570  17.188  1.0924 -1.7872  0.1040
 4768TIP3   OH235718   0.160   4.704   2.735  0.1574  0.2164  0.3370
 4768TIP3    H135719   0.156   4.617   2.773  2.8909  0.1083  0.5327
 4768TIP3    H235720   0.184   4.761   2.808 -0.1635  0.9197 -0.0883
 4769TIP3   OH235721   3.458   6.606  16.247 -0.0820  0.1384  0.2181
 4769TIP3    H135722   3.442   6.517  16.279  0.2882 -0.2740 -0.6954
 4769TIP3    H235723   3.531   6.638  16.300  0.4865 -0.5065 -0.1561
 4770TIP3   OH235724   3.417   0.204   2.377  0.4629  0.1535 -0.1692
 4770TIP3    H135725   3.476   0.243   2.441 -1.1312 -0.2863  1.6371
 4770TIP3    H235726   3.430   0.110   2.386 -1.1722  0.0010  0.9722
 4771TIP3   OH235727   1.880   4.202   2.132  0.4056  0.3020  0.2650
 4771TIP3    H135728   1.787   4.191   2.110  0.2992  1.5103  0.0342
 4771TIP3    H235729   1.918   4.242   2.053  1.2835 -0.8412  0.0850
 4772TIP3   OH235730   4.614   3.930  15.899 -0.0866  0.8094 -0.0287
 4772TIP3    H135731   4.573   4.012  15.927 -0.1691  0.7104  0.1397
 4772TIP3    H235732   4.652   3.951  15.813 -0.3756  0.9394 -0.1279
 4773TIP3   OH235733   5.799   5.582   3.051 -0.3705 -0.7397  0.0782
 4773TIP3    H135734   5.849   5.637   3.112 -0.2753 -0.0801 -0.5780
 4773TIP3    H235735   5.856   5.506   3.035 -0.4644 -0.9929  0.9259
 4774TIP3   OH235736   0.034   0.601  13.714 -0.0042 -0.3584  0.3839
 4774TIP3    H135737   0.106   0.657  13.742 -1.8723  3.4349 -1.6227
 4774TIP3    H235738   0.058   0.574  13.625 -1.7476  2.8207 -1.2409
 4775TIP3   OH235739   1.297   0.926  12.361 -0.1336  0.4450 -0.5846
 4775TIP3    H135740   1.326   0.877  12.439 -1.7788  0.2514 -0.0630
 4775TIP3    H235741   1.378   0.966  12.327  0.7785 -0.2546  0.6535
 4776TIP3   OH235742   1.074   4.554   4.403 -0.3310  0.0313 -0.2118
 4776TIP3    H135743   1.150   4.506   4.435 -0.5603 -1.6213 -1.9395
 4776TIP3    H235744   1.049   4.508   4.323 -3.7219 -0.1101  0.7765
 4777TIP3   OH235745   0.096   4.486   5.908  0.1879  0.0140  0.2762
 4777TIP3    H135746   0.108   4.580   5.891  0.9171 -0.1003  0.1138
 4777TIP3    H235747   0.185   4.450   5.902 -0.1657 -0.7824 -0.2449
 4778TIP3   OH235748   4.005   2.074   4.719 -0.3073  0.7160  0.6092
 4778TIP3    H135749   3.980   2.091   4.810 -0.0134  1.2638  0.5915
 4778TIP3    H235750   3.933   2.021   4.685  0.7337 -1.6455  1.8502
 4779TIP3   OH235751   2.946   6.317  11.218 -0.1955  0.6022 -0.2380
 4779TIP3    H135752   2.978   6.313  11.308 -2.0487 -1.6634  0.4065
 4779TIP3    H235753   2.991   6.245  11.173 -1.4927 -0.2016 -0.2929
 4780TIP3   OH235754   1.352   3.309  16.337  0.3862  0.4212 -0.2554
 4780TIP3    H135755   1.379   3.388  16.383  1.2114 -0.4422  0.8045
 4780TIP3    H235756   1.256   3.310  16.340  0.4151  0.3738  1.5480
 4781TIP3   OH235757   0.125   4.480   2.890  0.6657  0.1444  0.6948
 4781TIP3    H135758   0.170   4.419   2.949  0.0843  0.6946  1.7162
 4781TIP3    H235759   0.130   4.565   2.934  2.0900  1.0318 -1.0290
 4782TIP3   OH235760   5.287   0.199  11.557  0.1737  0.4763 -0.3612
 4782TIP3    H135761   5.242   0.166  11.479  2.6485 -0.4641 -1.5051
 4782TIP3    H235762   5.328   0.280  11.528 -1.8255  2.0901  1.0620
 4783TIP3   OH235763   1.534   4.239   6.626 -0.4304 -0.7956  0.0012
 4783TIP3    H135764   1.589   4.177   6.578  0.4568  0.4847 -0.6926
 4783TIP3    H235765   1.562   4.229   6.717  0.3361 -0.8015 -0.2235
 4784TIP3   OH235766   6.397   2.344   2.960  0.3300 -0.3161  0.1133
 4784TIP3    H135767   6.368   2.253   2.968 -0.6736  0.0615  1.1226
 4784TIP3    H235768   6.386   2.380   3.048  0.0064  0.9764 -0.4311
 4785TIP3   OH235769   0.368   5.408   5.293  0.2254  0.0038 -0.2339
 4785TIP3    H135770   0.385   5.364   5.210 -1.1077 -1.6309  0.3021
 4785TIP3    H235771   0.274   5.425   5.293  0.1712 -0.1858  0.9822
 4786TIP3   OH235772   3.548   0.146   0.800  0.3194 -0.0582 -0.6387
 4786TIP3    H135773   3.488   0.146   0.875 -2.1433  0.3025 -2.5096
 4786TIP3    H235774   3.537   0.060   0.760  0.4149  0.3075 -1.4749
 4787TIP3   OH235775   2.768   3.347  13.592  0.2019 -0.4360 -0.1433
 4787TIP3    H135776   2.757   3.350  13.496 -1.2110  0.0371  0.0073
 4787TIP3    H235777   2.758   3.438  13.619  2.8076 -0.1943  0.2858
 4788TIP3   OH235778   2.755   4.490  14.721  0.1144 -0.5836 -0.1034
 4788TIP3    H135779   2.673   4.527  14.754  0.0698  1.3450 -2.1171
 4788TIP3    H235780   2.729   4.407  14.681 -0.7806 -0.2383 -0.2616
 4789TIP3   OH235781   2.850   4.021   1.150  0.4526 -0.0122  0.3060
 4789TIP3    H135782   2.901   3.971   1.087  0.8855 -0.9453  1.3736
 4789TIP3    H235783   2.821   4.098   1.100  0.0979 -1.0955 -1.2526
 4790TIP3   OH235784   5.187   3.903  17.285 -0.3055 -0.6278 -0.4971
 4790TIP3    H135785   5.112   3.856  17.321  0.2108 -0.4638  0.8839
 4790TIP3    H235786   5.150   3.967  17.225 -1.2520 -0.6974  0.0015
 4791TIP3   OH235787   6.679   4.693   5.643  0.0010  0.0789 -0.3541
 4791TIP3    H135788   6.728   4.625   5.597 -0.2587 -0.6128  0.3804
 4791TIP3    H235789   6.601   4.707   5.589 -0.2260 -0.6164 -0.2056
 4792TIP3   OH235790   3.147   0.451   5.513 -0.2471  0.0295  0.3000
 4792TIP3    H135791   3.143   0.410   5.426 -1.5299  1.6844 -0.4860
 4792TIP3    H235792   3.057   0.477   5.531 -0.0004 -0.3093  2.1710
 4793TIP3   OH235793   0.467   2.559   1.645  0.0953  0.0045 -0.9128
 4793TIP3    H135794   0.436   2.604   1.724 -0.9344  0.1345 -1.3853
 4793TIP3    H235795   0.402   2.491   1.628  0.5958 -0.3780 -1.3472
 4794TIP3   OH235796   5.521   1.893  15.297  0.2371 -0.2917 -0.2219
 4794TIP3    H135797   5.432   1.861  15.281  0.3629 -0.1317 -1.3058
 4794TIP3    H235798   5.577   1.818  15.278  0.3673 -0.2684  0.0613
 4795TIP3   OH235799   3.203   0.842  11.988 -0.3123 -0.9024 -0.5107
 4795TIP3    H135800   3.160   0.762  12.017 -0.5954 -0.8220 -0.7032
 4795TIP3    H235801   3.286   0.813  11.949  0.1762 -0.9957  0.5715
 4796TIP3   OH235802   1.566   2.294  11.861 -0.1099  0.4764 -0.0988
 4796TIP3    H135803   1.555   2.288  11.766 -0.2427 -1.4041 -0.0150
 4796TIP3    H235804   1.479   2.315  11.894 -0.4548 -0.5622 -0.3086
 4797TIP3   OH235805   1.342   0.478   5.929 -0.1853  0.0537  0.1673
 4797TIP3    H135806   1.346   0.406   5.992 -1.3407  0.5054  0.7928
 4797TIP3    H235807   1.255   0.471   5.891 -0.4352  1.3173  0.4793
 4798TIP3   OH235808   2.493   0.230   5.174 -0.3430  0.0731  0.1752
 4798TIP3    H135809   2.535   0.150   5.207 -1.3505  0.3677  2.3006
 4798TIP3    H235810   2.409   0.201   5.138  0.0159 -0.0153 -0.6230
 4799TIP3   OH235811   3.214   2.457  13.563  0.1019 -0.1868 -0.0304
 4799TIP3    H135812   3.152   2.477  13.493  0.5052  0.2199 -0.2795
 4799TIP3    H235813   3.173   2.386  13.612 -1.7631  1.6989  1.3405
 4800TIP3   OH235814   4.059   4.529   0.976  0.1291 -0.2013  0.2941
 4800TIP3    H135815   4.116   4.478   1.033  2.0627  1.0863 -0.3740
 4800TIP3    H235816   3.979   4.542   1.027 -0.3970 -3.6326  0.5503
 4801TIP3   OH235817   4.253   1.785  16.403 -0.0352 -0.1501 -0.1505
 4801TIP3    H135818   4.310   1.708  16.408 -1.6145 -1.3935 -0.4270
 4801TIP3    H235819   4.168   1.754  16.434 -0.3751  1.8988  1.2071
 4802TIP3   OH235820   5.934   1.542  15.366 -0.2928 -0.0642  0.4393
 4802TIP3    H135821   6.020   1.504  15.352 -0.0377  0.2583  1.0825
 4802TIP3    H235822   5.951   1.626  15.408 -0.9581 -0.4782  1.5902
 4803TIP3   OH235823   3.368   1.201  16.221  0.3119 -0.3095 -0.3252
 4803TIP3    H135824   3.299   1.143  16.188 -0.3068 -0.5780  1.3545
 4803TIP3    H235825   3.392   1.255  16.145 -0.7528 -1.1624 -1.3081
 4804TIP3   OH235826   3.240   5.344  13.209 -0.0679 -0.3690  0.4836
 4804TIP3    H135827   3.266   5.429  13.245  0.3179 -0.1347 -0.3092
 4804TIP3    H235828   3.147   5.337  13.228 -0.6850  1.3360 -1.4761
 4805TIP3   OH235829   6.669   2.088   1.313 -0.0177  0.3331  0.4168
 4805TIP3    H135830   6.659   2.114   1.405 -0.4563  1.3200  0.1025
 4805TIP3    H235831   6.666   1.992   1.315 -0.0501  0.3424  1.4268
 4806TIP3   OH235832   5.248   0.768   0.404  0.8379  0.8105 -0.1144
 4806TIP3    H135833   5.165   0.728   0.375 -1.3822  3.2144  2.3991
 4806TIP3    H235834   5.252   0.750   0.498  3.3588  0.5910 -0.1909
 4807TIP3   OH235835   5.485   1.538   0.477  0.2755  0.5372  0.2246
 4807TIP3    H135836   5.535   1.614   0.448  1.0149  0.9873  2.4586
 4807TIP3    H235837   5.442   1.567   0.558  0.8831 -1.4852  1.3596
 4808TIP3   OH235838   2.763   1.416  14.075  0.5514 -0.0172 -0.1264
 4808TIP3    H135839   2.839   1.471  14.056  0.1744  0.4478 -0.3157
 4808TIP3    H235840   2.760   1.410  14.171  0.7754  0.0335 -0.1177
 4809TIP3   OH235841   2.648   2.809   2.062  0.4375 -0.6382 -0.3624
 4809TIP3    H135842   2.652   2.743   1.993 -0.8431 -0.6601 -0.4488
 4809TIP3    H235843   2.728   2.796   2.112  1.4068 -0.5962 -1.8482
 4810TIP3   OH235844   3.770   1.471   4.434 -0.4166 -0.1540  0.8851
 4810TIP3    H135845   3.824   1.550   4.424 -0.5416 -0.2664 -1.2352
 4810TIP3    H235846   3.804   1.411   4.367 -0.8698 -1.5864  1.9050
 4811TIP3   OH235847   0.027   3.274  14.102 -0.0276 -0.3956  0.2094
 4811TIP3    H135848   0.114   3.305  14.076  0.8275 -1.9949  0.9846
 4811TIP3    H235849  -0.009   3.344  14.155  1.4603 -0.3263  1.1828
 4812TIP3   OH235850   3.774   0.735   3.624 -0.2650  0.0961 -0.0404
 4812TIP3    H135851   3.813   0.683   3.553  0.5181 -0.3152  0.6627
 4812TIP3    H235852   3.758   0.671   3.694 -1.2175  0.4585  0.0799
 4813TIP3   OH235853   0.992   2.674  12.555 -0.3920 -0.4068 -0.1076
 4813TIP3    H135854   0.923   2.654  12.493 -2.1346 -2.4739  2.2858
 4813TIP3    H235855   1.067   2.624  12.524 -1.1192 -1.1444 -0.7171
 4814TIP3   OH235856   1.105   1.664  16.142 -0.0480 -0.0678  0.3912
 4814TIP3    H135857   1.061   1.710  16.214 -0.9069 -0.1326 -0.0905
 4814TIP3    H235858   1.061   1.695  16.063  0.0281 -0.9781 -0.0171
 4815TIP3   OH235859   3.175   0.173  11.645 -0.3916  0.1662  0.5357
 4815TIP3    H135860   3.248   0.204  11.591  2.2336 -1.6363  2.8426
 4815TIP3    H235861   3.155   0.247  11.702 -0.5550  0.7414 -0.2466
 4816TIP3   OH235862   6.592   5.739   2.967 -0.4316  0.3332 -0.0353
 4816TIP3    H135863   6.633   5.825   2.973  1.3999 -0.5221  0.6469
 4816TIP3    H235864   6.614   5.708   2.879 -1.3878  0.6855 -0.4070
 4817TIP3   OH235865   6.529   3.265  12.029  0.2542 -0.0220 -0.4643
 4817TIP3    H135866   6.445   3.224  12.054  0.1794  1.4568  2.0614
 4817TIP3    H235867   6.507   3.318  11.952 -0.9131 -0.3982 -0.4225
 4818TIP3   OH235868   3.842   0.587  12.102  0.2671 -0.3339 -0.7392
 4818TIP3    H135869   3.801   0.651  12.044 -1.7758 -0.1461  0.7716
 4818TIP3    H235870   3.861   0.636  12.182 -1.7641 -1.6239  0.6262
 4819TIP3   OH235871   3.062   5.112   0.637 -0.0682 -0.5451  0.2604
 4819TIP3    H135872   3.100   5.056   0.705 -2.1730 -1.6923  0.5858
 4819TIP3    H235873   2.969   5.115   0.658 -0.3306  1.4759 -0.9496
 4820TIP3   OH235874   5.113   3.564   5.717 -0.2518 -0.4609 -0.8324
 4820TIP3    H135875   5.020   3.553   5.694 -0.8831  1.9781  0.1156
 4820TIP3    H235876   5.144   3.632   5.657 -0.1760  1.3721  1.1326
 4821TIP3   OH235877   4.413   3.014   4.191 -0.3364 -0.4753  0.2590
 4821TIP3    H135878   4.444   3.094   4.234  1.4420 -0.3212 -1.1906
 4821TIP3    H235879   4.446   3.020   4.101 -3.0724 -1.2355 -0.9234
 4822TIP3   OH235880   4.023   3.547  12.792  0.1240 -0.4422 -0.0394
 4822TIP3    H135881   4.075   3.626  12.809 -0.7821  0.2054 -0.2291
 4822TIP3    H235882   3.985   3.524  12.877  1.4123 -1.4610  0.3114
 4823TIP3   OH235883   2.216   6.385   3.529 -0.4788 -0.1752  0.5169
 4823TIP3    H135884   2.186   6.419   3.614 -1.5251 -0.4480  0.2735
 4823TIP3    H235885   2.147   6.324   3.502 -0.6604  0.6707 -1.0093
 4824TIP3   OH235886   6.340   2.817  14.231  0.5455 -0.6283  0.1405
 4824TIP3    H135887   6.329   2.860  14.146 -1.4552  0.2817  0.7952
 4824TIP3    H235888   6.307   2.728  14.218  0.5419 -0.5892 -0.1156
 4825TIP3   OH235889   1.464   1.792   3.469 -0.2475 -0.2517 -0.3271
 4825TIP3    H135890   1.522   1.728   3.426  1.5204  1.5839 -0.8597
 4825TIP3    H235891   1.490   1.876   3.430 -0.8568  1.0821  2.0032
 4826TIP3   OH235892   3.933   0.136   1.252 -0.0820  0.3641  0.1698
 4826TIP3    H135893   3.868   0.101   1.192  1.6937 -0.7214 -1.2030
 4826TIP3    H235894   3.913   0.230   1.257 -0.9302  0.2805 -1.2421
 4827TIP3   OH235895   2.943   0.534  16.032  0.8315  0.6336 -0.2661
 4827TIP3    H135896   2.945   0.629  16.042  0.2197  0.5177  1.1725
 4827TIP3    H235897   2.978   0.500  16.114 -1.2427 -0.4061  0.2507
 4828TIP3   OH235898   1.309   6.382  15.878 -0.2353 -0.2871  0.0556
 4828TIP3    H135899   1.336   6.310  15.821  3.0129  0.4708  0.4712
 4828TIP3    H235900   1.298   6.342  15.964 -2.7269 -0.9803 -0.5150
 4829TIP3   OH235901   2.109   4.418   2.096  0.0946 -0.2283  0.3579
 4829TIP3    H135902   2.036   4.439   2.154 -0.4249  0.2007 -0.4375
 4829TIP3    H235903   2.088   4.461   2.013  0.2836 -1.7024 -0.5032
 4830TIP3   OH235904   4.470   0.518  14.137 -1.0047 -0.4559 -0.7078
 4830TIP3    H135905   4.452   0.566  14.056  0.5133  1.4486  0.0116
 4830TIP3    H235906   4.405   0.550  14.199 -0.7226 -0.1958 -0.5459
 4831TIP3   OH235907   6.197   3.053  12.879 -0.4448  0.2918  0.4535
 4831TIP3    H135908   6.143   3.009  12.813  1.5573  1.1236 -1.8914
 4831TIP3    H235909   6.161   3.141  12.884 -0.2568  0.3911  0.0554
 4832TIP3   OH235910   4.336   2.312  15.757 -0.0254 -0.0722 -0.4041
 4832TIP3    H135911   4.351   2.330  15.850 -0.9829 -0.4973 -0.1562
 4832TIP3    H235912   4.256   2.360  15.736 -0.7577 -1.3298 -0.5712
 4833TIP3   OH235913   3.568   2.215  10.502  0.0129  0.1707 -0.5191
 4833TIP3    H135914   3.489   2.168  10.529 -0.9653  1.2101 -1.4625
 4833TIP3    H235915   3.536   2.299  10.469  1.5448  0.7279 -0.6674
 4834TIP3   OH235916   2.664   2.456   0.939 -0.6657  0.2708 -0.1011
 4834TIP3    H135917   2.729   2.478   0.872 -1.2358  1.4239 -0.2933
 4834TIP3    H235918   2.679   2.363   0.957 -0.7303 -0.1741 -2.0835
 4835TIP3   OH235919   5.530   5.947  16.799 -0.7337 -0.3976  0.4197
 4835TIP3    H135920   5.482   6.029  16.809  1.3598  0.7981  1.3272
 4835TIP3    H235921   5.539   5.935  16.705  1.1537  1.8651  0.2317
 4836TIP3   OH235922   1.846   5.573  12.026  0.2045 -0.2656  0.1601
 4836TIP3    H135923   1.873   5.614  12.109 -0.4339  0.6705 -0.0734
 4836TIP3    H235924   1.851   5.479  12.043  2.4406 -0.1524  0.4995
 4837TIP3   OH235925   2.323   3.596  12.080 -0.4510 -0.1157 -0.1058
 4837TIP3    H135926   2.402   3.650  12.069 -0.7106  0.4458  0.6669
 4837TIP3    H235927   2.308   3.595  12.175 -1.1621 -0.5243 -0.2159
 4838TIP3   OH235928   2.721   6.520   5.578 -0.0829  0.7296  0.3645
 4838TIP3    H135929   2.772   6.479   5.648  0.2463 -1.2970 -0.9563
 4838TIP3    H235930   2.632   6.489   5.593 -0.1934  1.0746  0.4261
 4839TIP3   OH235931   6.749   0.332   6.189  0.7869 -0.4037 -0.1411
 4839TIP3    H135932   6.815   0.297   6.249 -0.9144 -1.5208  1.1845
 4839TIP3    H235933   6.736   0.262   6.125 -0.3218 -0.9354  0.6318
 4840TIP3   OH235934   0.759   6.215   6.681 -0.0250  0.1023  0.1295
 4840TIP3    H135935   0.845   6.233   6.719  1.2014 -1.4861 -1.6832
 4840TIP3    H235936   0.739   6.294   6.629  0.8768  0.0676 -0.2992
 4841TIP3   OH235937   3.029   3.217   2.189 -0.2852  0.4225  0.1210
 4841TIP3    H135938   3.100   3.272   2.221 -0.7967  2.4334 -1.9455
 4841TIP3    H235939   2.958   3.231   2.252  0.8600 -1.2179  1.9211
 4842TIP3   OH235940   0.838   6.634   2.946 -0.1445 -0.2762  0.6425
 4842TIP3    H135941   0.789   6.715   2.933 -0.8536 -0.2998  2.8161
 4842TIP3    H235942   0.930   6.660   2.937 -0.3849 -0.2240 -3.4331
 4843TIP3   OH235943   6.759   5.397  15.498 -0.3502 -0.3674  0.4023
 4843TIP3    H135944   6.682   5.363  15.543 -0.1205 -0.2569  0.8801
 4843TIP3    H235945   6.832   5.350  15.537 -0.2264 -1.0777 -0.6138
 4844TIP3   OH235946   0.451   0.590   6.174  0.1740 -0.0028 -0.4476
 4844TIP3    H135947   0.428   0.626   6.088 -0.4064  0.3698 -0.1455
 4844TIP3    H235948   0.427   0.498   6.169  0.8803 -0.1636 -0.9480
 4845TIP3   OH235949   6.454   6.580   3.988  0.4590  0.0258 -0.8584
 4845TIP3    H135950   6.544   6.555   4.008  0.1477 -0.1119  0.4804
 4845TIP3    H235951   6.426   6.518   3.921  1.1220 -0.3987 -0.7484
 4846TIP3   OH235952   0.179   4.753   5.953  0.2338 -0.2656  0.2931
 4846TIP3    H135953   0.234   4.740   6.031  1.6647  1.8053 -0.2830
 4846TIP3    H235954   0.136   4.837   5.968  0.2263 -0.0311 -0.9694
 4847TIP3   OH235955   0.527   1.207  11.002 -0.2615 -0.1690 -0.5117
 4847TIP3    H135956   0.583   1.246  11.070  0.6685 -2.5862  0.2253
 4847TIP3    H235957   0.490   1.282  10.956  0.3600  1.5712  1.6180
 4848TIP3   OH235958   4.270   1.175   1.443 -0.1976  0.3992 -0.3935
 4848TIP3    H135959   4.319   1.165   1.525 -0.4314  0.6372 -0.2245
 4848TIP3    H235960   4.302   1.104   1.387  1.1393  1.1890 -0.6844
 4849TIP3   OH235961   1.204   2.060   4.731  0.0572  0.1888  0.4659
 4849TIP3    H135962   1.228   2.134   4.786  0.5982 -0.0692  0.5803
 4849TIP3    H235963   1.232   2.086   4.643  0.1441  0.1626  0.4863
 4850TIP3   OH235964   2.625   2.173  16.856  0.2139 -0.0534  0.2649
 4850TIP3    H135965   2.683   2.213  16.921  0.7749  1.4854 -1.1110
 4850TIP3    H235966   2.538   2.176  16.895  0.0200  3.6765 -0.1651
 4851TIP3   OH235967   2.875   1.366  12.572  0.4587 -0.7088 -0.2605
 4851TIP3    H135968   2.786   1.354  12.541 -0.3913  0.2316  1.6455
 4851TIP3    H235969   2.928   1.371  12.493 -1.5651  1.6792 -1.5785
 4852TIP3   OH235970   0.564   4.838   5.510 -0.4176  0.1308  0.1108
 4852TIP3    H135971   0.496   4.792   5.559  1.4950 -2.9452  0.1120
 4852TIP3    H235972   0.640   4.782   5.516  1.0455  1.5041 -3.1969
 4853TIP3   OH235973   3.798   4.374  16.466 -0.2752 -0.1636  0.0344
 4853TIP3    H135974   3.832   4.291  16.431 -0.4386  0.1664 -0.9472
 4853TIP3    H235975   3.833   4.441  16.407  0.3199  0.5284  1.1544
 4854TIP3   OH235976   3.060   2.179   5.165 -0.4765 -0.2499 -0.6002
 4854TIP3    H135977   3.012   2.099   5.185 -0.8688 -0.0807 -0.8467
 4854TIP3    H235978   2.992   2.242   5.139 -0.3296  0.5865  0.8859
 4855TIP3   OH235979   3.375   5.960   4.785 -0.0729 -0.0983  0.1256
 4855TIP3    H135980   3.427   5.912   4.851  0.0284  1.9382  1.6229
 4855TIP3    H235981   3.322   6.020   4.836 -2.4187 -0.6443 -1.5167
 4856TIP3   OH235982   1.288   0.701  13.557 -0.1001  0.3092 -0.3069
 4856TIP3    H135983   1.327   0.726  13.474  1.5601  2.0022  0.9140
 4856TIP3    H235984   1.331   0.618  13.580 -1.1253 -0.5776 -1.4328
 4857TIP3   OH235985   6.007   5.508   3.518 -0.2126  0.0548  0.6547
 4857TIP3    H135986   5.940   5.477   3.579 -2.0494 -0.4824 -1.4857
 4857TIP3    H235987   5.968   5.587   3.479 -0.0371 -0.7376 -1.2411
 4858TIP3   OH235988   3.011   2.110   6.878  0.0145 -0.3920 -0.1844
 4858TIP3    H135989   2.916   2.098   6.876  0.2271 -2.4386  0.1082
 4858TIP3    H235990   3.046   2.024   6.903  1.9536  0.2930 -0.3563
 4859TIP3   OH235991   0.369   4.754  11.966  0.3225 -0.2674 -0.3101
 4859TIP3    H135992   0.390   4.720  11.879  1.5783  0.4550 -0.3122
 4859TIP3    H235993   0.357   4.848  11.954  1.8458  0.0571  0.4905
 4860TIP3   OH235994   1.572   3.461   1.556 -0.3037  0.3310  0.0321
 4860TIP3    H135995   1.492   3.482   1.507 -1.0437  0.8510  1.4196
 4860TIP3    H235996   1.572   3.365   1.561 -1.3631  0.3469  0.8083
 4861TIP3   OH235997   1.632   4.756  15.465  0.0411  0.8652 -0.0130
 4861TIP3    H135998   1.726   4.770  15.452 -0.3170  2.1901 -1.3818
 4861TIP3    H235999   1.620   4.661  15.456  1.4913  0.3850  2.1546
 4862TIP3   OH236000   4.377   3.773  15.142  0.5318  0.1233 -0.4107
 4862TIP3    H136001   4.323   3.841  15.182 -1.7806 -1.2578 -1.0299
 4862TIP3    H236002   4.335   3.755  15.058  1.2761 -1.8369 -0.4173
 4863TIP3   OH236003   3.791   4.187   5.109 -0.3106 -0.1568  0.1173
 4863TIP3    H136004   3.732   4.238   5.164 -0.6168 -1.9057  1.5210
 4863TIP3    H236005   3.878   4.224   5.124 -0.8947  2.2074 -1.6867
 4864TIP3   OH236006   4.307   1.447   1.361 -0.2942  0.2421 -0.0487
 4864TIP3    H136007   4.304   1.363   1.407 -1.3116 -0.3690 -1.1742
 4864TIP3    H236008   4.300   1.425   1.268  3.2069  1.3547 -0.7133
 4865TIP3   OH236009   2.583   6.348   2.304 -0.6151  0.9042  0.0918
 4865TIP3    H136010   2.508   6.407   2.311 -0.4353  1.1826 -0.2664
 4865TIP3    H236011   2.641   6.374   2.375 -1.0497  0.4053  0.6342
 4866TIP3   OH236012   0.106   2.978  11.939  0.0656  0.1042 -0.3514
 4866TIP3    H136013   0.027   3.020  11.973  0.9758  0.7071  1.1171
 4866TIP3    H236014   0.093   2.885  11.955 -0.6666  0.1133 -0.8396
 4867TIP3   OH236015   6.304   1.273  15.491 -0.1990  0.8391 -0.0395
 4867TIP3    H136016   6.388   1.281  15.447  0.0942  1.4079  0.5896
 4867TIP3    H236017   6.249   1.224  15.431  1.2813 -1.6527  0.5185
 4868TIP3   OH236018   5.927   1.744  16.688  0.0605 -0.1222 -0.3803
 4868TIP3    H136019   5.920   1.689  16.766 -1.6657 -1.1910 -1.2314
 4868TIP3    H236020   5.848   1.726  16.638  1.1915  0.3920 -2.5008
 4869TIP3   OH236021   0.557   5.187  15.572  0.4493 -0.0612 -0.1892
 4869TIP3    H136022   0.648   5.164  15.552  0.8361 -1.4800  2.6417
 4869TIP3    H236023   0.556   5.283  15.569  2.1500  0.0063  0.1261
 4870TIP3   OH236024   0.221   4.544  17.051  0.2552 -0.5288 -0.0513
 4870TIP3    H136025   0.221   4.575  17.141  0.9870  0.6975 -0.4489
 4870TIP3    H236026   0.313   4.546  17.024  0.5813 -4.3414  0.2714
 4871TIP3   OH236027   4.026   0.314  12.400 -0.0281 -0.4161 -0.2314
 4871TIP3    H136028   3.952   0.255  12.388 -1.7312  1.7847 -1.1903
 4871TIP3    H236029   4.029   0.365  12.319  0.5272  1.6950  1.0499
 4872TIP3   OH236030   0.602   3.957   5.892 -0.5689  0.0105 -0.2689
 4872TIP3    H136031   0.628   3.880   5.941  2.4753  1.5752  0.8416
 4872TIP3    H236032   0.649   3.951   5.809 -0.3128  0.6388 -0.1809
 4873TIP3   OH236033   3.399   4.509  12.636  0.2109  0.6600 -0.1540
 4873TIP3    H136034   3.402   4.575  12.707  0.9434  0.3770  0.0855
 4873TIP3    H236035   3.324   4.454  12.658 -0.2895  1.2947 -0.2484
 4874TIP3   OH236036   1.489   2.204  16.499 -0.4502 -0.4838 -0.1857
 4874TIP3    H136037   1.501   2.215  16.594 -1.1753 -0.6773 -0.0662
 4874TIP3    H236038   1.422   2.136  16.491  0.2427 -1.1029 -0.8553
 4875TIP3   OH236039   2.747   3.015  10.513 -0.1488 -0.0043 -0.1232
 4875TIP3    H136040   2.770   2.965  10.434  0.2127 -0.0592  0.0170
 4875TIP3    H236041   2.681   3.077  10.483  0.6550  0.5925 -0.6741
 4876TIP3   OH236042   6.514   5.493   5.137 -0.0077 -0.7966  0.0230
 4876TIP3    H136043   6.540   5.480   5.228 -1.0469 -1.7703  0.2045
 4876TIP3    H236044   6.597   5.500   5.089  0.5514 -0.8051  0.9652
 4877TIP3   OH236045   3.334   2.511   0.662  0.7609  0.0783 -0.4628
 4877TIP3    H136046   3.417   2.478   0.697  1.0035 -0.4291 -1.4943
 4877TIP3    H236047   3.295   2.559   0.736  0.8610 -1.6543  0.7767
 4878TIP3   OH236048   0.497   0.390  10.850  0.4450  0.1330 -0.2462
 4878TIP3    H136049   0.532   0.444  10.779  1.5698  0.9938  0.9414
 4878TIP3    H236050   0.561   0.319  10.860  0.6671  0.4137  0.3741
 4879TIP3   OH236051   2.740   0.322  14.457  0.2831 -0.2864  0.0973
 4879TIP3    H136052   2.743   0.412  14.487  0.1108 -0.6480  1.2438
 4879TIP3    H236053   2.760   0.327  14.363 -1.2489  1.1043 -0.2043
 4880TIP3   OH236054   3.045   6.328  11.984 -0.0224 -0.1660 -0.0418
 4880TIP3    H136055   2.952   6.349  11.975  0.5037  1.9263 -1.4423
 4880TIP3    H236056   3.066   6.279  11.904 -0.0054 -1.1093  0.5234
 4881TIP3   OH236057   3.852   3.630   1.290  0.4018  0.5205 -0.0904
 4881TIP3    H136058   3.796   3.617   1.366 -0.0710 -1.8167 -0.7463
 4881TIP3    H236059   3.941   3.619   1.324  0.1580 -1.4467  0.0420
 4882TIP3   OH236060   2.041   3.159   4.386 -0.0537 -1.4404 -0.1925
 4882TIP3    H136061   2.122   3.110   4.399  0.1721 -0.8350  0.8293
 4882TIP3    H236062   1.994   3.150   4.469 -0.6309 -1.0565 -0.4692
 4883TIP3   OH236063   1.783   1.945  12.447 -0.2912  0.1827  0.0173
 4883TIP3    H136064   1.865   1.942  12.398  0.1518 -0.5366  0.7759
 4883TIP3    H236065   1.764   2.038  12.457  0.2461  0.3533 -0.4657
 4884TIP3   OH236066   5.727   6.035  12.639 -0.5070 -0.2172 -0.0870
 4884TIP3    H136067   5.648   6.084  12.662  0.5146  1.1850  0.6250
 4884TIP3    H236068   5.776   6.028  12.722  1.7964  2.1892 -1.0731
 4885TIP3   OH236069   3.989   6.730   1.777  0.5038 -0.1731 -0.2389
 4885TIP3    H136070   3.905   6.693   1.800  0.1486  1.2676  0.8982
 4885TIP3    H236071   3.984   6.745   1.682 -0.6854  0.2956 -0.1094
 4886TIP3   OH236072   6.092   5.895   1.842 -0.7119 -0.1774 -0.1352
 4886TIP3    H136073   6.088   5.807   1.879 -0.2438  0.2044  0.8463
 4886TIP3    H236074   6.137   5.884   1.758 -0.1385 -0.7861  0.2469
 4887TIP3   OH236075   5.519   3.400   1.074 -0.5068  0.2286 -0.3417
 4887TIP3    H136076   5.560   3.338   1.015  0.0014  0.1326  0.1155
 4887TIP3    H236077   5.475   3.463   1.015  1.5182  1.2074 -0.8998
 4888TIP3   OH236078   1.696   5.698  13.824 -0.4126 -0.2665 -0.3713
 4888TIP3    H136079   1.779   5.656  13.804  0.7924  1.6205  0.3997
 4888TIP3    H236080   1.651   5.704  13.740  0.0768 -1.5567 -0.7504
 4889TIP3   OH236081   3.417   6.465   0.740  0.1807 -0.0161  0.7548
 4889TIP3    H136082   3.460   6.380   0.751  1.3340  0.2803 -1.0476
 4889TIP3    H236083   3.332   6.444   0.701  1.0920 -0.3228 -1.2042
 4890TIP3   OH236084   0.615   6.106  16.383  0.3668  0.2923  0.1548
 4890TIP3    H136085   0.564   6.055  16.320  1.0232  1.2419 -1.2003
 4890TIP3    H236086   0.681   6.151  16.329  0.6325  1.5246  1.4654
 4891TIP3   OH236087   1.173   5.092   1.774 -0.3877 -0.3897 -0.2767
 4891TIP3    H136088   1.166   5.094   1.678  0.5629  0.0688 -0.3549
 4891TIP3    H236089   1.258   5.133   1.792 -0.3386 -0.9077  0.7383
 4892TIP3   OH236090   3.220   1.546  14.527  0.5264  0.1935  0.5877
 4892TIP3    H136091   3.186   1.464  14.492 -0.4647  1.1226 -0.7103
 4892TIP3    H236092   3.193   1.545  14.619  0.8168 -1.0637  0.6817
 4893TIP3   OH236093   5.025   0.510   1.034 -0.0855  0.4095  0.1639
 4893TIP3    H136094   5.078   0.571   1.086 -0.0912  0.5288  0.0310
 4893TIP3    H236095   4.939   0.552   1.030 -0.3336 -0.0216  0.7994
 4894TIP3   OH236096   0.667   2.600  13.831 -0.3427 -0.6303 -0.6886
 4894TIP3    H136097   0.672   2.653  13.752  0.2987 -1.0503 -0.9347
 4894TIP3    H236098   0.606   2.529  13.809 -0.8720 -0.2479 -0.4969
 4895TIP3   OH236099   6.434   1.315   1.547  0.4480 -0.0361  0.1937
 4895TIP3    H136100   6.469   1.381   1.488  1.5698 -0.8087 -0.0495
 4895TIP3    H236101   6.506   1.297   1.608 -1.3204  2.2395  3.1884
 4896TIP3   OH236102   5.892   1.360  12.796 -0.0683  0.2266 -0.1613
 4896TIP3    H136103   5.851   1.274  12.807 -1.8416  1.0795  0.3407
 4896TIP3    H236104   5.909   1.390  12.885  1.8694 -0.1442 -0.3521
 4897TIP3   OH236105   2.997   1.033  14.620  0.4305  0.1079 -0.2882
 4897TIP3    H136106   3.033   1.076  14.697 -0.7514 -0.8000  0.8124
 4897TIP3    H236107   2.958   1.104  14.569  1.0347  0.6884  0.0405
 4898TIP3   OH236108   6.414   5.582   4.836 -0.3636  0.1209 -0.1739
 4898TIP3    H136109   6.462   5.590   4.919 -0.9533 -0.6321  0.2577
 4898TIP3    H236110   6.409   5.671   4.803 -0.8519  0.5629  1.0274
 4899TIP3   OH236111   4.527   5.599   2.800 -0.4330  0.4874 -0.4191
 4899TIP3    H136112   4.433   5.594   2.788 -0.3144 -1.3196 -0.8129
 4899TIP3    H236113   4.559   5.511   2.779  1.3342  1.0569 -0.2719
 4900TIP3   OH236114   3.279   0.025  13.072 -0.5594  0.1197  0.0349
 4900TIP3    H136115   3.249  -0.018  13.152 -2.5013  1.3243  0.0311
 4900TIP3    H236116   3.254   0.117  13.083 -0.2803  0.4342 -1.6791
 4901TIP3   OH236117   3.451   1.841   5.688  0.5013 -0.0977  0.4241
 4901TIP3    H136118   3.445   1.787   5.609  0.5394  0.7661 -0.1839
 4901TIP3    H236119   3.361   1.866   5.708  0.4915 -0.3151  0.6567
 4902TIP3   OH236120   3.879   5.097   2.454  0.7281  0.5092 -0.2186
 4902TIP3    H136121   3.788   5.119   2.472  0.1314 -0.7860 -1.4922
 4902TIP3    H236122   3.929   5.151   2.516 -0.9985 -1.3493  3.1045
 4903TIP3   OH236123   2.394   0.996  12.896 -0.6035  0.5834 -0.1409
 4903TIP3    H136124   2.384   1.090  12.910 -0.1074  0.6981 -0.5036
 4903TIP3    H236125   2.359   0.955  12.975  1.2897  1.1531  1.0682
 4904TIP3   OH236126   0.811   3.176   2.985 -0.4124  0.4568 -0.4734
 4904TIP3    H136127   0.828   3.082   2.977  1.3031  0.6967  0.1867
 4904TIP3    H236128   0.895   3.215   3.007 -1.1132  2.1588 -0.6325
 4905TIP3   OH236129   2.792   0.377  13.564 -0.2241 -0.3001 -0.2729
 4905TIP3    H136130   2.741   0.307  13.606 -1.0771 -0.1696 -1.0582
 4905TIP3    H236131   2.834   0.423  13.637 -0.5145 -0.9687  0.3280
 4906TIP3   OH236132   2.867   3.249  10.897  0.1883  0.2228  0.0690
 4906TIP3    H136133   2.783   3.232  10.855  0.7646 -1.2954 -0.5232
 4906TIP3    H236134   2.910   3.312  10.838  0.1994 -0.4044 -0.6126
 4907TIP3   OH236135   2.799   0.393  14.879  0.2825  0.3629 -0.4149
 4907TIP3    H136136   2.735   0.449  14.922  0.8985  1.1248 -0.4669
 4907TIP3    H236137   2.840   0.449  14.814  0.4137 -0.3555 -0.9643
 4908TIP3   OH236138   1.841   0.825  13.572  0.5180  0.3659  0.4102
 4908TIP3    H136139   1.846   0.742  13.524 -0.7572  1.4814 -1.7522
 4908TIP3    H236140   1.779   0.878  13.523 -2.9652  0.7531  4.6689
 4909TIP3   OH236141   6.745   6.242  14.609 -0.7733  0.1365 -0.4407
 4909TIP3    H136142   6.797   6.322  14.617 -0.7293  0.0404  0.4384
 4909TIP3    H236143   6.759   6.213  14.519  1.5975 -0.4833  0.0415
 4910TIP3   OH236144   4.446   2.150   4.148  0.6311 -0.4406 -0.1004
 4910TIP3    H136145   4.417   2.235   4.183 -0.2302 -0.9720  0.4945
 4910TIP3    H236146   4.466   2.168   4.057 -1.1202  0.0746 -0.4208
 4911TIP3   OH236147   0.862   1.376  14.487  0.1366  0.7283  0.2926
 4911TIP3    H136148   0.957   1.368  14.484  0.0505 -1.6059  1.4937
 4911TIP3    H236149   0.841   1.380  14.580 -1.0025 -0.2972  0.1004
 4912TIP3   OH236150   0.009   0.031   5.768  0.1791  0.1564  0.7927
 4912TIP3    H136151  -0.036  -0.051   5.745  1.1340  0.3515 -2.1927
 4912TIP3    H236152  -0.038   0.098   5.720  1.9538  0.7230 -0.2611
 4913TIP3   OH236153   0.391   5.152   2.106  0.4836 -0.0501  0.1621
 4913TIP3    H136154   0.351   5.103   2.034  2.6974 -0.5292 -0.8074
 4913TIP3    H236155   0.437   5.087   2.158  2.5024  0.7894 -0.4892
 4914TIP3   OH236156   3.114   4.129   1.216 -0.2374  0.2959 -1.1084
 4914TIP3    H136157   3.188   4.089   1.262 -0.5818 -0.4928 -1.2336
 4914TIP3    H236158   3.048   4.060   1.211 -1.9424  1.5982  1.0580
 4915TIP3   OH236159   2.870   4.755  15.202 -0.0162 -0.7465 -0.2315
 4915TIP3    H136160   2.882   4.694  15.130  0.6096 -1.6228  0.5842
 4915TIP3    H236161   2.894   4.705  15.280 -1.9777 -0.2517  0.7528
 4916TIP3   OH236162   0.981   0.855   4.579 -0.3502  0.0560  0.4408
 4916TIP3    H136163   1.049   0.923   4.582  0.4296 -0.4984 -2.0513
 4916TIP3    H236164   0.924   0.882   4.507  1.1744 -2.8700 -2.0935
 4917TIP3   OH236165   6.596   1.179   5.040  0.6320 -0.0389 -0.5167
 4917TIP3    H136166   6.513   1.140   5.066  0.1403  0.7277 -0.9013
 4917TIP3    H236167   6.588   1.271   5.062  1.3762  0.0513 -0.5787
 4918TIP3   OH236168   2.388   0.197  11.988 -0.7577 -0.5842 -0.0399
 4918TIP3    H136169   2.469   0.183  11.940  0.2645  1.3962  0.9888
 4918TIP3    H236170   2.337   0.117  11.973  0.1653 -0.7216 -3.0008
 4919TIP3   OH236171   1.794   4.227   5.501  0.3555  0.4324  0.0580
 4919TIP3    H136172   1.808   4.155   5.562  0.3278  0.6344  0.3032
 4919TIP3    H236173   1.730   4.194   5.438  1.5583 -0.3419 -0.7948
 4920TIP3   OH236174   3.676   0.341   0.069  0.1972 -0.0214 -0.3845
 4920TIP3    H136175   3.753   0.329   0.013  2.1276  0.7749  1.9207
 4920TIP3    H236176   3.711   0.342   0.158 -2.5405  0.1826  0.7923
 4921TIP3   OH236177   1.307   2.844   5.447  0.2252 -0.0856  0.2746
 4921TIP3    H136178   1.345   2.789   5.379 -0.3341 -0.5684  0.3490
 4921TIP3    H236179   1.380   2.866   5.504  1.3766  2.7575 -2.0437
 4922TIP3   OH236180   4.711   5.766   2.596 -0.5407 -0.0982 -0.6348
 4922TIP3    H136181   4.790   5.735   2.551  0.3620  1.3655 -0.1455
 4922TIP3    H236182   4.728   5.748   2.688 -0.7608  0.2563 -0.5246
 4923TIP3   OH236183   3.992   0.839   3.388 -0.6005  0.3883  0.2484
 4923TIP3    H136184   4.022   0.905   3.452  0.4318 -0.7726  1.0110
 4923TIP3    H236185   3.985   0.758   3.439 -0.1294 -0.4825 -1.0327
 4924TIP3   OH236186   4.740   3.832   1.015  0.3784 -0.5050 -0.1782
 4924TIP3    H136187   4.804   3.860   1.081  0.4570 -1.1405  0.0249
 4924TIP3    H236188   4.754   3.737   1.007 -1.3289 -0.8826  0.7510
 4925TIP3   OH236189   3.833   2.446   2.389 -0.1882  0.2953 -0.6413
 4925TIP3    H136190   3.878   2.529   2.375  1.1028 -0.3508 -0.5287
 4925TIP3    H236191   3.903   2.380   2.385 -1.1889 -0.7940 -0.8231
 4926TIP3   OH236192   3.018   0.548   4.883  0.2453  0.3731  0.2248
 4926TIP3    H136193   3.079   0.547   4.956 -0.2258 -1.2210  0.6388
 4926TIP3    H236194   2.950   0.611   4.909 -0.4855 -0.9636  1.6700
 4927TIP3   OH236195   2.064   5.263  14.866  0.3727  0.7536  0.2532
 4927TIP3    H136196   2.082   5.217  14.948 -0.1334 -0.8669 -0.4933
 4927TIP3    H236197   2.105   5.209  14.799  0.3771  1.7993 -0.6178
 4928TIP3   OH236198   4.351   2.783  15.793 -0.0760 -0.0373 -0.0705
 4928TIP3    H136199   4.271   2.820  15.755 -0.2946 -0.7191 -0.2907
 4928TIP3    H236200   4.422   2.832  15.753 -0.2920 -0.8009 -1.4402
 4929TIP3   OH236201   3.993   5.131  14.869 -0.1765  0.3221  0.6720
 4929TIP3    H136202   4.012   5.210  14.919 -0.7550  1.0901 -0.2761
 4929TIP3    H236203   3.991   5.160  14.778 -0.8414 -0.6913  0.3414
 4930TIP3   OH236204   4.867   0.245   1.046 -0.5920 -0.0730 -0.0246
 4930TIP3    H136205   4.879   0.233   0.951 -0.9804  1.0482 -0.2392
 4930TIP3    H236206   4.867   0.157   1.082 -1.1733 -0.5651 -1.1665
 4931TIP3   OH236207   1.142   2.556   0.331  0.2117 -0.9402  0.0002
 4931TIP3    H136208   1.127   2.572   0.425 -0.1018 -0.9555 -0.0450
 4931TIP3    H236209   1.087   2.621   0.287 -0.4372 -1.6008 -0.1813
 4932TIP3   OH236210   2.156   4.389   4.432  1.2438  0.0695 -0.0060
 4932TIP3    H136211   2.079   4.438   4.404  1.6014  0.8829  0.4176
 4932TIP3    H236212   2.185   4.432   4.512  0.8764 -1.5630  1.0476
 4933TIP3   OH236213   1.578   5.518  12.763  0.1082 -0.0357 -0.3740
 4933TIP3    H136214   1.589   5.559  12.677  2.4732  0.6475  0.2019
 4933TIP3    H236215   1.609   5.583  12.825 -0.8838 -0.8016  0.9760
 4934TIP3   OH236216   3.110   1.007   2.237  0.2971  0.0229  0.0561
 4934TIP3    H136217   3.018   1.016   2.213 -0.1774  1.5276  2.1677
 4934TIP3    H236218   3.156   0.996   2.153 -1.8395 -1.5188 -0.9950
 4935TIP3   OH236219   0.723   4.591   2.269  0.0600 -0.3616  0.0094
 4935TIP3    H136220   0.818   4.598   2.278  0.0837  0.6119 -0.7458
 4935TIP3    H236221   0.710   4.534   2.193  0.0749  0.1548 -0.3931
 4936TIP3   OH236222   2.461   5.375  12.577  0.3309 -0.0159  0.4571
 4936TIP3    H136223   2.374   5.348  12.605  0.0913  0.1313 -0.1280
 4936TIP3    H236224   2.518   5.354  12.651 -0.3858  0.9648  1.3293
 4937TIP3   OH236225   0.564   0.804  11.923  0.4472  0.2534 -0.5808
 4937TIP3    H136226   0.658   0.808  11.907  0.6108 -1.4405 -0.2385
 4937TIP3    H236227   0.549   0.863  11.997  1.1120  1.0186 -1.0368
 4938TIP3   OH236228   4.211   4.783  16.069 -0.0340 -0.1056 -0.1507
 4938TIP3    H136229   4.196   4.865  16.116 -1.9655 -0.5577  0.0788
 4938TIP3    H236230   4.262   4.729  16.130 -0.8516  0.0398  0.6804
 4939TIP3   OH236231   2.599   4.259  11.811  0.3599 -0.1840  0.4722
 4939TIP3    H136232   2.665   4.328  11.809  0.4241 -0.2186  1.2073
 4939TIP3    H236233   2.624   4.203  11.884 -0.1027 -0.5809  0.3362
 4940TIP3   OH236234   2.199   4.188   4.840  0.1762 -0.7547  0.3211
 4940TIP3    H136235   2.263   4.193   4.911  1.0768 -0.2869 -0.5075
 4940TIP3    H236236   2.162   4.099   4.847 -0.7412 -0.2826  2.1859
 4941TIP3   OH236237   4.798   4.106  14.754  0.2655 -0.3596 -0.0279
 4941TIP3    H136238   4.805   4.057  14.672 -1.1665 -0.9253  0.1556
 4941TIP3    H236239   4.825   4.195  14.731  0.1552 -0.5715 -1.0424
 4942TIP3   OH236240   1.405   4.581  12.072 -0.5484  0.1705  0.0009
 4942TIP3    H136241   1.437   4.574  11.982  1.2358 -1.1677  0.6532
 4942TIP3    H236242   1.429   4.669  12.099 -2.1343  1.0031 -1.1468
 4943TIP3   OH236243   4.245   5.576   2.633 -0.3457 -0.1751 -0.1631
 4943TIP3    H136244   4.224   5.552   2.723  1.6195  0.9413  0.6504
 4943TIP3    H236245   4.160   5.574   2.588 -1.3639 -0.8838  1.6516
 4944TIP3   OH236246   0.522   3.563  14.176 -0.6009  0.2078  0.1170
 4944TIP3    H136247   0.548   3.619  14.249 -1.8686  1.5198 -0.4199
 4944TIP3    H236248   0.497   3.480  14.218  0.1445  0.4172  1.0168
 4945TIP3   OH236249   0.878   3.639   2.286 -0.5754  0.2423  0.0003
 4945TIP3    H136250   0.859   3.644   2.192  0.4360  0.1341 -0.2167
 4945TIP3    H236251   0.793   3.621   2.326 -1.0544  0.4848 -0.8736
 4946TIP3   OH236252   1.335   1.120  10.775  0.2656 -0.0308 -0.2113
 4946TIP3    H136253   1.293   1.105  10.690 -0.8983  1.7082  0.0136
 4946TIP3    H236254   1.263   1.140  10.835  1.1809  0.1269  0.8654
 4947TIP3   OH236255   5.462   0.517   1.676 -0.3367 -0.4204 -0.2601
 4947TIP3    H136256   5.484   0.552   1.590 -0.6021 -0.2028 -0.2438
 4947TIP3    H236257   5.435   0.594   1.727 -1.7683 -0.7469 -0.4880
 4948TIP3   OH236258   0.362   3.378   1.953  0.9761 -0.0770 -0.0315
 4948TIP3    H136259   0.419   3.317   1.999  0.7141 -0.7080 -0.5246
 4948TIP3    H236260   0.310   3.323   1.895 -0.7162  0.3678  0.9821
 4949TIP3   OH236261   1.182   1.870  13.575 -0.3298 -0.0789  0.2303
 4949TIP3    H136262   1.228   1.826  13.646 -0.4203  0.1861  0.4567
 4949TIP3    H236263   1.201   1.817  13.498 -0.0803 -0.2673  0.4173
 4950TIP3   OH236264   0.811   0.677  12.134 -0.2619  0.1181  0.4370
 4950TIP3    H136265   0.885   0.622  12.160  1.2654  0.1524 -3.2180
 4950TIP3    H236266   0.734   0.623  12.154  0.9680 -1.6840  0.5872
 4951TIP3   OH236267   5.781   3.043   1.083 -0.4445 -0.4705  0.5885
 4951TIP3    H136268   5.719   2.984   1.039 -0.4721 -0.0339  0.0285
 4951TIP3    H236269   5.866   3.001   1.073 -0.3805 -0.1437 -0.3086
 4952TIP3   OH236270   5.066   3.240   5.268 -0.1396 -0.1252 -0.2015
 4952TIP3    H136271   5.117   3.178   5.320  0.0629  0.8722  0.8273
 4952TIP3    H236272   5.058   3.198   5.182  1.8471 -0.5969 -0.1911
 4953TIP3   OH236273   0.465   2.680   5.863 -0.1482  0.4257  0.2442
 4953TIP3    H136274   0.420   2.742   5.920 -0.1027  0.6656  0.0202
 4953TIP3    H236275   0.395   2.624   5.829 -0.7298  2.4539 -2.2253
 4954TIP3   OH236276   2.764   0.756   4.172  0.2557 -0.3770  0.7470
 4954TIP3    H136277   2.676   0.728   4.147  0.4553  0.9700 -1.8583
 4954TIP3    H236278   2.809   0.676   4.197 -0.7167 -1.6361 -1.2966
 4955TIP3   OH236279   5.297   0.861  17.240 -0.2638  0.1173  0.3707
 4955TIP3    H136280   5.368   0.807  17.276 -1.4365 -1.2086  0.7953
 4955TIP3    H236281   5.268   0.914  17.314 -1.5361 -1.3660  0.9743
 4956TIP3   OH236282   0.993   3.397  16.989 -0.2175  0.3137 -0.2024
 4956TIP3    H136283   0.969   3.394  17.081  0.5535 -0.0583 -0.0133
 4956TIP3    H236284   0.912   3.424  16.945 -1.5264 -2.5035  0.2449
 4957TIP3   OH236285   4.575   2.267   2.582 -0.0717  0.2979 -0.1946
 4957TIP3    H136286   4.505   2.201   2.579  0.3822 -0.1639 -1.7150
 4957TIP3    H236287   4.626   2.244   2.660 -0.4843 -0.5673 -0.1611
 4958TIP3   OH236288   6.419   0.854  17.285 -0.7654 -0.1589 -0.3386
 4958TIP3    H136289   6.406   0.798  17.361  1.1397 -1.2136 -0.7037
 4958TIP3    H236290   6.439   0.940  17.321  1.3692 -0.9260  0.4504
 4959TIP3   OH236291   0.778   3.356   4.415  0.1797 -0.2519  0.0029
 4959TIP3    H136292   0.784   3.267   4.380  1.6498 -0.7573  1.4347
 4959TIP3    H236293   0.860   3.370   4.461 -0.7141  1.2258  1.2636
 4960TIP3   OH236294   4.586   0.556   2.860  0.4816  0.5426 -0.1525
 4960TIP3    H136295   4.681   0.556   2.858  0.4900  0.9955  0.0448
 4960TIP3    H236296   4.562   0.493   2.927  0.5862 -1.3097 -1.7759
 4961TIP3   OH236297   6.117   1.450  14.045 -0.2889 -0.3759 -0.3552
 4961TIP3    H136298   6.077   1.378  13.997 -1.7753  1.2402 -1.6712
 4961TIP3    H236299   6.052   1.520  14.042  2.3156  2.1918 -2.0637
 4962TIP3   OH236300   5.794   2.153  12.137 -0.1772 -0.5117 -0.3502
 4962TIP3    H136301   5.730   2.116  12.197 -1.9477 -0.6165 -2.2086
 4962TIP3    H236302   5.847   2.078  12.109 -0.9301 -0.8824 -0.7847
 4963TIP3   OH236303   0.418   2.518  14.563 -0.1225  0.2212 -0.3636
 4963TIP3    H136304   0.424   2.607  14.529  0.7512 -0.8943 -3.4498
 4963TIP3    H236305   0.328   2.512  14.597 -0.2286  2.2086 -0.1732
 4964TIP3   OH236306   6.671   3.922  11.519  0.1744 -0.4281  0.2474
 4964TIP3    H136307   6.601   3.972  11.478 -0.0222 -0.3361  0.6917
 4964TIP3    H236308   6.747   3.937  11.463 -0.4000 -1.3768 -0.8579
 4965TIP3   OH236309   4.453   4.114  11.602  0.1322 -0.1023  0.2681
 4965TIP3    H136310   4.463   4.157  11.687  0.9425  1.0322 -0.3811
 4965TIP3    H236311   4.362   4.083  11.601 -0.0613  0.3869  1.2979
 4966TIP3   OH236312   6.268   3.916  13.833  0.1353 -0.6035  0.3983
 4966TIP3    H136313   6.192   3.862  13.810  0.9860 -2.7556  2.2379
 4966TIP3    H236314   6.247   3.952  13.919  0.7662 -0.3785  0.4620
 4967TIP3   OH236315   3.801   6.396  16.361  0.3978 -0.3355  1.2758
 4967TIP3    H136316   3.713   6.367  16.337  0.8860  0.2011 -1.4312
 4967TIP3    H236317   3.794   6.491  16.370  0.5529 -0.3767  1.9467
 4968TIP3   OH236318   4.671   3.214  17.134 -0.1674 -0.1184  0.4211
 4968TIP3    H136319   4.634   3.248  17.215 -0.2470 -1.6338  1.0569
 4968TIP3    H236320   4.620   3.256  17.065 -1.5587 -0.4067  1.2239
 4969TIP3   OH236321   2.193   1.369   3.784 -0.0275 -0.6390  0.2857
 4969TIP3    H136322   2.191   1.375   3.688  1.7045 -1.5761  0.1496
 4969TIP3    H236323   2.131   1.298   3.804  0.1045 -0.9014 -0.2063
 4970TIP3   OH236324   4.195   1.109   5.941 -0.3105  0.3202  0.0730
 4970TIP3    H136325   4.224   1.193   5.905  2.3677  0.6674  2.6335
 4970TIP3    H236326   4.135   1.133   6.011 -0.1288  0.0564  0.3180
 4971TIP3   OH236327   4.593   1.974  12.081 -0.0088 -0.1978 -0.2755
 4971TIP3    H136328   4.598   2.060  12.039 -0.2948 -1.0328 -2.1118
 4971TIP3    H236329   4.581   1.993  12.174  0.5340  1.7379 -0.5614
 4972TIP3   OH236330   1.880   3.859   5.854  0.5380 -0.3755  0.2712
 4972TIP3    H136331   1.931   3.779   5.838  0.6512 -0.3885  0.6862
 4972TIP3    H236332   1.859   3.855   5.947  3.0382  1.4841  1.0316
 4973TIP3   OH236333   6.020   0.917   3.933 -0.3692 -0.1544 -0.1281
 4973TIP3    H136334   6.045   0.834   3.975 -0.3976  0.5481  1.3217
 4973TIP3    H236335   5.939   0.897   3.887 -2.3460 -0.1685  3.0757
 4974TIP3   OH236336   5.052   6.142   6.579  0.1760  0.4829 -0.2406
 4974TIP3    H136337   5.102   6.221   6.560  0.4541  0.2417 -0.5257
 4974TIP3    H236338   4.963   6.163   6.553 -0.1114  1.3019  1.2870
 4975TIP3   OH236339   5.590   6.609   4.760  0.2818  0.0767 -0.0763
 4975TIP3    H136340   5.540   6.575   4.834 -0.3490  0.6408 -0.2345
 4975TIP3    H236341   5.537   6.588   4.683 -0.0737  1.2861 -0.1864
 4976TIP3   OH236342   4.432   5.207   0.984  0.1684 -0.3709 -0.0805
 4976TIP3    H136343   4.353   5.245   0.945 -0.0645 -0.0526  0.6847
 4976TIP3    H236344   4.498   5.214   0.915 -0.0031  0.9556 -0.1390
 4977TIP3   OH236345   2.566   6.541  12.081  0.3555  0.1454  0.6009
 4977TIP3    H136346   2.486   6.490  12.069  0.7533 -0.3931  0.1453
 4977TIP3    H236347   2.570   6.596  12.003  1.0911 -0.7696 -0.0303
 4978TIP3   OH236348   4.537   5.370   1.703  0.6109 -0.1866  0.4202
 4978TIP3    H136349   4.613   5.375   1.647  0.7730  0.0565  0.6593
 4978TIP3    H236350   4.538   5.452   1.753 -0.6072  0.4836 -0.5918
 4979TIP3   OH236351   3.950   5.359  10.713  0.2059  0.2269  0.0051
 4979TIP3    H136352   3.894   5.322  10.781  0.1174  0.3291 -0.0119
 4979TIP3    H236353   4.006   5.421  10.758  0.0850  0.3623 -0.0276
 4980TIP3   OH236354   3.574   2.036   2.331  0.5821  0.9998 -0.2410
 4980TIP3    H136355   3.602   2.111   2.384  1.9822  0.5037 -0.2365
 4980TIP3    H236356   3.588   1.960   2.387 -1.0526  0.7273 -0.1586
 4981TIP3   OH236357   4.694   5.867  16.843 -0.2484  0.3082  0.0927
 4981TIP3    H136358   4.703   5.960  16.862  1.0630  0.5625 -1.5493
 4981TIP3    H236359   4.766   5.825  16.889 -0.6447  0.1425  0.5665
 4982TIP3   OH236360   0.450   0.615  14.831  0.6429  0.1032  0.3828
 4982TIP3    H136361   0.529   0.659  14.801  1.7106 -1.8740  0.1089
 4982TIP3    H236362   0.379   0.658  14.783  1.6550  1.1730 -0.2084
 4983TIP3   OH236363   1.861   4.586  16.901  0.9928 -0.0879 -0.3606
 4983TIP3    H136364   1.799   4.551  16.837  0.3284  0.2213  0.1010
 4983TIP3    H236365   1.837   4.678  16.911  1.7530  0.1230 -0.4307
 4984TIP3   OH236366   6.285   0.333   0.709 -0.1740 -0.0769  0.3926
 4984TIP3    H136367   6.213   0.271   0.694  0.3284 -0.2208 -1.8613
 4984TIP3    H236368   6.327   0.302   0.789  0.2604 -2.9265 -0.8025
 4985TIP3   OH236369   5.231   1.046   1.343 -0.1541 -0.5128  0.0343
 4985TIP3    H136370   5.272   1.058   1.428  1.9898  2.2561 -1.2294
 4985TIP3    H236371   5.295   0.996   1.292  0.5035  1.3159 -1.0646
 4986TIP3   OH236372   1.146   0.608   1.048 -0.2319 -0.4680  0.7555
 4986TIP3    H136373   1.162   0.669   1.120  1.6344 -0.3878  0.3076
 4986TIP3    H236374   1.120   0.527   1.091  1.4213 -0.5932  1.5759
 4987TIP3   OH236375   1.296   5.338   3.133 -0.0130 -0.0028  0.6132
 4987TIP3    H136376   1.361   5.298   3.191  1.2958  0.9770 -0.1189
 4987TIP3    H236377   1.318   5.431   3.132 -1.9011  0.4845  0.9000
 4988TIP3   OH236378   1.147   4.299   0.206  0.1557 -0.1230  0.3404
 4988TIP3    H136379   1.142   4.247   0.126 -0.4731  0.2484  0.1324
 4988TIP3    H236380   1.056   4.321   0.226  0.2919 -0.3795  1.2730
 4989TIP3   OH236381   3.930   0.190  16.026 -0.6149 -0.3597 -0.3026
 4989TIP3    H136382   3.968   0.246  16.094  0.7474 -0.1297 -1.2047
 4989TIP3    H236383   3.884   0.251  15.969  1.2679 -0.0188 -1.5522
 4990TIP3   OH236384   2.493   1.231   3.818 -0.0649  0.1610 -0.1001
 4990TIP3    H136385   2.560   1.165   3.800 -1.4124 -0.9940 -1.1604
 4990TIP3    H236386   2.461   1.258   3.732 -2.5961 -1.1445  0.3200
 4991TIP3   OH236387   3.368   6.512   5.169 -0.3483 -0.7924  0.3449
 4991TIP3    H136388   3.287   6.509   5.118 -0.0959  0.0199 -0.1074
 4991TIP3    H236389   3.374   6.424   5.208 -0.9945 -1.1406 -0.3093
 4992TIP3   OH236390   1.510   3.931  15.630  0.1476  0.6801 -0.4456
 4992TIP3    H136391   1.499   3.852  15.682  3.2086 -0.8226 -1.8239
 4992TIP3    H236392   1.428   3.979  15.642 -0.8199 -1.3999  2.5338
 4993TIP3   OH236393   1.675   6.345   0.540  0.1463 -0.1539  0.2446
 4993TIP3    H136394   1.702   6.348   0.448 -0.0227  0.7965  0.2109
 4993TIP3    H236395   1.719   6.420   0.580 -1.8141  1.0152  0.3452
 4994TIP3   OH236396   6.057   1.189  14.841 -0.0117 -0.7776 -0.5436
 4994TIP3    H136397   5.966   1.174  14.814 -0.2563 -1.2690  0.5030
 4994TIP3    H236398   6.099   1.226  14.763 -0.9594 -1.0860 -1.2265
 4995TIP3   OH236399   6.655   2.816   0.267 -0.0994 -0.2788  0.1986
 4995TIP3    H136400   6.595   2.766   0.323 -0.4640  0.3999  0.4275
 4995TIP3    H236401   6.632   2.789   0.178  1.1756 -2.1426  0.3650
 4996TIP3   OH236402   5.743   3.247  15.167 -0.4598  0.0043 -0.3204
 4996TIP3    H136403   5.752   3.334  15.128 -1.0032 -0.3258 -1.2056
 4996TIP3    H236404   5.690   3.198  15.104 -3.5704  0.1580  1.9107
 4997TIP3   OH236405   6.250   0.213   1.856 -0.1777 -0.6849 -0.6158
 4997TIP3    H136406   6.232   0.307   1.856  1.7418 -0.2766 -0.3167
 4997TIP3    H236407   6.226   0.183   1.944  0.8030 -0.1050 -0.1318
 4998TIP3   OH236408   3.457   2.403  11.757 -0.1803  0.6667 -0.7682
 4998TIP3    H136409   3.507   2.339  11.705  0.4099  1.8044 -1.6511
 4998TIP3    H236410   3.524   2.447  11.810 -0.5510  0.7053 -0.3348
 4999TIP3   OH236411   6.048   0.419   1.643  0.1498 -0.3225 -0.2530
 4999TIP3    H136412   6.103   0.470   1.703 -1.3210 -0.7916  1.5842
 4999TIP3    H236413   6.022   0.342   1.694 -0.9225 -0.9046 -1.6128
 5000TIP3   OH236414   5.062   5.610  16.253 -0.2721 -0.0497  0.2557
 5000TIP3    H136415   5.009   5.596  16.332 -1.6282  0.6320 -0.4941
 5000TIP3    H236416   5.121   5.535  16.250 -1.1156 -0.7784  1.1922
 5001TIP3   OH236417   0.585   1.764   3.861 -0.0766  0.5153 -0.3072
 5001TIP3    H136418   0.566   1.758   3.955  1.3470  0.0740 -0.0189
 5001TIP3    H236419   0.519   1.708   3.820 -0.4203  0.3280  0.4830
 5002TIP3   OH236420   5.383   2.670  12.075  0.1983  0.6546 -0.5337
 5002TIP3    H136421   5.420   2.744  12.123  0.5027  0.4287 -0.4200
 5002TIP3    H236422   5.448   2.601  12.083  0.2048  0.5792 -1.1843
 5003TIP3   OH236423   0.777   4.133   5.988  0.4157  0.9413  0.1765
 5003TIP3    H136424   0.714   4.062   6.001  2.6571 -1.0134  1.0405
 5003TIP3    H236425   0.747   4.178   5.909 -1.1183 -0.8966 -0.3520
 5004TIP3   OH236426   3.526   6.551   4.576 -0.7949  0.0920 -0.4616
 5004TIP3    H136427   3.506   6.469   4.621  1.0721 -0.4342 -0.5221
 5004TIP3    H236428   3.463   6.613   4.612 -1.9421 -1.2386 -0.0670
 5005TIP3   OH236429   6.372   6.017   0.499  0.0394  0.8330 -0.0261
 5005TIP3    H136430   6.290   6.034   0.545 -0.7816 -0.6133 -0.8871
 5005TIP3    H236431   6.397   5.928   0.525  1.4300  1.3039  0.3381
 5006TIP3   OH236432   5.644   6.616  13.362 -0.4264 -0.1830 -0.1473
 5006TIP3    H136433   5.588   6.683  13.322 -1.3391 -0.2921  0.8918
 5006TIP3    H236434   5.731   6.633  13.327 -0.9981  0.3570 -1.3581
 5007TIP3   OH236435   6.043   1.012   5.644  0.5167  0.1801  0.2441
 5007TIP3    H136436   6.003   0.935   5.604  2.1520 -0.0970 -0.9770
 5007TIP3    H236437   6.019   1.006   5.737 -0.7700 -0.8744 -0.1249
 5008TIP3   OH236438   2.789   4.876   1.939  0.0816  0.1971  0.0263
 5008TIP3    H136439   2.783   4.910   2.029 -0.0392 -0.4000  0.2504
 5008TIP3    H236440   2.852   4.805   1.945  0.6790  0.6664 -0.5315
 5009TIP3   OH236441   5.718   2.800   4.315  0.4012  0.0746 -0.2593
 5009TIP3    H136442   5.626   2.792   4.289  0.2067  0.1233  0.3939
 5009TIP3    H236443   5.759   2.848   4.243  0.4280 -1.9329 -1.6768
 5010TIP3   OH236444   2.090   2.509   5.126 -0.3206  0.2688  0.1554
 5010TIP3    H136445   2.156   2.546   5.068 -0.7056 -0.6725 -0.9261
 5010TIP3    H236446   2.079   2.574   5.195  2.0880  0.2170  0.6498
 5011TIP3   OH236447   1.571   0.033  11.425  0.1420  0.1140  0.0430
 5011TIP3    H136448   1.629  -0.022  11.373  0.1676 -1.2362  1.4346
 5011TIP3    H236449   1.627   0.070  11.493 -0.5753 -1.2999  1.4761
 5012TIP3   OH236450   6.350   1.151   1.365  0.1925  0.2627  0.2503
 5012TIP3    H136451   6.426   1.092   1.358 -1.4585 -2.1731  1.3852
 5012TIP3    H236452   6.383   1.227   1.413  1.9406 -0.6670  0.6176
 5013TIP3   OH236453   1.706   4.927   6.458 -0.4729  0.9362  0.0872
 5013TIP3    H136454   1.699   4.921   6.362  1.6702  1.1983 -0.1350
 5013TIP3    H236455   1.618   4.949   6.487 -1.5402 -0.6712 -1.6823
 5014TIP3   OH236456   5.931   3.913  15.316 -0.3017  0.2289 -0.0257
 5014TIP3    H136457   5.844   3.914  15.355 -0.0330  0.2002  0.5901
 5014TIP3    H236458   5.959   4.005  15.318  0.1381  0.0893  0.8467
 5015TIP3   OH236459   0.095   0.772   1.959  0.1211 -0.0288  0.1374
 5015TIP3    H136460   0.117   0.679   1.961 -1.2071 -0.3560  0.1474
 5015TIP3    H236461   0.096   0.798   2.052 -0.2555 -0.2233  0.1986
 5016TIP3   OH236462   6.158   5.273   6.731 -0.6370  0.0029 -0.1400
 5016TIP3    H136463   6.223   5.313   6.673  1.1729 -1.6295  0.6429
 5016TIP3    H236464   6.096   5.231   6.671 -0.5329  0.8839 -0.9029
 5017TIP3   OH236465   1.281   1.057   5.823  0.5716 -0.1119 -0.5940
 5017TIP3    H136466   1.234   0.981   5.856  1.0267 -0.1450  0.0007
 5017TIP3    H236467   1.214   1.111   5.782 -0.4024  0.8811  2.0701
 5018TIP3   OH236468   5.784   6.728  12.127  0.5357 -0.2353 -0.1831
 5018TIP3    H136469   5.715   6.788  12.096  1.4424  1.3254  0.6738
 5018TIP3    H236470   5.864   6.780  12.124  1.3148 -1.3110  0.9128
 5019TIP3   OH236471   4.983   1.007   1.626  0.1653  0.1169 -0.0692
 5019TIP3    H136472   4.996   0.932   1.567 -1.2489 -2.0957  2.1937
 5019TIP3    H236473   4.889   1.010   1.641  0.4302  0.8248  1.7270
 5020TIP3   OH236474   2.897   0.806  16.112 -0.3540 -0.2683  0.1688
 5020TIP3    H136475   2.887   0.821  16.018  0.7530 -0.6121 -0.0235
 5020TIP3    H236476   2.826   0.855  16.152 -1.2373 -0.6375 -0.8893
 5021TIP3   OH236477   5.937   3.802  16.414  0.2533  0.7964 -0.4438
 5021TIP3    H136478   5.894   3.883  16.388  0.7633  1.6943  1.3412
 5021TIP3    H236479   5.868   3.736  16.409 -0.7245  1.7401  0.0433
 5022TIP3   OH236480   1.490   1.344  15.968 -0.3626  0.0802 -0.4758
 5022TIP3    H136481   1.478   1.274  15.904 -1.5054  1.4692 -1.8362
 5022TIP3    H236482   1.553   1.403  15.928 -0.2099  0.3811  0.1968
 5023TIP3   OH236483   2.795   2.350   5.153 -0.2185  0.2638 -0.0357
 5023TIP3    H136484   2.779   2.432   5.106 -0.9366 -1.1963 -2.4808
 5023TIP3    H236485   2.737   2.286   5.112  0.7264 -1.6323  1.4124
 5024TIP3   OH236486   1.553   6.327  13.084  0.0493  0.5493  0.2868
 5024TIP3    H136487   1.567   6.378  13.004  1.9023  0.1251  0.2954
 5024TIP3    H236488   1.640   6.296  13.108 -0.9851 -2.9848  0.0507
 5025TIP3   OH236489   6.762   4.574  13.644 -0.0918  0.2280  1.2672
 5025TIP3    H136490   6.758   4.506  13.712 -0.2568 -1.8294 -0.6949
 5025TIP3    H236491   6.817   4.536  13.575 -1.3519  1.5098 -0.5203
 5026TIP3   OH236492   4.241   2.078  14.849  0.1221 -0.2645  0.0615
 5026TIP3    H136493   4.228   2.046  14.938 -1.5152 -0.4407 -0.2109
 5026TIP3    H236494   4.161   2.052  14.802  0.8919 -0.0601 -1.4215
 5027TIP3   OH236495   5.745   2.639   4.933 -0.1100  0.1333 -0.1118
 5027TIP3    H136496   5.673   2.645   4.871 -0.3061 -0.6083  0.0374
 5027TIP3    H236497   5.792   2.722   4.923 -1.2790  0.8546  0.1557
 5028TIP3   OH236498   3.875   3.149  13.907 -0.8141 -0.7061 -0.2259
 5028TIP3    H136499   3.947   3.147  13.845 -1.1149  1.8408 -0.7930
 5028TIP3    H236500   3.811   3.087  13.872  0.4796 -1.9472 -0.4689
 5029TIP3   OH236501   6.566   4.197   6.350  0.7894  0.6641  0.4834
 5029TIP3    H136502   6.553   4.248   6.270  1.7235  0.7421  0.3663
 5029TIP3    H236503   6.589   4.262   6.417  0.7748  0.5253  0.6252
 5030TIP3   OH236504   5.391   1.448  14.315  0.3277 -0.1951  0.6013
 5030TIP3    H136505   5.396   1.504  14.392  1.4635 -0.1585  0.5223
 5030TIP3    H236506   5.400   1.359  14.349 -0.6080 -0.2781  0.6438
 5031TIP3   OH236507   2.025   0.677  16.915  0.1770  0.5019  0.1474
 5031TIP3    H136508   2.045   0.767  16.890 -0.9280  0.9788  0.9101
 5031TIP3    H236509   1.932   0.678  16.939  0.0426 -0.9239 -0.1992
 5032TIP3   OH236510   2.503   0.031  13.749  0.5395  0.3725 -0.8347
 5032TIP3    H136511   2.419   0.010  13.709 -0.0427 -0.8495  0.9022
 5032TIP3    H236512   2.508  -0.027  13.825  1.5015  2.6344  0.9297
 5033TIP3   OH236513   1.876   5.304   5.130 -0.0595 -0.3114 -0.7072
 5033TIP3    H136514   1.856   5.266   5.044  0.8993 -1.5730 -0.4122
 5033TIP3    H236515   1.961   5.347   5.117 -0.1502 -0.0714 -0.5079
 5034TIP3   OH236516   5.505   3.414   4.615 -0.2299  0.6932  0.2622
 5034TIP3    H136517   5.595   3.397   4.585  0.1493  0.1311  1.6539
 5034TIP3    H236518   5.460   3.447   4.537  0.5995 -1.0857 -1.0368
 5035TIP3   OH236519   1.874   0.814   6.080  0.0819 -0.2757 -0.5089
 5035TIP3    H136520   1.789   0.782   6.051 -0.9430 -0.0639  1.9989
 5035TIP3    H236521   1.861   0.907   6.097  0.7670 -0.2559 -0.0090
 5036TIP3   OH236522   4.347   0.779  15.935  0.0104 -0.2567 -0.1600
 5036TIP3    H136523   4.276   0.728  15.974  0.1881  0.3773  1.0349
 5036TIP3    H236524   4.425   0.755  15.985  0.2270  0.6627 -0.0391
 5037TIP3   OH236525   0.044   2.006   5.566  0.0950  0.0992 -0.1818
 5037TIP3    H136526   0.084   2.064   5.501 -3.2374  3.0704  0.1406
 5037TIP3    H236527   0.066   1.918   5.536  4.0184  1.3697 -1.6640
 5038TIP3   OH236528   3.870   1.218   3.616  0.0063  0.5193  0.0947
 5038TIP3    H136529   3.891   1.270   3.694  0.1640 -0.3712  0.6647
 5038TIP3    H236530   3.901   1.130   3.637 -1.3779 -0.0997 -0.3572
 5039TIP3   OH236531   0.784   2.405  10.672 -0.0643 -0.4233 -0.0156
 5039TIP3    H136532   0.801   2.317  10.704 -1.6875 -0.8699 -0.2937
 5039TIP3    H236533   0.866   2.433  10.633  0.0713 -2.3678 -1.2301
 5040TIP3   OH236534   2.709   1.526   0.056 -0.4337 -0.4176  0.2683
 5040TIP3    H136535   2.671   1.495  -0.026 -1.9937 -1.0341  1.1701
 5040TIP3    H236536   2.772   1.593   0.030 -2.1877  0.6977 -1.3445
 5041TIP3   OH236537   0.975   6.408  16.659  0.2203  0.0787  0.8779
 5041TIP3    H136538   1.035   6.440  16.727  1.0287  2.4537 -0.8528
 5041TIP3    H236539   0.904   6.472  16.657  0.5390  0.4275 -0.9118
 5042TIP3   OH236540   4.240   4.795  14.865 -0.1821 -0.9922  0.6655
 5042TIP3    H136541   4.286   4.841  14.935 -0.0250 -0.0860 -0.0246
 5042TIP3    H236542   4.295   4.807  14.787 -0.3875 -1.9234  0.3588
 5043TIP3   OH236543   4.889   4.683   2.627  0.0101  0.1786 -0.2026
 5043TIP3    H136544   4.974   4.683   2.584  0.2474 -1.3034  0.2016
 5043TIP3    H236545   4.826   4.695   2.556  0.4524 -1.0202 -0.8161
 5044TIP3   OH236546   5.453   2.801  14.668  0.7336  0.6420 -0.1346
 5044TIP3    H136547   5.404   2.733  14.715  0.3286  0.9460 -0.1164
 5044TIP3    H236548   5.388   2.867  14.645  0.9337  0.5178 -1.0966
 5045TIP3   OH236549   0.116   2.333  16.501 -0.1301 -0.1680 -0.2184
 5045TIP3    H136550   0.154   2.280  16.571  0.2806  0.4885  0.0609
 5045TIP3    H236551   0.100   2.418  16.542 -0.1821  0.1219 -0.8377
 5046TIP3   OH236552   4.258   4.227  12.082 -0.2540  0.3593 -0.7187
 5046TIP3    H136553   4.300   4.151  12.041  0.1679  0.8447 -1.2133
 5046TIP3    H236554   4.330   4.284  12.106 -0.6065  1.2500 -1.6658
 5047TIP3   OH236555   0.615   2.488   3.733 -0.4540 -0.0252 -0.1932
 5047TIP3    H136556   0.659   2.414   3.775  1.8706  0.6926 -1.2327
 5047TIP3    H236557   0.608   2.554   3.802  0.5885  0.0238 -0.1129
 5048TIP3   OH236558   1.538   0.333   0.639 -0.2034 -1.0432  0.0180
 5048TIP3    H136559   1.567   0.306   0.552 -0.6913  0.5349 -0.6686
 5048TIP3    H236560   1.586   0.276   0.699  0.5047 -1.8398 -1.2599
 5049TIP3   OH236561   1.338   6.199  15.235  0.0372 -0.3111 -0.1295
 5049TIP3    H136562   1.293   6.136  15.178 -0.1753 -0.5146  0.2574
 5049TIP3    H236563   1.367   6.147  15.310 -0.8996  0.1975  0.6042
 5050TIP3   OH236564   6.476   2.030  13.553  0.2936  0.2092 -0.5790
 5050TIP3    H136565   6.425   1.986  13.485  2.0112  0.2323 -1.9566
 5050TIP3    H236566   6.562   1.987  13.551  0.8662  1.2251  0.5262
 5051TIP3   OH236567   2.883   5.167  15.777  0.5056  0.6583 -0.1558
 5051TIP3    H136568   2.900   5.261  15.769  1.0926  0.5144 -0.6871
 5051TIP3    H236569   2.877   5.136  15.687 -1.6622  0.5085 -0.0173
 5052TIP3   OH236570   0.036   5.822   1.481 -0.5007 -0.5889 -0.3792
 5052TIP3    H136571   0.073   5.831   1.393 -0.6305 -1.3449 -0.5212
 5052TIP3    H236572  -0.014   5.902   1.494  1.0086  0.3771 -0.2616
 5053TIP3   OH236573   6.423   5.642  12.157 -0.5016 -0.0812  0.3373
 5053TIP3    H136574   6.434   5.719  12.101 -0.3790 -0.9181 -0.8420
 5053TIP3    H236575   6.474   5.661  12.236  1.4999  0.0923 -0.9323
 5054TIP3   OH236576   1.805   5.606   3.147  0.2526  0.1939  0.0241
 5054TIP3    H136577   1.746   5.532   3.161 -0.0308  0.6451  1.3240
 5054TIP3    H236578   1.844   5.589   3.060 -1.0511 -0.5939 -0.4351
 5055TIP3   OH236579   3.049   3.859   1.558  0.0228  0.7103 -0.3922
 5055TIP3    H136580   2.973   3.853   1.500 -0.7705  0.5417  0.6340
 5055TIP3    H236581   3.028   3.932   1.617  0.3182  0.1816  0.3793
 5056TIP3   OH236582   3.795   6.305  15.285  0.3501  0.0536 -0.6100
 5056TIP3    H136583   3.717   6.261  15.319  0.1075  1.0632  0.1975
 5056TIP3    H236584   3.828   6.356  15.358  1.0992  0.5634 -1.2795
 5057TIP3   OH236585   5.834   3.615   5.634 -0.0520  0.0781  0.3428
 5057TIP3    H136586   5.787   3.600   5.716 -0.4619  0.3840  0.1695
 5057TIP3    H236587   5.797   3.550   5.574 -0.2069  0.2750  0.2247
 5058TIP3   OH236588   2.562   6.154  15.943 -0.1091  0.2725 -0.4115
 5058TIP3    H136589   2.577   6.092  15.872  0.2048 -0.4626  0.2792
 5058TIP3    H236590   2.583   6.240  15.905  1.6283 -0.2663 -0.7618
 5059TIP3   OH236591   5.345   0.147   2.575 -0.1110  0.1147 -0.1551
 5059TIP3    H136592   5.288   0.074   2.599  0.0032 -0.6515 -2.0076
 5059TIP3    H236593   5.421   0.105   2.534  1.2782  1.1699  1.2237
 5060TIP3   OH236594   1.953   3.218   3.343  0.3838 -0.2256  0.4627
 5060TIP3    H136595   1.910   3.252   3.421 -0.3697 -0.2317  0.0617
 5060TIP3    H236596   2.027   3.278   3.328  0.4950 -0.1898  1.1336
 5061TIP3   OH236597   2.439   1.137  11.494  0.3459  1.0118 -0.0087
 5061TIP3    H136598   2.444   1.139  11.589 -0.2786 -2.3428  0.2179
 5061TIP3    H236599   2.523   1.099  11.466 -1.0288 -2.1329 -0.3383
 5062TIP3   OH236600   6.567   3.957   2.621 -0.9582 -0.4551 -0.6774
 5062TIP3    H136601   6.540   4.039   2.582 -0.4579  0.4990  0.8788
 5062TIP3    H236602   6.622   3.915   2.555  0.6204  1.5143 -0.7145
 5063TIP3   OH236603   3.438   1.155  12.453  0.4520  0.1069  0.2470
 5063TIP3    H136604   3.442   1.246  12.425 -1.6939  0.3752  0.6544
 5063TIP3    H236605   3.371   1.154  12.521  0.0410 -1.8761 -0.1307
 5064TIP3   OH236606   1.628   2.366   4.289  0.5026 -0.0738  0.3435
 5064TIP3    H136607   1.675   2.409   4.217 -0.4500 -0.0614 -0.2962
 5064TIP3    H236608   1.615   2.436   4.353  0.8176  0.0706  0.2541
 5065TIP3   OH236609   6.230   3.561  13.867 -0.3349 -0.0091  0.1778
 5065TIP3    H136610   6.189   3.637  13.826 -1.3600 -0.8458 -0.4306
 5065TIP3    H236611   6.320   3.561  13.835 -0.8806 -0.1555 -1.4553
 5066TIP3   OH236612   1.217   2.471   1.266  0.2556  0.2370  0.9224
 5066TIP3    H136613   1.242   2.479   1.358 -2.0773  1.1975  1.5308
 5066TIP3    H236614   1.177   2.555   1.244 -0.1994 -0.3551 -0.6532
 5067TIP3   OH236615   1.650   0.842   0.553  0.1902 -0.3517  0.0221
 5067TIP3    H136616   1.581   0.867   0.492  1.3082  1.4943 -0.5617
 5067TIP3    H236617   1.616   0.866   0.639  0.2488  0.9224 -0.3028
 5068TIP3   OH236618   1.958   0.127  17.126 -0.1830  0.1934  0.1946
 5068TIP3    H136619   2.025   0.192  17.107  0.1093 -0.4772 -1.2264
 5068TIP3    H236620   1.970   0.106  17.218 -1.2703  3.2026  1.1458
 5069TIP3   OH236621   4.976   2.638  11.356  0.5923  0.3449  0.1320
 5069TIP3    H136622   5.032   2.680  11.422 -1.0774  1.2508  1.0508
 5069TIP3    H236623   4.933   2.711  11.311 -0.0456 -0.3264 -0.3614
 5070TIP3   OH236624   0.676   1.502  15.518  0.7931  1.0798 -0.3181
 5070TIP3    H136625   0.739   1.431  15.530 -0.5992 -0.2632 -0.7144
 5070TIP3    H236626   0.696   1.564  15.588  2.7844  0.8992 -0.6640
 5071TIP3   OH236627   3.284   0.896   1.141 -0.0086 -0.0166 -0.5099
 5071TIP3    H136628   3.363   0.841   1.140 -0.0786 -0.2094  0.9901
 5071TIP3    H236629   3.278   0.932   1.053  0.6269 -1.5929 -1.2462
 5072TIP3   OH236630   0.978   0.381   3.980  0.0298  0.0242 -0.0314
 5072TIP3    H136631   1.072   0.394   3.992  0.0077 -0.1050  0.2713
 5072TIP3    H236632   0.969   0.359   3.887  0.1405  1.5504 -0.4465
 5073TIP3   OH236633   3.572   5.080   3.138  0.2933  0.6118  0.1921
 5073TIP3    H136634   3.490   5.032   3.146  0.5446  0.2622  0.6798
 5073TIP3    H236635   3.551   5.154   3.080 -0.7332  1.3404  1.4412
 5074TIP3   OH236636   0.203   2.165   0.134  0.0069 -0.2514  0.4026
 5074TIP3    H136637   0.124   2.125   0.172 -0.4729  1.4630  1.3093
 5074TIP3    H236638   0.270   2.153   0.202  0.0571 -0.1388  0.3723
 5075TIP3   OH236639   3.662   3.666  15.851 -0.2919 -0.1862 -0.0698
 5075TIP3    H136640   3.692   3.719  15.777  1.3037  1.0614  1.3886
 5075TIP3    H236641   3.742   3.640  15.897 -1.2243 -0.7970  1.2899
 5076TIP3   OH236642   1.265   5.795  11.079 -1.1624  0.2102  0.5938
 5076TIP3    H136643   1.313   5.719  11.113  0.6313  0.9394 -0.1949
 5076TIP3    H236644   1.276   5.789  10.984 -0.2128  1.9140  0.5608
 5077TIP3   OH236645   3.268   0.820   5.810 -0.9494 -0.3527 -0.1873
 5077TIP3    H136646   3.265   0.904   5.856  0.7964  0.7121 -1.8789
 5077TIP3    H236647   3.320   0.763   5.867 -2.4510 -0.4674  1.1464
 5078TIP3   OH236648   4.761   5.202  15.214 -0.1779  0.4547 -0.4895
 5078TIP3    H136649   4.836   5.188  15.271  0.1170  0.3527 -0.8969
 5078TIP3    H236650   4.746   5.297  15.216 -0.7621  0.3527  0.4967
 5079TIP3   OH236651   6.447   4.108  17.003  0.1042 -0.1314 -0.2052
 5079TIP3    H136652   6.458   4.182  17.062  0.4901  0.3880 -0.9074
 5079TIP3    H236653   6.443   4.032  17.060 -0.9037  0.4813  0.5724
 5080TIP3   OH236654   5.047   4.192   0.267 -0.5121 -0.3691  0.3864
 5080TIP3    H136655   5.131   4.146   0.263 -0.7780 -0.8857  0.5559
 5080TIP3    H236656   5.023   4.189   0.360  1.3871  3.6914  1.2184
 5081TIP3   OH236657   3.581   6.403   1.012 -0.5199  0.0121 -0.4167
 5081TIP3    H136658   3.663   6.452   1.020  0.1564 -1.2700  1.0120
 5081TIP3    H236659   3.513   6.470   1.015  0.4292  1.0250 -0.7298
 5082TIP3   OH236660   5.584   5.552   2.527  0.2652 -0.2160 -0.6805
 5082TIP3    H136661   5.626   5.574   2.444  0.4507 -0.4621 -0.6546
 5082TIP3    H236662   5.656   5.523   2.583  0.3100  1.0375 -0.0529
 5083TIP3   OH236663   1.247   0.329  15.110  0.3066  0.5839 -0.3391
 5083TIP3    H136664   1.266   0.388  15.037 -1.9769  1.4874 -0.2822
 5083TIP3    H236665   1.159   0.296  15.092  0.4612 -0.6873  1.0426
 5084TIP3   OH236666   5.847   2.912   4.104 -0.4723  0.0087  0.0213
 5084TIP3    H136667   5.801   2.945   4.027 -1.3456  0.0550  0.5568
 5084TIP3    H236668   5.925   2.869   4.068 -0.1594  1.2003 -0.7957
 5085TIP3   OH236669   1.286   2.404  15.197  1.0860  0.3450 -0.1957
 5085TIP3    H136670   1.255   2.475  15.141  1.6993  0.7577 -0.0273
 5085TIP3    H236671   1.209   2.377  15.247  0.2851 -0.7258 -1.9440
 5086TIP3   OH236672   2.602   2.780  16.123  0.2873  0.3301 -0.5881
 5086TIP3    H136673   2.668   2.831  16.171  0.2770 -0.7339  0.6115
 5086TIP3    H236674   2.519   2.826  16.141 -0.0632 -1.1421  2.2383
 5087TIP3   OH236675   5.413   1.649   4.059  0.1374 -0.3250 -0.2771
 5087TIP3    H136676   5.345   1.587   4.084 -0.3246 -0.1622 -1.0712
 5087TIP3    H236677   5.469   1.656   4.136 -0.8970 -0.2645  0.4944
 5088TIP3   OH236678   0.334   4.136   3.558 -0.6901 -0.3718  0.2374
 5088TIP3    H136679   0.391   4.101   3.627  2.1871  1.1136 -1.2023
 5088TIP3    H236680   0.275   4.196   3.604  1.9020  1.4683  1.4188
 5089TIP3   OH236681   1.105   0.430   1.338 -0.1218  0.0993 -0.3145
 5089TIP3    H136682   1.195   0.399   1.331 -0.5801 -1.1230 -1.2867
 5089TIP3    H236683   1.110   0.523   1.317  1.0171  0.2473  0.5135
 5090TIP3   OH236684   0.732   4.066   4.069  0.1141 -0.5824  0.0255
 5090TIP3    H136685   0.668   4.037   4.134 -0.4207  0.5240  0.0149
 5090TIP3    H236686   0.771   3.985   4.036 -0.3127 -1.2055  1.0074
 5091TIP3   OH236687   0.403   1.925   4.819  0.0236 -0.7490  0.2843
 5091TIP3    H136688   0.467   1.978   4.867 -0.9021  0.8583 -0.1984
 5091TIP3    H236689   0.443   1.838   4.814  2.3618  0.2815 -0.3262
 5092TIP3   OH236690   4.584   0.294   4.118 -0.2145 -0.2459  0.1926
 5092TIP3    H136691   4.635   0.374   4.111 -1.1611  0.2277 -3.3793
 5092TIP3    H236692   4.500   0.322   4.154 -0.0918  0.1607  0.1655
 5093TIP3   OH236693   5.460   5.185  11.865  0.2297 -0.7615 -0.3388
 5093TIP3    H136694   5.440   5.279  11.874 -2.8572 -1.3672  0.1287
 5093TIP3    H236695   5.537   5.172  11.920  0.0708  1.3208  0.4802
 5094TIP3   OH236696   6.624   5.867   3.996  0.0886  0.4340  0.0389
 5094TIP3    H136697   6.593   5.787   3.955 -1.3330  1.2163 -0.4664
 5094TIP3    H236698   6.662   5.839   4.080 -0.2403 -0.7658 -0.2041
 5095TIP3   OH236699   5.094   4.227  10.255  0.0186 -0.6662  0.0054
 5095TIP3    H136700   5.055   4.224  10.343  0.1554  1.3908  0.1904
 5095TIP3    H236701   5.175   4.276  10.266 -0.4478  0.5199 -1.3969
 5096TIP3   OH236702   0.699   3.259  16.670 -0.3030 -0.3164 -0.0968
 5096TIP3    H136703   0.792   3.253  16.694  0.1110 -1.3148 -1.8260
 5096TIP3    H236704   0.654   3.271  16.754  1.2806 -0.9951  0.8981
 5097TIP3   OH236705   4.256   4.794  15.497 -0.5655 -0.1349  0.0137
 5097TIP3    H136706   4.256   4.811  15.591 -0.7835 -0.2750  0.0409
 5097TIP3    H236707   4.344   4.762  15.478 -1.1329 -2.2425  0.5708
 5098TIP3   OH236708   3.885   6.690  16.090 -0.3862 -0.1991  0.0774
 5098TIP3    H136709   3.883   6.774  16.044 -0.5151 -0.3374 -0.1708
 5098TIP3    H236710   3.906   6.713  16.181  1.6245 -0.0785 -0.3750
 5099TIP3   OH236711   1.178   1.008  13.236  0.0665  0.1485  0.5953
 5099TIP3    H136712   1.120   0.980  13.306 -0.0011 -0.6155  0.2403
 5099TIP3    H236713   1.120   1.035  13.165  0.1327 -0.4464  0.3060
 5100TIP3   OH236714   6.424   1.314  16.419  0.4301 -0.3539 -0.5265
 5100TIP3    H136715   6.436   1.362  16.337 -0.7857 -0.1982 -0.6259
 5100TIP3    H236716   6.510   1.277  16.438  1.2805  1.4402 -0.7037
 5101TIP3   OH236717   1.353   4.926  11.680  0.4729 -0.2073 -0.2170
 5101TIP3    H136718   1.320   4.869  11.749 -0.3848 -0.3219 -0.7001
 5101TIP3    H236719   1.447   4.931  11.696  0.5759 -1.7280 -0.1303
 5102TIP3   OH236720   4.324   4.368   0.890 -0.1400 -0.0866 -0.1418
 5102TIP3    H136721   4.307   4.378   0.984  1.2347  0.2406  0.1026
 5102TIP3    H236722   4.238   4.371   0.849 -0.6559  1.8602  0.9417
 5103TIP3   OH236723   4.006   2.552  16.339 -0.3250  0.2448 -0.2511
 5103TIP3    H136724   4.016   2.618  16.407  0.3920 -1.5718  1.5106
 5103TIP3    H236725   4.031   2.470  16.381  1.3678 -0.8257 -3.0273
 5104TIP3   OH236726   4.377   3.483  16.536 -0.1034  1.0808 -0.0416
 5104TIP3    H136727   4.382   3.520  16.447  0.0576  1.2848  0.0517
 5104TIP3    H236728   4.288   3.502  16.564 -0.6598 -0.3303 -0.7431
 5105TIP3   OH236729   2.079   2.703  13.384 -0.0673  0.0737  0.5796
 5105TIP3    H136730   2.138   2.769  13.347  0.1430  1.4109  3.1055
 5105TIP3    H236731   2.137   2.629  13.405  0.3622  0.5690  1.1634
 5106TIP3   OH236732   1.123   3.249  12.970  0.1071  0.4524  0.1921
 5106TIP3    H136733   1.152   3.273  12.882 -1.8248  0.8318 -0.4047
 5106TIP3    H236734   1.093   3.159  12.961  1.1360  0.0285  0.8167
 5107TIP3   OH236735   6.262   2.127  15.866  0.1750  0.5229 -0.2436
 5107TIP3    H136736   6.173   2.096  15.880 -0.0562  0.7592 -1.1380
 5107TIP3    H236737   6.259   2.220  15.892  0.6573  0.0618  1.6086
 5108TIP3   OH236738   1.573   4.132   4.755 -0.2598  0.1391 -0.2627
 5108TIP3    H136739   1.619   4.190   4.694  0.3002  0.4780  0.4722
 5108TIP3    H236740   1.574   4.046   4.712  1.4834  0.0339 -0.0543
 5109TIP3   OH236741   2.208   4.085  12.264 -0.3182 -0.4403 -0.5589
 5109TIP3    H136742   2.173   4.049  12.182  0.7085 -0.2483 -1.1020
 5109TIP3    H236743   2.279   4.144  12.236  0.1296 -0.4671  0.4747
 5110TIP3   OH236744   5.924   5.873  10.637  0.7634 -0.0781 -0.2021
 5110TIP3    H136745   5.880   5.955  10.615  1.4188  0.8173  1.6038
 5110TIP3    H236746   6.017   5.892  10.625  0.9728 -0.2689  1.0003
 5111TIP3   OH236747   3.755   5.101  12.128  0.2427  0.0467  0.7347
 5111TIP3    H136748   3.703   5.177  12.153 -0.4237 -0.3319  0.5258
 5111TIP3    H236749   3.692   5.029  12.122  0.4024  0.0144 -1.5644
 5112TIP3   OH236750   2.612   6.279   4.568 -0.4828 -0.4052 -0.3648
 5112TIP3    H136751   2.573   6.203   4.610  0.0277 -1.0794 -1.0678
 5112TIP3    H236752   2.593   6.352   4.626  1.0360 -1.4420  1.5537
 5113TIP3   OH236753   2.864   0.916   4.366 -0.0876 -0.0519 -0.2064
 5113TIP3    H136754   2.816   0.854   4.309  1.2172  0.0954 -1.5295
 5113TIP3    H236755   2.956   0.902   4.344  0.4382  0.3000  1.6407
 5114TIP3   OH236756   1.860   2.522  13.724  0.1230 -0.1519 -0.8962
 5114TIP3    H136757   1.827   2.433  13.739  1.6992 -0.4904  0.8352
 5114TIP3    H236758   1.843   2.568  13.806  1.4755  0.4218 -0.9163
 5115TIP3   OH236759   5.155   2.203  16.077 -0.1700 -0.1347  0.7567
 5115TIP3    H136760   5.120   2.292  16.084  0.3057  0.0477  0.8449
 5115TIP3    H236761   5.077   2.147  16.078 -0.6125  0.3643 -1.1510
 5116TIP3   OH236762   5.278   6.225   0.670 -0.1358 -0.4182  0.0676
 5116TIP3    H136763   5.244   6.168   0.601  0.5688 -0.0317 -0.6207
 5116TIP3    H236764   5.327   6.167   0.728 -2.0402 -0.9981  1.1432
 5117TIP3   OH236765   4.969   1.155  10.491  0.8327  0.5849 -0.3853
 5117TIP3    H136766   5.035   1.220  10.468 -0.7910  1.4176 -3.1309
 5117TIP3    H236767   5.017   1.072  10.490  1.7865  1.0490 -3.2320
 5118TIP3   OH236768   1.169   1.705  10.697  0.7265  0.2629  0.6480
 5118TIP3    H136769   1.136   1.793  10.681 -2.0948 -0.4470  1.9304
 5118TIP3    H236770   1.198   1.706  10.788 -1.8492 -0.6875  1.5935
 5119TIP3   OH236771   5.378   0.413  12.874  0.2596 -0.9362  0.0635
 5119TIP3    H136772   5.332   0.330  12.890 -1.3557 -0.0298  0.3605
 5119TIP3    H236773   5.343   0.472  12.940  0.8868  0.1799 -0.5828
 5120TIP3   OH236774   1.980   4.687   6.317 -0.1704 -0.7510 -0.1537
 5120TIP3    H136775   2.024   4.609   6.282  0.5559  0.1305 -1.3240
 5120TIP3    H236776   1.890   4.680   6.285 -0.0957 -1.0945 -0.3004
 5121TIP3   OH236777   0.905   2.973   0.435  0.2411  0.1183  0.4948
 5121TIP3    H136778   0.934   2.895   0.389  0.8282 -0.2597  1.4647
 5121TIP3    H236779   0.811   2.978   0.418  0.0737 -1.1837  0.9634
 5122TIP3   OH236780   3.726   5.718  15.308 -0.3341 -0.2249  0.0646
 5122TIP3    H136781   3.753   5.636  15.348 -0.7847 -0.7227 -0.6318
 5122TIP3    H236782   3.809   5.759  15.281 -0.0249  0.1202  1.4528
 5123TIP3   OH236783   0.638   6.757  11.888 -0.7049 -0.0700 -0.0562
 5123TIP3    H136784   0.667   6.844  11.863 -2.6229  0.5285 -0.3794
 5123TIP3    H236785   0.595   6.768  11.972 -0.3214 -0.8498  0.2564
 5124TIP3   OH236786   1.064   1.924   1.473  0.2630 -0.4964  0.4616
 5124TIP3    H136787   1.029   1.987   1.409  2.2782  0.0751 -0.1451
 5124TIP3    H236788   1.130   1.974   1.521  0.4716 -1.6096  1.3607
 5125TIP3   OH236789   1.722   5.428   1.547  1.0117  0.4196  0.0154
 5125TIP3    H136790   1.685   5.444   1.634 -1.1620 -0.8873 -0.5751
 5125TIP3    H236791   1.645   5.418   1.490  2.3593  1.3416 -2.1099
 5126TIP3   OH236792   4.839   3.394  14.164 -0.0171 -0.0702  0.0543
 5126TIP3    H136793   4.853   3.412  14.071  5.0066  1.2681  0.7347
 5126TIP3    H236794   4.878   3.307  14.177 -0.6858 -0.2489  0.9459
 5127TIP3   OH236795   0.899   3.447   0.619 -0.7870 -0.0252 -0.0040
 5127TIP3    H136796   0.806   3.447   0.639 -0.5063 -1.1746  1.4564
 5127TIP3    H236797   0.912   3.370   0.564 -0.8283  0.6542 -0.9899
 5128TIP3   OH236798   0.989   4.942  12.647  0.6687 -0.0379 -0.0377
 5128TIP3    H136799   1.009   4.989  12.566 -0.3016 -0.1577 -0.3573
 5128TIP3    H236800   0.894   4.940  12.651  0.7054  0.1183  1.2070
 5129TIP3   OH236801   5.485   3.039  16.679  0.3106 -0.3211 -0.4847
 5129TIP3    H136802   5.399   3.081  16.690  0.3356  0.3508 -2.3627
 5129TIP3    H236803   5.502   3.045  16.585  1.2667 -2.7505 -0.5369
 5130TIP3   OH236804   0.040   5.485  12.498 -0.7132 -0.1944 -0.7084
 5130TIP3    H136805   0.024   5.574  12.530 -1.0829 -0.2562 -0.7173
 5130TIP3    H236806   0.109   5.495  12.433  0.9960 -0.2239  1.0132
 5131TIP3   OH236807   5.941   5.800   3.774 -0.1358 -0.2572  0.0982
 5131TIP3    H136808   5.946   5.891   3.805  1.1744 -0.1214 -0.4335
 5131TIP3    H236809   6.022   5.760   3.804 -0.5950 -1.1994  0.1146
 5132TIP3   OH236810   6.314   4.632   6.197  0.1709  0.0956 -0.1160
 5132TIP3    H136811   6.295   4.545   6.233  1.1280 -1.2840 -2.6478
 5132TIP3    H236812   6.281   4.629   6.107  1.2018  1.9588 -0.6228
 5133TIP3   OH236813   2.679   0.970   0.371  0.2116  0.1659 -0.4188
 5133TIP3    H136814   2.768   0.991   0.399  0.3999 -0.7490 -0.2825
 5133TIP3    H236815   2.657   0.891   0.420 -0.7238  0.4444 -0.3694
 5134TIP3   OH236816   3.161   0.401   2.392 -0.2890  0.0632  0.4497
 5134TIP3    H136817   3.211   0.465   2.444 -0.5375 -0.2588  1.0910
 5134TIP3    H236818   3.094   0.453   2.348 -1.3261  0.0797  2.0061
 5135TIP3   OH236819   2.342   5.505  16.776 -0.0719  0.2037 -0.5165
 5135TIP3    H136820   2.280   5.499  16.703  1.0277  2.4313 -1.7527
 5135TIP3    H236821   2.289   5.537  16.850 -1.0490 -1.3457 -0.5150
 5136TIP3   OH236822   2.248   1.960  11.201 -0.1193  0.6902  0.3826
 5136TIP3    H136823   2.166   1.941  11.157  1.2643  0.2347 -2.2220
 5136TIP3    H236824   2.261   2.055  11.189  0.8320  0.3788 -1.4183
 5137TIP3   OH236825   6.399   3.220   2.734  0.3588  0.1431 -0.3054
 5137TIP3    H136826   6.395   3.316   2.740  0.9437  0.3654 -2.4813
 5137TIP3    H236827   6.477   3.196   2.782 -0.5916  0.5788  1.5347
 5138TIP3   OH236828   4.231   3.417  13.722 -0.7639  0.2301  0.4292
 5138TIP3    H136829   4.201   3.485  13.783 -1.4217 -0.0391  0.4097
 5138TIP3    H236830   4.163   3.413  13.655 -1.5451 -1.5180  1.2503
 5139TIP3   OH236831   1.089   4.283  15.845  0.2907  0.0316 -0.4275
 5139TIP3    H136832   1.052   4.372  15.853  1.3085  0.4122  0.1584
 5139TIP3    H236833   1.171   4.295  15.798  0.5256 -0.5819 -0.1820
 5140TIP3   OH236834   5.547   1.726  13.169  0.4369  0.0518 -0.1543
 5140TIP3    H136835   5.478   1.728  13.103 -0.7878  1.3858  1.0927
 5140TIP3    H236836   5.571   1.633  13.176 -1.4838 -0.5092 -0.3990
 5141TIP3   OH236837   0.267   2.963   1.953 -0.1227  0.2658  0.2131
 5141TIP3    H136838   0.357   2.930   1.953  0.0879  0.8254  0.0538
 5141TIP3    H236839   0.220   2.903   2.011  0.1211 -0.6434 -0.4985
 5142TIP3   OH236840   1.089   5.119   0.355  0.3916 -0.0222  0.3589
 5142TIP3    H136841   1.090   5.026   0.333  1.8088  0.6937 -3.2398
 5142TIP3    H236842   0.999   5.135   0.386 -0.1384 -2.3792  0.2621
 5143TIP3   OH236843   0.778   3.654  13.854  0.4403 -0.2043 -0.0817
 5143TIP3    H136844   0.736   3.700  13.927 -0.6766  1.6209 -1.7728
 5143TIP3    H236845   0.861   3.700  13.842  1.4329 -1.5917  1.0356
 5144TIP3   OH236846   2.295   1.835   1.510 -0.5219  0.2868 -0.0339
 5144TIP3    H136847   2.274   1.745   1.536 -0.4251 -0.0709 -1.1408
 5144TIP3    H236848   2.347   1.869   1.583 -0.7314 -0.4885  0.4890
 5145TIP3   OH236849   2.769   6.474  14.932  0.0007 -0.2539 -0.3333
 5145TIP3    H136850   2.840   6.491  14.870  1.7094 -0.9412  1.3391
 5145TIP3    H236851   2.766   6.379  14.940  0.5679 -0.1662  1.4075
 5146TIP3   OH236852   1.632   4.855   5.607 -0.3809  0.1338 -0.4322
 5146TIP3    H136853   1.605   4.944   5.586  0.2168  0.4403  0.0668
 5146TIP3    H236854   1.725   4.852   5.587 -0.7403 -0.9180 -2.1476
 5147TIP3   OH236855   5.565   3.573  13.608 -0.0915  0.1634  0.6648
 5147TIP3    H136856   5.503   3.532  13.548  0.2409 -0.1747  0.5444
 5147TIP3    H236857   5.526   3.563  13.695 -0.4744  0.4660  0.5303
 5148TIP3   OH236858   1.015   3.858   0.596  0.0400 -0.0874  0.1807
 5148TIP3    H136859   1.088   3.861   0.534 -0.3513 -0.0056 -0.2813
 5148TIP3    H236860   0.937   3.866   0.541 -0.5704 -3.9670  0.1920
 5149TIP3   OH236861   0.875   4.941   0.316  0.0014 -0.6968  0.0684
 5149TIP3    H136862   0.846   4.964   0.227 -1.0369  0.1495  0.6039
 5149TIP3    H236863   0.937   4.869   0.303  0.1974 -0.2985 -1.3723
 5150TIP3   OH236864   6.135   4.792   2.453  0.0937  0.2399 -0.5067
 5150TIP3    H136865   6.136   4.697   2.466 -0.5135  0.2667 -0.2645
 5150TIP3    H236866   6.061   4.823   2.505 -0.0084  0.7941 -0.9774
 5151TIP3   OH236867   4.190   1.441  16.412  0.2787  0.8910 -0.1595
 5151TIP3    H136868   4.104   1.454  16.452  0.3044 -0.7305  0.5038
 5151TIP3    H236869   4.252   1.467  16.481  0.3081  0.2186  0.0809
 5152TIP3   OH236870   5.469   3.821  12.736 -0.4876  0.2709 -0.2894
 5152TIP3    H136871   5.540   3.851  12.679 -1.0744  0.6679 -0.8259
 5152TIP3    H236872   5.455   3.729  12.711  0.0046  0.1062  0.0085
 5153TIP3   OH236873   3.957   2.275  11.155  0.3525  0.1104  0.2180
 5153TIP3    H136874   3.965   2.336  11.081  0.2627 -0.4467 -0.2564
 5153TIP3    H236875   4.021   2.207  11.136  0.0452 -0.2449  0.4574
 5154TIP3   OH236876   2.648   0.093   2.544 -0.4453 -0.4682 -0.5487
 5154TIP3    H136877   2.618   0.007   2.575  1.1651 -1.1149 -0.6583
 5154TIP3    H236878   2.712   0.121   2.610 -2.2803  1.5599  0.4806
 5155TIP3   OH236879   5.498   3.917  10.990  0.6132  0.3503  0.0922
 5155TIP3    H136880   5.430   3.969  10.948  1.0137  1.6366  0.9626
 5155TIP3    H236881   5.452   3.868  11.058  0.4454  0.6344  0.1848
 5156TIP3   OH236882   3.222   2.800   1.310  0.0525  0.2185  0.5213
 5156TIP3    H136883   3.205   2.723   1.363 -0.7581  0.1045  0.1271
 5156TIP3    H236884   3.135   2.835   1.290  0.3566  0.5569 -0.2813
 5157TIP3   OH236885   6.465   3.677   3.343  0.1286  0.1988 -0.0657
 5157TIP3    H136886   6.429   3.691   3.255 -0.9479 -2.1245 -0.0839
 5157TIP3    H236887   6.388   3.663   3.398  0.8303 -2.3606  0.4055
 5158TIP3   OH236888   1.828   2.630   5.655  0.2758  0.5642  0.5657
 5158TIP3    H136889   1.767   2.688   5.610 -0.4391 -0.0464  0.7305
 5158TIP3    H236890   1.902   2.686   5.679 -0.9543  1.7237  1.8686
 5159TIP3   OH236891   4.355   3.933   0.773  0.0094 -0.3332  0.2929
 5159TIP3    H136892   4.448   3.912   0.764 -0.2005 -0.9260 -0.7094
 5159TIP3    H236893   4.310   3.855   0.740 -0.8310  0.4137 -0.3699
 5160TIP3   OH236894   5.624   0.922  15.459  0.2827  0.5080 -0.5454
 5160TIP3    H136895   5.655   0.975  15.532  3.9288  0.4569 -1.8767
 5160TIP3    H236896   5.528   0.925  15.466  0.4248  0.8875  3.8780
 5161TIP3   OH236897   4.053   1.244   2.445 -0.2010 -0.2714  0.0358
 5161TIP3    H136898   4.111   1.251   2.520  0.3170  0.8316 -0.4397
 5161TIP3    H236899   3.974   1.203   2.479 -1.3494  3.1388  2.0224
 5162TIP3   OH236900   0.238   4.160  12.276  0.5353 -0.0327  0.3182
 5162TIP3    H136901   0.237   4.080  12.329  1.5212  0.1042  0.5799
 5162TIP3    H236902   0.218   4.230  12.338 -1.1248 -0.1295 -0.0662
 5163TIP3   OH236903   1.573   1.197  11.411  0.1453  0.9982 -0.1225
 5163TIP3    H136904   1.639   1.188  11.342  0.1686  0.6920 -0.0606
 5163TIP3    H236905   1.571   1.111  11.453 -1.5471  0.4269 -1.2620
 5164TIP3   OH236906   3.417   1.930   4.592  0.0784 -0.5340 -0.5540
 5164TIP3    H136907   3.477   1.856   4.585 -0.2293 -0.7319 -1.1972
 5164TIP3    H236908   3.456   1.987   4.658  0.9161 -0.7194 -0.8743
 5165TIP3   OH236909   6.717   2.051   6.265  0.7599  0.3180 -0.1562
 5165TIP3    H136910   6.637   2.004   6.288  1.4647 -0.2527  1.2174
 5165TIP3    H236911   6.703   2.079   6.174 -0.0830 -1.7107 -0.7033
 5166TIP3   OH236912   5.196   0.064   2.153  0.9235 -0.2210  0.1987
 5166TIP3    H136913   5.232   0.082   2.066 -0.0275  0.7369 -0.0037
 5166TIP3    H236914   5.225   0.138   2.207  0.2994 -0.0665  0.3316
 5167TIP3   OH236915   5.468   5.466  11.987 -0.0717  0.6167  0.0278
 5167TIP3    H136916   5.563   5.475  11.986  0.0116 -0.2754 -0.8192
 5167TIP3    H236917   5.437   5.529  11.922  0.0934 -0.5381 -1.2073
 5168TIP3   OH236918   0.558   1.990   3.561 -0.0953  0.1090 -0.3075
 5168TIP3    H136919   0.490   1.932   3.526  1.2053 -1.2703 -0.6710
 5168TIP3    H236920   0.632   1.932   3.579  1.0725  1.5917 -0.1284
 5169TIP3   OH236921   2.612   3.374   5.590  0.4957  1.0405  0.2908
 5169TIP3    H136922   2.645   3.290   5.624 -0.5923  1.0384  1.4018
 5169TIP3    H236923   2.638   3.374   5.498  0.5695 -0.5003  0.2812
 5170TIP3   OH236924   2.256   6.337  13.137  0.0744 -0.0780 -1.2075
 5170TIP3    H136925   2.244   6.321  13.044 -2.3088  1.3897 -1.2510
 5170TIP3    H236926   2.275   6.430  13.144 -1.7183  0.2716 -0.1861
 5171TIP3   OH236927   4.057   5.939  12.759  0.3579 -0.6224  0.3983
 5171TIP3    H136928   4.039   6.020  12.712 -1.6783 -0.6347  1.0870
 5171TIP3    H236929   4.132   5.901  12.713  1.8946  2.0084  0.5585
 5172TIP3   OH236930   4.134   0.811   3.000  0.3694  0.0359 -0.1905
 5172TIP3    H136931   4.184   0.792   2.920 -0.6313 -0.3171 -0.7407
 5172TIP3    H236932   4.174   0.891   3.034  1.9483 -0.7586 -0.0803
 5173TIP3   OH236933   6.684   0.385   4.064  0.4811  0.3748  0.1798
 5173TIP3    H136934   6.647   0.458   4.015  1.2969  0.7578  0.1348
 5173TIP3    H236935   6.652   0.307   4.018  1.1510  0.7281 -0.8973
 5174TIP3   OH236936   1.039   2.780   4.020 -0.6062 -0.4176  0.0273
 5174TIP3    H136937   1.077   2.785   3.932 -0.8342 -1.5071 -0.1542
 5174TIP3    H236938   1.076   2.854   4.067  1.7258 -1.3783 -0.1582
 5175TIP3   OH236939   0.419   0.874   1.727  1.0161 -0.5855  0.6141
 5175TIP3    H136940   0.495   0.846   1.778  1.7923  1.4911  0.7032
 5175TIP3    H236941   0.400   0.963   1.759 -1.8325 -1.2336  1.0127
 5176TIP3   OH236942   4.857   2.043   5.472  0.0417 -0.3781 -0.0296
 5176TIP3    H136943   4.851   2.046   5.377  1.2313 -1.5499 -0.1711
 5176TIP3    H236944   4.917   2.114   5.495 -1.3736  0.8567  0.0078
 5177TIP3   OH236945   2.487   4.114  11.608  0.2162  0.0712  0.5017
 5177TIP3    H136946   2.484   4.188  11.547 -0.9564 -0.1003  0.3260
 5177TIP3    H236947   2.530   4.149  11.686 -1.6753  1.4122  1.0205
 5178TIP3   OH236948   1.475   0.998   5.359  0.3185  0.5048  0.1500
 5178TIP3    H136949   1.495   1.088   5.387  0.3852 -0.1417  2.2893
 5178TIP3    H236950   1.561   0.956   5.353  0.3889  0.8479 -1.9996
 5179TIP3   OH236951   2.806   3.751   4.390  0.3315  0.1294 -0.4602
 5179TIP3    H136952   2.780   3.839   4.361  0.7222  1.0606  1.8264
 5179TIP3    H236953   2.760   3.738   4.472  2.2668 -0.7171  0.5598
 5180TIP3   OH236954   2.959   3.368  12.304  0.9002  0.0595 -0.0931
 5180TIP3    H136955   2.991   3.288  12.264 -1.1214 -0.8361 -0.0018
 5180TIP3    H236956   2.893   3.401  12.243  0.3781  0.6358  0.7625
 5181TIP3   OH236957   6.150   2.126   6.074 -0.0295 -0.3181 -0.1566
 5181TIP3    H136958   6.236   2.153   6.106 -0.2992 -0.3240  0.5837
 5181TIP3    H236959   6.088   2.179   6.124 -0.4608 -0.3136 -0.6833
 5182TIP3   OH236960   4.702   2.345   5.169  0.5087  0.0485 -0.4033
 5182TIP3    H136961   4.678   2.435   5.191 -1.7867 -0.1307 -1.9079
 5182TIP3    H236962   4.797   2.348   5.155  0.1371  2.9816 -3.5215
 5183TIP3   OH236963   1.862   3.827  13.391  1.0305  0.3845 -0.1080
 5183TIP3    H136964   1.906   3.830  13.476  1.6874  0.0154 -0.4376
 5183TIP3    H236965   1.787   3.769  13.406  1.5062 -0.1979  0.0536
 5184TIP3   OH236966   4.021   1.022  14.868 -0.1923  0.0305  0.4101
 5184TIP3    H136967   3.967   0.965  14.922 -0.5621  0.6041  0.6653
 5184TIP3    H236968   4.053   1.089  14.929  1.3894 -0.6818  0.4141
 5185TIP3   OH236969   1.267   2.451   4.408  0.0356  0.0097 -0.2435
 5185TIP3    H136970   1.174   2.432   4.421 -0.1152  1.3405  0.7615
 5185TIP3    H236971   1.269   2.542   4.380  1.0580 -0.0083 -0.2563
 5186TIP3   OH236972   3.966   3.004  16.370  0.1366  0.8206  0.3119
 5186TIP3    H136973   3.928   3.069  16.429 -1.4064 -1.5106  2.0145
 5186TIP3    H236974   3.964   2.922  16.419  1.9452 -0.5821 -1.7744
 5187TIP3   OH236975   4.208   1.895   0.728 -0.0412 -0.9398 -0.4980
 5187TIP3    H136976   4.202   1.802   0.751 -0.7430 -0.3810  1.8659
 5187TIP3    H236977   4.142   1.938   0.784  0.4057  1.0079 -1.3822
 5188TIP3   OH236978   3.443   3.837   5.107  0.1957 -0.5829 -0.2539
 5188TIP3    H136979   3.459   3.743   5.117 -0.0233 -0.5888  0.0630
 5188TIP3    H236980   3.350   3.848   5.129 -0.0873 -0.4589 -1.4464
 5189TIP3   OH236981   2.812   1.211  17.284  0.6393  0.0030 -0.0214
 5189TIP3    H136982   2.836   1.188  17.194  0.6595  1.2993 -0.3683
 5189TIP3    H236983   2.750   1.284  17.275  0.2030 -0.2268  0.9998
 5190TIP3   OH236984   0.683   4.379  17.298  0.5889 -0.0362  0.2017
 5190TIP3    H136985   0.694   4.472  17.279 -1.0650 -0.1385 -1.4688
 5190TIP3    H236986   0.593   4.359  17.274  0.5324 -1.8382  1.6564
 5191TIP3   OH236987   1.433   1.825  16.097  0.2242 -0.4731  0.3060
 5191TIP3    H136988   1.360   1.885  16.083 -0.2228 -0.8406  1.0223
 5191TIP3    H236989   1.474   1.855  16.179  0.5858 -0.5572  0.1606
 5192TIP3   OH236990   3.981   3.395   4.086  0.9236 -0.1378  0.2131
 5192TIP3    H136991   4.070   3.365   4.104  1.0449  0.3939  0.4963
 5192TIP3    H236992   3.949   3.427   4.170  1.0817  1.2914 -0.2528
 5193TIP3   OH236993   4.549   0.361   5.709  0.3459  0.0747 -0.1596
 5193TIP3    H136994   4.506   0.419   5.773  2.8088 -1.8214  3.5609
 5193TIP3    H236995   4.519   0.273   5.733  0.7379 -0.6634 -2.2394
 5194TIP3   OH236996   2.828   0.308  16.229  0.7527 -0.1076  0.7801
 5194TIP3    H136997   2.826   0.298  16.134  0.5012 -0.2244  0.7979
 5194TIP3    H236998   2.835   0.218  16.262 -1.2384 -0.2474  0.9253
 5195TIP3   OH236999   6.416   6.307  13.331 -0.2052  0.1367  0.2962
 5195TIP3    H137000   6.486   6.283  13.392 -1.3679 -0.9346  1.2735
 5195TIP3    H237001   6.461   6.351  13.259  1.3004  0.7593  1.5611
 5196TIP3   OH237002   3.242   4.192  15.554 -0.1978  0.4317 -0.2311
 5196TIP3    H137003   3.303   4.120  15.538 -1.7122 -1.3451  1.4999
 5196TIP3    H237004   3.236   4.198  15.649 -1.0779  2.0582 -0.3494
 5197TIP3   OH237005   4.208   0.852  11.710  0.3889 -0.4718 -0.5371
 5197TIP3    H137006   4.297   0.854  11.677  1.4080 -0.0962  2.0070
 5197TIP3    H237007   4.185   0.944  11.722  1.0246 -0.5576  1.9810
 5198TIP3   OH237008   3.002   5.809   3.945 -0.3028 -0.0169 -0.0267
 5198TIP3    H137009   2.974   5.893   3.980 -2.1272  0.0407 -1.5041
 5198TIP3    H237010   3.087   5.793   3.987  0.2682  2.7147  0.0217
 5199TIP3   OH237011   3.338   0.807   3.761  0.6034  0.7883 -0.4230
 5199TIP3    H137012   3.428   0.805   3.795  0.8136 -0.1862 -0.9753
 5199TIP3    H237013   3.285   0.766   3.829  0.0399  3.9577  1.2154
 5200TIP3   OH237014   5.443   2.876  12.236 -0.1093  0.2429 -0.2334
 5200TIP3    H137015   5.490   2.946  12.190 -1.4307 -0.1489 -2.2966
 5200TIP3    H237016   5.439   2.905  12.327  1.7219  1.5376 -0.5066
 5201TIP3   OH237017   5.558   2.946   0.897 -0.7061  0.2791  0.8958
 5201TIP3    H137018   5.590   2.946   0.807  1.4555 -0.6146  1.5868
 5201TIP3    H237019   5.554   3.039   0.921 -0.7695  0.5001  0.0475
 5202TIP3   OH237020   1.835   4.382  11.754  0.3433  0.6406 -0.0101
 5202TIP3    H137021   1.840   4.295  11.794  1.8742  0.6297 -0.1616
 5202TIP3    H237022   1.909   4.384  11.693  0.0048  1.8615 -0.4034
 5203TIP3   OH237023   0.353   4.741  16.366  0.2183  0.6076  0.0280
 5203TIP3    H137024   0.379   4.822  16.323 -2.3356  1.3869 -0.1825
 5203TIP3    H237025   0.314   4.688  16.297  0.3170 -0.1087  0.5039
 5204TIP3   OH237026   0.133   4.314   1.070 -0.2372  0.0859 -0.4612
 5204TIP3    H137027   0.214   4.363   1.088 -0.7559  0.6297  0.4446
 5204TIP3    H237028   0.133   4.244   1.134 -0.6312  0.2628 -0.2668
 5205TIP3   OH237029   1.154   6.635   4.865  0.0889 -0.1170  0.2262
 5205TIP3    H137030   1.068   6.594   4.852 -0.3969  0.9745 -0.1568
 5205TIP3    H237031   1.152   6.712   4.808  1.6330 -0.4941 -0.3686
 5206TIP3   OH237032   0.123   4.483  13.412 -0.3108 -0.4071 -0.4029
 5206TIP3    H137033   0.124   4.550  13.344  1.5217  0.9311  0.8746
 5206TIP3    H237034   0.167   4.408  13.372 -1.2427 -0.4322 -1.4146
 5207TIP3   OH237035   3.195   4.584   1.061  0.2252  0.1480 -0.1394
 5207TIP3    H137036   3.104   4.586   1.033  0.3099  1.0343 -0.3882
 5207TIP3    H237037   3.213   4.673   1.090  1.1276  0.0784 -0.4564
 5208TIP3   OH237038   1.375   3.162   5.867  0.4730 -0.6843 -0.0803
 5208TIP3    H137039   1.326   3.211   5.801  2.4736 -2.0106 -2.7475
 5208TIP3    H237040   1.442   3.223   5.897 -0.5958  0.0053  0.9900
 5209TIP3   OH237041   1.829   0.352   1.450  0.3064 -0.0847  0.1957
 5209TIP3    H137042   1.745   0.390   1.424  0.2014  0.0090  0.6729
 5209TIP3    H237043   1.844   0.383   1.539  0.4870 -0.7038  0.3861
 5210TIP3   OH237044   5.844   3.316   5.988 -0.2414  0.0062 -0.2723
 5210TIP3    H137045   5.771   3.375   5.971 -0.1832 -0.0957 -0.9102
 5210TIP3    H237046   5.853   3.265   5.907 -1.3933 -2.0685  0.8344
 5211TIP3   OH237047   2.622   0.456  15.639  0.2595  0.4033  0.0326
 5211TIP3    H137048   2.568   0.534  15.651  0.6158  0.5887  0.4622
 5211TIP3    H237049   2.699   0.472  15.693  0.3837 -0.2014  0.0407
 5212TIP3   OH237050   3.759   3.704  13.266 -0.0977 -0.9638  0.5832
 5212TIP3    H137051   3.812   3.783  13.273  0.5093 -1.3058  0.0104
 5212TIP3    H237052   3.704   3.704  13.344  3.1071 -2.2997  3.0850
 5213TIP3   OH237053   2.309   2.742   2.440  0.0496 -0.5740  0.2701
 5213TIP3    H137054   2.246   2.685   2.485 -0.0988  0.3545  1.2918
 5213TIP3    H237055   2.393   2.722   2.482  0.3729 -1.4443 -0.7426
 5214TIP3   OH237056   2.933   2.742  16.020  0.0629 -0.0546 -0.1057
 5214TIP3    H137057   3.022   2.732  15.987  0.4355 -0.0366  0.8932
 5214TIP3    H237058   2.920   2.837  16.024 -0.1288 -0.0569 -0.5688
 5215TIP3   OH237059   5.260   0.172   6.685 -0.0348  0.2584  1.0273
 5215TIP3    H137060   5.259   0.156   6.779 -1.0758  0.1511  1.0181
 5215TIP3    H237061   5.283   0.265   6.676 -2.9158  1.1476  1.5949
 5216TIP3   OH237062   3.660   2.776  15.198 -0.1400  0.6446 -0.4095
 5216TIP3    H137063   3.576   2.732  15.209 -1.3037  2.6300 -0.8858
 5216TIP3    H237064   3.709   2.756  15.278 -1.6784  0.7482  0.5881
 5217TIP3   OH237065   4.083   5.542   4.471  0.0001 -0.1231 -0.2950
 5217TIP3    H137066   4.129   5.462   4.445  0.5320  0.0513  0.1052
 5217TIP3    H237067   4.038   5.517   4.552  0.7778  0.1956  0.2415
 5218TIP3   OH237068   0.075   0.912  15.243 -0.2646 -0.7180  0.1895
 5218TIP3    H137069   0.109   1.001  15.233  1.7694 -1.6766 -3.7804
 5218TIP3    H237070   0.128   0.873  15.312  0.7369  0.3908  0.0710
 5219TIP3   OH237071   5.422   5.760  11.636  0.1813  0.0307  0.0636
 5219TIP3    H137072   5.400   5.840  11.589 -0.7548  0.0091  0.4477
 5219TIP3    H237073   5.347   5.744  11.693  0.4034 -1.0560  0.0760
 5220TIP3   OH237074   0.985   0.141   3.116  0.2749  0.4253 -0.2937
 5220TIP3    H137075   0.890   0.159   3.114  0.4716  2.4475  2.5284
 5220TIP3    H237076   1.024   0.217   3.073  0.6685 -0.1360 -0.9422
 5221TIP3   OH237077   3.261   3.087   2.861  0.0329  0.0246  0.1943
 5221TIP3    H137078   3.248   3.013   2.919 -0.2490 -1.1123 -1.2526
 5221TIP3    H237079   3.172   3.117   2.841  0.1650  1.8416  2.0460
 5222TIP3   OH237080   2.287   2.340   2.905 -0.0309 -0.1366  0.1508
 5222TIP3    H137081   2.302   2.435   2.905 -0.2843  0.1471 -4.5364
 5222TIP3    H237082   2.375   2.302   2.906  0.0828  0.1055  1.3806
 5223TIP3   OH237083   0.755   0.849   4.938 -0.7047 -0.5988  0.3746
 5223TIP3    H137084   0.760   0.924   4.998  0.7318 -0.0192 -0.4295
 5223TIP3    H237085   0.717   0.884   4.858 -1.3236 -1.0634  0.4518
 5224TIP3   OH237086   6.244   2.247  16.740 -0.3418  0.3712 -0.2454
 5224TIP3    H137087   6.196   2.191  16.802 -0.6030  0.5761 -0.2603
 5224TIP3    H237088   6.325   2.199  16.722 -0.7002 -0.1500 -0.4963
 5225TIP3   OH237089   5.220   0.782   1.057 -0.3202  0.3054 -0.0448
 5225TIP3    H137090   5.267   0.730   0.991  0.3446  0.3823  0.3572
 5225TIP3    H237091   5.244   0.742   1.141  0.6433  1.5830  0.3193
 5226TIP3   OH237092   4.780   0.800   5.014 -0.5149  0.0538 -0.0667
 5226TIP3    H137093   4.800   0.807   4.921  0.9809  2.1403  0.3323
 5226TIP3    H237094   4.715   0.868   5.030  1.8353  2.2649  0.9434
 5227TIP3   OH237095   2.608   1.914  11.231  1.0003 -0.2903 -0.8582
 5227TIP3    H137096   2.626   1.983  11.166  1.9147  0.8918  0.5901
 5227TIP3    H237097   2.645   1.835  11.191  0.6020  0.1738 -2.2265
 5228TIP3   OH237098   3.936   3.550   2.931 -0.8070 -0.2754  0.1965
 5228TIP3    H137099   3.987   3.541   2.850  0.7955 -0.4536  1.1815
 5228TIP3    H237100   3.869   3.482   2.925  0.8159 -1.9207  0.0807
 5229TIP3   OH237101   0.124   3.726   2.701  0.0596  0.1203  0.1433
 5229TIP3    H137102   0.153   3.788   2.634  0.7985  2.4311  2.4192
 5229TIP3    H237103   0.029   3.726   2.695  0.1544 -0.6639 -1.6642
 5230TIP3   OH237104   0.264   0.053   5.271 -0.0845  0.3511 -0.2353
 5230TIP3    H137105   0.255   0.089   5.183 -1.0295 -0.9081 -0.6815
 5230TIP3    H237106   0.256   0.129   5.329  2.7531  1.5600 -1.2482
 5231TIP3   OH237107   3.701   4.008  13.852 -0.4778  1.0267  0.3599
 5231TIP3    H137108   3.743   3.923  13.865 -0.6167  0.8931 -0.0361
 5231TIP3    H237109   3.744   4.066  13.915 -1.0817  0.4351  1.3447
 5232TIP3   OH237110   6.290   2.513   0.023  0.0757 -0.3264 -0.8822
 5232TIP3    H137111   6.198   2.524  -0.001  0.1408  0.4005 -0.8454
 5232TIP3    H237112   6.328   2.464  -0.049  0.1239  1.2247 -1.9743
 5233TIP3   OH237113   4.410   1.667   0.259  0.5129  0.1199  0.0797
 5233TIP3    H137114   4.452   1.583   0.276 -0.4595 -0.4170 -0.1361
 5233TIP3    H237115   4.319   1.645   0.238  0.5635  1.1101 -1.2852
 5234TIP3   OH237116   1.583   4.490   1.703 -0.2764 -0.0546  0.0423
 5234TIP3    H137117   1.593   4.405   1.659 -0.9189 -0.7104  1.1004
 5234TIP3    H237118   1.628   4.552   1.647  1.3693 -1.3029 -0.0980
 5235TIP3   OH237119   2.617   3.371   0.191 -0.1570 -0.0712  0.3890
 5235TIP3    H137120   2.677   3.445   0.199  0.0350  0.0897 -1.8834
 5235TIP3    H237121   2.663   3.298   0.232 -0.3336  0.9962  2.6382
 5236TIP3   OH237122   2.764   4.629   1.186 -0.5396  0.6179 -0.2861
 5236TIP3    H137123   2.738   4.650   1.276 -1.1953 -0.6890 -0.1333
 5236TIP3    H237124   2.835   4.689   1.166  0.6488 -0.0440  1.6609
 5237TIP3   OH237125   2.419   1.527   0.740 -0.0132 -0.0944  0.0198
 5237TIP3    H137126   2.416   1.582   0.818 -0.4120 -1.0248  0.6706
 5237TIP3    H237127   2.427   1.438   0.773 -0.4688 -0.5280 -0.9929
 5238TIP3   OH237128   5.082   1.299  13.170  0.2355 -0.2786 -0.5446
 5238TIP3    H137129   5.094   1.326  13.079  0.1773  0.0319 -0.4606
 5238TIP3    H237130   5.008   1.238  13.169 -0.0599  0.0842 -0.6350
 5239TIP3   OH237131   1.696   3.070   0.102 -0.0461  0.0957 -0.1832
 5239TIP3    H137132   1.752   3.053   0.025 -1.2022 -0.6303 -0.8969
 5239TIP3    H237133   1.644   3.146   0.077  1.4556  1.5675  0.9781
 5240TIP3   OH237134   0.720   0.719  15.073  0.0806  0.1659 -0.4601
 5240TIP3    H137135   0.647   0.668  15.109 -0.5840  0.2426 -1.6521
 5240TIP3    H237136   0.718   0.801  15.121 -0.3224 -0.0156 -0.1580
 5241TIP3   OH237137   5.275   6.364   3.802 -0.2869  0.1365  0.9316
 5241TIP3    H137138   5.340   6.293   3.803 -1.4500 -0.9694  1.2000
 5241TIP3    H237139   5.320   6.437   3.760  0.1815 -1.5562 -1.7983
 5242TIP3   OH237140   0.869   3.821   0.182  0.5611  0.2288 -0.3521
 5242TIP3    H137141   0.942   3.845   0.125  1.4066  1.4596  1.1937
 5242TIP3    H237142   0.863   3.892   0.246 -0.4960 -1.0010  0.9889
 5243TIP3   OH237143   1.632   3.132   5.365  0.2706  0.0482 -0.6928
 5243TIP3    H137144   1.586   3.123   5.281 -0.9297  0.2904 -0.0808
 5243TIP3    H237145   1.698   3.062   5.363 -1.3735 -1.5924 -0.8154
 5244TIP3   OH237146   0.084   1.708  11.814  0.0598 -0.4681  0.1131
 5244TIP3    H137147   0.129   1.625  11.796  0.7551 -0.2578  0.8481
 5244TIP3    H237148   0.143   1.755  11.873 -0.7572  0.1614  0.4428
 5245TIP3   OH237149   0.991   4.650   2.308  0.1597  0.6557  0.3928
 5245TIP3    H137150   1.042   4.573   2.331 -0.2568  0.1784 -0.2579
 5245TIP3    H237151   1.056   4.716   2.284  0.4940 -0.5362 -2.3513
 5246TIP3   OH237152   5.238   5.944   5.950 -0.1645 -0.3000  0.3614
 5246TIP3    H137153   5.172   5.875   5.960  0.1764 -0.6624  0.1444
 5246TIP3    H237154   5.254   5.948   5.856 -0.6975  0.5654  0.3042
 5247TIP3   OH237155   1.792   1.338   4.328  0.0320 -0.2623  0.0743
 5247TIP3    H137156   1.774   1.430   4.308  1.3520  0.3675  1.5079
 5247TIP3    H237157   1.711   1.306   4.367 -0.6243  0.1123 -0.9364
 5248TIP3   OH237158   2.926   6.184   1.115 -0.0039  0.6327 -0.3326
 5248TIP3    H137159   2.939   6.125   1.042 -1.0610  1.2381 -1.0385
 5248TIP3    H237160   3.010   6.183   1.162 -0.1381 -1.7474 -0.0379
 5249TIP3   OH237161   5.885   6.351  13.799  0.1436 -0.0306  0.1865
 5249TIP3    H137162   5.968   6.305  13.811  0.1515  0.5785  3.1008
 5249TIP3    H237163   5.825   6.309  13.860 -0.4000  2.4349  1.4858
 5250TIP3   OH237164   3.155   0.016   5.866  0.1038 -0.5138  0.2338
 5250TIP3    H137165   3.177  -0.057   5.808  1.6609 -1.6070  2.0810
 5250TIP3    H237166   3.195   0.092   5.825 -2.8814 -0.2432 -2.5761
 5251TIP3   OH237167   3.439   5.546   2.192  0.2265  0.8162  0.7777
 5251TIP3    H137168   3.365   5.599   2.223 -0.5208 -0.6725  1.7059
 5251TIP3    H237169   3.470   5.500   2.270 -1.1148 -2.3672 -0.3678
 5252TIP3   OH237170   3.373   1.996  15.811 -0.1908 -1.0142 -0.4312
 5252TIP3    H137171   3.462   1.962  15.823 -0.0410 -0.5322 -0.1193
 5252TIP3    H237172   3.326   1.970  15.890  0.2299  0.4165  0.3238
 5253TIP3   OH237173   2.363   5.716  14.216 -0.5427  0.1190 -0.0803
 5253TIP3    H137174   2.283   5.731  14.166 -1.0061 -0.6363  0.4086
 5253TIP3    H237175   2.334   5.708  14.307 -0.1367 -1.7416 -0.0740
 5254TIP3   OH237176   3.750   0.761  11.570  0.5039 -0.6055 -0.4460
 5254TIP3    H137177   3.706   0.693  11.519  0.6795 -1.0742  0.0168
 5254TIP3    H237178   3.837   0.725  11.589  0.2521 -0.6848  0.6517
 5255TIP3   OH237179   3.478   3.326   2.797  0.0842 -0.1235 -0.4885
 5255TIP3    H137180   3.538   3.273   2.745  0.2125 -0.6886  0.2115
 5255TIP3    H237181   3.396   3.276   2.797 -0.2520  0.4162 -1.0555
 5256TIP3   OH237182   6.609   5.593  13.831 -0.1312 -0.1788  0.1753
 5256TIP3    H137183   6.593   5.594  13.736 -0.4993  1.7463  0.2203
 5256TIP3    H237184   6.526   5.622  13.870  0.1502 -0.5323  1.0548
 5257TIP3   OH237185   5.343   0.178   1.957  0.7603  0.4292 -0.2465
 5257TIP3    H137186   5.369   0.140   1.873 -1.1695  0.0559 -0.7280
 5257TIP3    H237187   5.327   0.270   1.938  1.4428  0.6091  0.0019
 5258TIP3   OH237188   5.607   4.353  13.801 -0.8207  0.4330 -0.2259
 5258TIP3    H137189   5.672   4.339  13.871  1.8586 -1.4353 -2.8340
 5258TIP3    H237190   5.631   4.438  13.764 -1.4788  0.8743  0.3437
 5259TIP3   OH237191   0.159   1.059  12.699 -0.4265 -0.5301 -0.4936
 5259TIP3    H137192   0.248   1.082  12.727 -1.0804 -0.0590  1.3429
 5259TIP3    H237193   0.116   1.143  12.685 -0.3368 -0.7535 -2.3892
 5260TIP3   OH237194   5.523   0.007  16.679 -0.6510  0.7955 -0.3067
 5260TIP3    H137195   5.459  -0.060  16.700  0.4621 -0.8442 -1.8755
 5260TIP3    H237196   5.532   0.057  16.760 -1.2043 -1.2179  1.0732
 5261TIP3   OH237197   0.723   0.836   5.528 -0.2902  0.2647 -0.0334
 5261TIP3    H137198   0.667   0.816   5.603 -1.5075  0.8789 -0.7476
 5261TIP3    H237199   0.771   0.755   5.511 -0.5860 -0.1184  0.8990
 5262TIP3   OH237200   0.733   4.489  12.453  0.3535 -0.6119 -0.5875
 5262TIP3    H137201   0.735   4.471  12.547 -0.6362  1.4375 -0.1179
 5262TIP3    H237202   0.741   4.403  12.412  0.0384 -1.6286  1.3689
 5263TIP3   OH237203   0.170   4.520  14.105  0.0631 -0.4598 -0.3851
 5263TIP3    H137204   0.202   4.580  14.173 -0.7707  0.5144 -0.8175
 5263TIP3    H237205   0.075   4.519  14.118 -0.0277 -0.8618 -1.0526
 5264TIP3   OH237206   0.966   3.113   4.134 -0.1677  0.2420  0.6271
 5264TIP3    H137207   1.054   3.149   4.130  0.3314 -0.6407  2.5339
 5264TIP3    H237208   0.978   3.021   4.158 -1.5314 -0.5286 -1.3459
 5265TIP3   OH237209   6.096   1.921   0.068  0.1771  0.1976 -0.4717
 5265TIP3    H137210   6.059   1.986   0.008  1.0184  1.6943  0.5903
 5265TIP3    H237211   6.180   1.957   0.095  0.7086 -1.3761  0.1070
 5266TIP3   OH237212   0.752   4.779  13.856 -0.3724  0.2043  0.4246
 5266TIP3    H137213   0.716   4.841  13.793  0.3844  0.4004  0.1693
 5266TIP3    H237214   0.698   4.790  13.934 -2.8269 -1.6656 -0.8641
 5267TIP3   OH237215   0.642   0.779  14.720 -0.7854  0.1834 -0.4701
 5267TIP3    H137216   0.661   0.841  14.649  0.2955  0.4482  0.0244
 5267TIP3    H237217   0.725   0.770  14.766 -0.8989 -1.6670 -0.5403
 5268TIP3   OH237218   0.116   4.085   4.547  0.4772  0.0759 -0.1141
 5268TIP3    H137219   0.117   4.120   4.636  3.1578 -0.5215  0.1827
 5268TIP3    H237220   0.163   4.151   4.495 -1.6029  0.7246 -1.2840
 5269TIP3   OH237221   3.440   6.091   2.416  0.4502 -0.2455  0.2022
 5269TIP3    H137222   3.512   6.129   2.465  0.8784 -0.7723 -0.0055
 5269TIP3    H237223   3.404   6.165   2.366  0.8637  0.0157  0.2816
 5270TIP3   OH237224   3.983   3.604   1.885  0.3303  0.3873 -0.9472
 5270TIP3    H137225   3.987   3.583   1.978  1.6635  0.9930 -0.8473
 5270TIP3    H237226   4.009   3.696   1.880  1.1665  0.1157 -1.9885
 5271TIP3   OH237227   3.119   2.748   3.413 -0.0850  0.4331  0.2401
 5271TIP3    H137228   3.162   2.818   3.363  0.3194  0.3524  0.4701
 5271TIP3    H237229   3.166   2.746   3.496 -0.1657 -0.0400  0.2775
 5272TIP3   OH237230   6.094   5.983   0.334  0.3791  0.2486  0.8078
 5272TIP3    H137231   6.186   6.002   0.354  0.8606 -1.1373  0.1348
 5272TIP3    H237232   6.081   6.020   0.246  0.5437 -0.2272  0.5771
 5273TIP3   OH237233   0.175   4.303   3.345 -0.2426  0.1349  0.8316
 5273TIP3    H137234   0.123   4.360   3.402  2.5279  1.2099  2.4723
 5273TIP3    H237235   0.190   4.224   3.396  0.4903  0.2155  0.7453
 5274TIP3   OH237236   5.781   1.810  15.115 -0.2959  0.3196 -0.3076
 5274TIP3    H137237   5.714   1.826  15.049 -0.6995 -0.7474 -0.1781
 5274TIP3    H237238   5.805   1.719  15.103 -0.1865  0.1823  0.8465
 5275TIP3   OH237239   4.670   1.775  12.387 -0.4327  0.1189 -0.0542
 5275TIP3    H137240   4.613   1.748  12.459  1.2644 -0.3616  1.1666
 5275TIP3    H237241   4.693   1.694  12.342  0.9546  0.0166  0.7770
 5276TIP3   OH237242   3.856   0.921  13.808 -0.4197 -0.5130 -0.0837
 5276TIP3    H137243   3.869   0.827  13.824 -1.5424 -0.6493  0.0872
 5276TIP3    H237244   3.945   0.956  13.797  0.2348 -1.0530  2.7664
 5277TIP3   OH237245   4.087   2.307   0.619  0.1734 -0.0790  0.4748
 5277TIP3    H137246   4.089   2.303   0.715 -1.0483  0.1790  0.5337
 5277TIP3    H237247   4.045   2.391   0.600  1.6656  0.5155 -0.3215
 5278TIP3   OH237248   1.503   1.593   5.012 -0.0040  0.6997 -0.2905
 5278TIP3    H137249   1.565   1.537   5.059 -1.3451 -0.9143 -0.3339
 5278TIP3    H237250   1.468   1.651   5.079 -0.1113  0.0697  0.2060
 5279TIP3   OH237251   3.131   5.186  15.963  0.4418  0.7365  0.4214
 5279TIP3    H137252   3.158   5.277  15.978  0.0741  0.7254  1.1900
 5279TIP3    H237253   3.055   5.193  15.905 -0.2160  0.9915  1.2925
 5280TIP3   OH237254   5.066   3.036   0.554  0.3388 -0.3604  0.0235
 5280TIP3    H137255   5.106   3.121   0.536  0.1810 -0.0687  1.0149
 5280TIP3    H237256   5.139   2.975   0.556  0.6878  0.0753  1.2329
 5281TIP3   OH237257   6.762   2.862  12.309  0.6636 -0.2333  0.2530
 5281TIP3    H137258   6.760   2.805  12.232 -2.5371 -0.6680  0.5143
 5281TIP3    H237259   6.737   2.948  12.276 -1.5420 -0.5908  0.7996
 5282TIP3   OH237260   4.868   5.404  11.705  0.7213  0.4614  0.2466
 5282TIP3    H137261   4.892   5.374  11.793  0.1615 -1.2597 -0.1410
 5282TIP3    H237262   4.782   5.365  11.689  1.9823 -1.6910 -2.1082
 5283TIP3   OH237263   6.009   4.539  14.481 -0.1117  0.4104 -0.3698
 5283TIP3    H137264   5.958   4.463  14.455  0.3464 -0.0500  0.0584
 5283TIP3    H237265   6.097   4.522  14.446  0.5017 -0.1992  1.3931
 5284TIP3   OH237266   3.767   1.960   0.259 -0.1603 -0.4326  0.6506
 5284TIP3    H137267   3.695   2.022   0.271  1.6340  1.7874  0.5280
 5284TIP3    H237268   3.752   1.893   0.326 -1.7615  0.4841  1.2811
 5285TIP3   OH237269   6.644   3.561   5.697  0.5154  0.4558 -0.1960
 5285TIP3    H137270   6.671   3.509   5.621 -0.7990  1.0662 -1.1273
 5285TIP3    H237271   6.568   3.514   5.732 -1.1332  2.0184 -1.4672
 5286TIP3   OH237272   2.761   2.598  15.064  0.2872  0.3459  0.1743
 5286TIP3    H137273   2.801   2.677  15.027  0.1375  0.6539  0.6563
 5286TIP3    H237274   2.695   2.572  15.000 -1.6103  2.2114  1.2684
 5287TIP3   OH237275   2.222   5.689   2.441 -0.0167  0.0137  0.1301
 5287TIP3    H137276   2.295   5.725   2.490  0.3634 -0.8669  0.2246
 5287TIP3    H237277   2.259   5.663   2.357 -0.2100 -0.4638  0.1895
 5288TIP3   OH237278   5.964   1.934  12.398  0.3497 -0.2571  0.2474
 5288TIP3    H137279   5.884   1.939  12.346  0.6894  1.5394 -0.2000
 5288TIP3    H237280   5.959   1.851  12.444 -1.4395 -0.4843 -0.3041
 5289TIP3   OH237281   0.280   6.654   0.715 -0.2890 -0.2826  0.0702
 5289TIP3    H137282   0.203   6.695   0.753 -0.4702 -0.9785  0.4728
 5289TIP3    H237283   0.344   6.725   0.706 -0.8266  0.2087  0.1282
 5290TIP3   OH237284   5.619   0.630  11.958 -0.0873 -0.3729  0.2217
 5290TIP3    H137285   5.581   0.630  11.870  0.5874  0.0419 -0.0749
 5290TIP3    H237286   5.713   0.619  11.944  0.0649  0.0385  0.8682
 5291TIP3   OH237287   3.486   3.203   5.099 -0.1100  0.3666 -0.3230
 5291TIP3    H137288   3.439   3.268   5.151 -0.7642 -0.1853 -0.2157
 5291TIP3    H237289   3.568   3.247   5.075 -0.4791  1.1805 -0.1438
 5292TIP3   OH237290   4.223   5.009  16.737  0.0915 -0.5790  0.1145
 5292TIP3    H137291   4.241   5.011  16.643 -0.7362 -0.8655 -0.0525
 5292TIP3    H237292   4.291   5.065  16.775  0.7917 -0.9231 -0.5895
 5293TIP3   OH237293   2.171   0.803  11.386  0.1512  0.3523  0.3490
 5293TIP3    H137294   2.235   0.789  11.455 -0.3177  1.5101  1.0505
 5293TIP3    H237295   2.087   0.779  11.426 -0.0895  0.7295  0.0756
 5294TIP3   OH237296   5.026   6.604  14.398  0.7517 -0.2490 -0.6271
 5294TIP3    H137297   4.960   6.538  14.419 -0.2790  1.1134  0.6710
 5294TIP3    H237298   4.976   6.678  14.363  1.4082  1.1854  1.2525
 5295TIP3   OH237299   6.019   3.905   4.831 -0.1976  0.0088 -0.0234
 5295TIP3    H137300   6.034   3.975   4.894 -1.4105  2.1519 -1.9466
 5295TIP3    H237301   6.103   3.860   4.824  0.8333  1.7211  0.8108
 5296TIP3   OH237302   1.090   0.850   5.971  0.1431 -0.1335  0.5435
 5296TIP3    H137303   1.089   0.754   5.968  0.5083 -0.1211 -0.5550
 5296TIP3    H237304   1.072   0.872   6.063 -1.6954 -1.2206  0.4997
 5297TIP3   OH237305   5.359   1.648  14.129 -0.4914 -0.2616 -0.0597
 5297TIP3    H137306   5.345   1.558  14.159  0.9088 -0.1977  0.9002
 5297TIP3    H237307   5.387   1.695  14.208 -1.6603  1.1442 -0.4429
 5298TIP3   OH237308   6.450   2.529  15.720 -0.0306  0.5812  0.1809
 5298TIP3    H137309   6.491   2.475  15.787  0.0734  2.7797  1.9965
 5298TIP3    H237310   6.509   2.604  15.709 -1.3572  1.5974 -0.4126
 5299TIP3   OH237311   4.532   1.792   0.048 -0.1553  0.3975 -0.3689
 5299TIP3    H137312   4.480   1.746   0.114 -0.8944  0.8919 -0.6045
 5299TIP3    H237313   4.620   1.794   0.085 -0.4588  0.2347  0.3827
 5300TIP3   OH237314   4.524   2.895  12.043  0.0068  0.0337  0.4033
 5300TIP3    H137315   4.446   2.868  11.995 -0.8065 -0.2329  1.8457
 5300TIP3    H237316   4.498   2.894  12.135  2.2424 -2.0350  1.1325
 5301TIP3   OH237317   2.392   0.613  16.589 -0.9593 -0.6080 -0.6671
 5301TIP3    H137318   2.451   0.680  16.555  0.5862 -0.4557  1.9579
 5301TIP3    H237319   2.414   0.608  16.683 -2.5777 -3.1946 -0.3167
 5302TIP3   OH237320   4.443   5.059  14.294  0.1048  0.0622  0.1424
 5302TIP3    H137321   4.421   5.010  14.215 -0.7632  0.7952 -0.0903
 5302TIP3    H237322   4.534   5.036  14.312  1.8394  2.9601 -3.4675
 5303TIP3   OH237323   4.940   1.673  16.228 -0.2128  0.4789 -0.2989
 5303TIP3    H137324   4.888   1.678  16.147 -0.0714  1.5391 -0.3356
 5303TIP3    H237325   4.905   1.596  16.273 -0.6056  0.1366 -1.1502
 5304TIP3   OH237326   2.446   4.867   6.550 -0.4424 -0.1366  0.4211
 5304TIP3    H137327   2.374   4.851   6.610 -1.9858 -2.1659 -1.7740
 5304TIP3    H237328   2.405   4.871   6.463  1.9314 -0.0825 -0.7857
 5305TIP3   OH237329   5.845   2.951  14.408 -0.4865 -0.0624  0.0865
 5305TIP3    H137330   5.838   2.928  14.500 -0.3773  1.5050  0.5125
 5305TIP3    H237331   5.939   2.958  14.391 -0.3965 -2.5109 -0.7488
 5306TIP3   OH237332   1.234   3.023   1.967  0.5649 -0.3155  0.1814
 5306TIP3    H137333   1.313   3.068   1.936  0.2210 -0.4902 -1.0295
 5306TIP3    H237334   1.266   2.955   2.026  1.2851 -0.0958  0.0507
 5307TIP3   OH237335   5.522   1.511  10.737 -0.3127  0.0839  0.4674
 5307TIP3    H137336   5.489   1.525  10.648 -2.0352  1.0848  1.2164
 5307TIP3    H237337   5.526   1.599  10.774  0.0678 -0.3564  1.4950
 5308TIP3   OH237338   2.603   2.509  11.433  0.0748 -0.7197 -0.0899
 5308TIP3    H137339   2.564   2.426  11.406  0.4551 -0.5199 -1.3539
 5308TIP3    H237340   2.553   2.537  11.509 -1.5693 -0.9659 -1.0443
 5309TIP3   OH237341   2.124   0.001  14.721 -0.0399 -0.8640 -0.4260
 5309TIP3    H137342   2.125   0.054  14.801  0.2077  0.5560 -1.3360
 5309TIP3    H237343   2.171  -0.078  14.745 -1.7608 -1.4254  1.4307
 5310TIP3   OH237344   0.364   1.801   3.473 -0.0360 -0.1864  0.4826
 5310TIP3    H137345   0.363   1.711   3.441 -0.9851  0.3032 -0.9544
 5310TIP3    H237346   0.278   1.836   3.450  1.0493  1.7387 -0.9469
 5311TIP3   OH237347   1.566   6.103  17.190 -0.1913  0.0518 -0.2574
 5311TIP3    H137348   1.552   6.108  17.285  0.0529  1.8306 -0.2682
 5311TIP3    H237349   1.660   6.087  17.180 -0.2465 -0.3051 -0.1909
 5312TIP3   OH237350   2.761   2.365  14.217 -0.5956 -0.4422 -0.2307
 5312TIP3    H137351   2.711   2.310  14.276 -0.7737 -0.8254 -0.7287
 5312TIP3    H237352   2.742   2.454  14.245 -0.7073 -0.6179  0.2608
 5313TIP3   OH237353   4.609   5.409  14.478  0.2911 -0.0400 -0.0896
 5313TIP3    H137354   4.561   5.392  14.397  1.3573 -0.0949 -0.7183
 5313TIP3    H237355   4.641   5.323  14.505  0.8186  0.1271 -0.1748
 5314TIP3   OH237356   5.642   1.578   5.583  0.5968  0.0459 -0.0643
 5314TIP3    H137357   5.657   1.484   5.600 -1.4682  0.0170  2.1878
 5314TIP3    H237358   5.681   1.622   5.659 -0.6594  0.7777  0.1867
 5315TIP3   OH237359   6.468   0.460   2.376  0.3497  0.2460 -0.2201
 5315TIP3    H137360   6.471   0.407   2.296 -0.2663 -1.6305  0.9397
 5315TIP3    H237361   6.389   0.513   2.367 -0.5010 -0.9957 -0.2643
 5316TIP3   OH237362   5.763   6.350  13.545  0.2452 -0.3576  0.0429
 5316TIP3    H137363   5.822   6.361  13.619  0.0495  0.1342  0.1342
 5316TIP3    H237364   5.690   6.409  13.564 -0.0832 -0.6566 -0.2616
 5317TIP3   OH237365   1.832   0.999   2.562 -0.0922  0.3113 -0.0901
 5317TIP3    H137366   1.794   0.911   2.566 -0.3778  0.4299 -0.1875
 5317TIP3    H237367   1.901   0.992   2.495  2.5493 -0.8504  2.5461
 5318TIP3   OH237368   1.512   6.020   6.493 -0.1192  0.3933 -0.6083
 5318TIP3    H137369   1.607   6.018   6.498 -0.0909  1.7079 -0.1028
 5318TIP3    H237370   1.484   6.042   6.582 -1.0442 -2.3185 -0.1426
 5319TIP3   OH237371   2.736   6.204   5.606 -0.2230 -0.0046  0.5581
 5319TIP3    H137372   2.818   6.232   5.646 -0.3706  1.0156  0.1844
 5319TIP3    H237373   2.732   6.252   5.523 -1.4220  0.3521  0.7888
 5320TIP3   OH237374   2.800   0.313  12.737 -0.0457 -0.1370 -0.0636
 5320TIP3    H137375   2.801   0.397  12.782 -1.8957  0.7792 -1.5842
 5320TIP3    H237376   2.768   0.251  12.803  0.7520  0.4465  0.8928
 5321TIP3   OH237377   6.626   0.331   3.617 -0.0970  0.4459 -0.5664
 5321TIP3    H137378   6.601   0.421   3.596 -0.8670  0.3169 -0.2163
 5321TIP3    H237379   6.713   0.339   3.657  0.2975  0.9265 -1.4948
 5322TIP3   OH237380   0.098   4.728   2.337  0.6188 -0.4523 -0.6876
 5322TIP3    H137381   0.016   4.743   2.289  0.1955  0.2703  0.2407
 5322TIP3    H237382   0.154   4.801   2.312 -0.4377  1.2807  1.6561
 5323TIP3   OH237383   1.113   5.056  11.961 -0.0242  0.3747  0.1510
 5323TIP3    H137384   1.025   5.025  11.941 -0.1487  0.4549  0.5503
 5323TIP3    H237385   1.170   5.010  11.900 -0.0825 -1.3784  1.3588
 5324TIP3   OH237386   4.015   4.607   1.950 -0.3603  0.4598  0.1720
 5324TIP3    H137387   3.981   4.637   2.034 -0.6011 -1.1376  0.6783
 5324TIP3    H237388   4.047   4.518   1.967  1.3468  0.8011 -0.9967
 5325TIP3   OH237389   5.348   0.591   3.718 -0.5241 -0.0966  0.0518
 5325TIP3    H137390   5.404   0.641   3.779 -0.2432  0.1528 -0.4058
 5325TIP3    H237391   5.409   0.531   3.675 -0.4637  0.6626 -0.9666
 5326TIP3   OH237392   2.196   0.039   1.307 -0.0786  0.0166 -0.0996
 5326TIP3    H137393   2.285   0.010   1.288 -0.0175 -1.2156  1.7464
 5326TIP3    H237394   2.193   0.130   1.277  2.3410  0.6256  1.2033
 5327TIP3   OH237395   1.969   3.926  16.117  0.4772 -0.0366  0.5033
 5327TIP3    H137396   1.963   3.831  16.131 -2.2832  0.3578  2.9822
 5327TIP3    H237397   2.033   3.955  16.183  1.8973 -0.1728 -0.7555
 5328TIP3   OH237398   5.979   0.574  11.168 -0.4543  0.0095 -0.0209
 5328TIP3    H137399   5.995   0.503  11.106  0.0127  0.0639  0.0302
 5328TIP3    H237400   5.930   0.639  11.118  1.1641  0.6975 -0.7813
 5329TIP3   OH237401   4.533   1.352   4.506 -0.3663  0.0564  0.5564
 5329TIP3    H137402   4.575   1.402   4.576 -0.2910  2.5666 -1.1870
 5329TIP3    H237403   4.604   1.302   4.466 -0.2060 -0.4780  1.4687
 5330TIP3   OH237404   3.488   4.883   5.111  0.1222 -0.4781 -0.4426
 5330TIP3    H137405   3.469   4.825   5.185 -0.4954 -0.8620 -0.8971
 5330TIP3    H237406   3.446   4.842   5.036 -0.3267  0.5538 -0.7749
 5331TIP3   OH237407   1.824   2.212  14.810  0.6986  0.1394 -0.6884
 5331TIP3    H137408   1.804   2.193  14.718 -0.0320 -3.0264  0.0122
 5331TIP3    H237409   1.859   2.301  14.808  1.1282  0.0526 -4.0738
 5332TIP3   OH237410   6.188   2.346   5.853  0.5513  0.3311  0.1199
 5332TIP3    H137411   6.169   2.265   5.899 -0.1663  0.5040  0.1353
 5332TIP3    H237412   6.115   2.358   5.793  1.7673 -0.2202 -1.5552
 5333TIP3   OH237413   4.323   2.141   0.680 -0.7117  0.0504  0.3565
 5333TIP3    H137414   4.251   2.201   0.662 -1.2023 -0.3374  0.9875
 5333TIP3    H237415   4.288   2.055   0.656  0.3620  0.1089 -1.6269
 5334TIP3   OH237416   1.407   3.170  17.147 -0.0605  0.2746 -0.1047
 5334TIP3    H137417   1.383   3.081  17.120 -0.8641 -0.1847  1.9311
 5334TIP3    H237418   1.391   3.224  17.070 -0.8205 -1.1540 -0.9813
 5335TIP3   OH237419   5.389   3.735   4.534 -0.0364  0.3696 -0.0566
 5335TIP3    H137420   5.315   3.679   4.512  0.5036 -0.4435  0.1665
 5335TIP3    H237421   5.376   3.756   4.627 -0.0937  0.3827 -0.0678
 5336TIP3   OH237422   0.059   2.487   5.456 -0.2753 -0.0183 -0.1089
 5336TIP3    H137423   0.100   2.513   5.373 -1.6176  4.2427  0.3379
 5336TIP3    H237424  -0.015   2.432   5.429  0.4987 -0.4284 -1.5319
 5337TIP3   OH237425   3.824   6.751  12.846  0.2846 -0.4824  0.1937
 5337TIP3    H137426   3.782   6.834  12.868  0.1613 -0.2576 -0.8153
 5337TIP3    H237427   3.762   6.684  12.875  1.2274 -0.3369  2.7999
 5338TIP3   OH237428   3.950   1.398   1.041 -0.4381 -0.2796  0.3437
 5338TIP3    H137429   3.973   1.305   1.052 -0.7717 -0.4895 -0.6685
 5338TIP3    H237430   3.860   1.404   1.073  0.0042 -0.0325  1.6062
 5339TIP3   OH237431   0.407   6.024   3.900 -0.0922 -0.2594 -0.1807
 5339TIP3    H137432   0.456   6.042   3.980  0.1049 -0.1713 -0.3189
 5339TIP3    H237433   0.322   5.991   3.930  0.0495 -0.4043  0.0588
 5340TIP3   OH237434   3.628   0.207   3.635  0.3286 -0.0125  0.4398
 5340TIP3    H137435   3.604   0.277   3.575  0.2668 -2.1512 -2.2188
 5340TIP3    H237436   3.708   0.237   3.678  0.7147  1.3578 -1.1650
 5341TIP3   OH237437   0.432   2.921   5.260 -0.1009 -0.2180 -0.0616
 5341TIP3    H137438   0.408   2.843   5.210 -1.0507 -0.0825  0.1661
 5341TIP3    H237439   0.349   2.963   5.282  0.3615  0.4787  0.4340
 5342TIP3   OH237440   4.839   5.188  11.918  0.4066  0.2868  0.2327
 5342TIP3    H137441   4.760   5.189  11.973 -0.6695  0.3807 -1.2477
 5342TIP3    H237442   4.886   5.267  11.942 -0.2698  0.5605  0.7080
 5343TIP3   OH237443   1.300   1.440  11.982 -0.5700  0.0941  0.9187
 5343TIP3    H137444   1.240   1.500  11.936  0.1365  0.7213  0.7937
 5343TIP3    H237445   1.385   1.455  11.941  0.0159  0.4385  2.2057
 5344TIP3   OH237446   1.736   4.167  16.633 -0.3144  0.1717 -0.0022
 5344TIP3    H137447   1.759   4.115  16.556 -1.1633 -2.4685  1.3988
 5344TIP3    H237448   1.651   4.133  16.660 -0.0089  0.9571  2.1436
 5345TIP3   OH237449   3.287   5.245   5.022  0.3859  0.2882 -0.2774
 5345TIP3    H137450   3.225   5.318   5.023 -2.3536 -1.8404  1.5146
 5345TIP3    H237451   3.290   5.218   4.930 -0.7068  0.9528 -0.5362
 5346TIP3   OH237452   1.081   6.265   4.453 -0.4531 -0.3249  0.2063
 5346TIP3    H137453   1.113   6.290   4.366 -2.7441 -0.0048 -0.6032
 5346TIP3    H237454   1.153   6.287   4.512  0.3930  1.3783 -1.3633
 5347TIP3   OH237455   3.459   2.458  14.744 -0.0131 -0.4779  0.2348
 5347TIP3    H137456   3.382   2.460  14.801 -1.0147 -2.2033 -0.9384
 5347TIP3    H237457   3.451   2.536  14.690  0.0430  0.2809  1.2950
 5348TIP3   OH237458   6.689   6.630  16.850 -0.4126  0.0644 -0.0811
 5348TIP3    H137459   6.620   6.586  16.799 -0.3927  0.6951 -0.6673
 5348TIP3    H237460   6.646   6.707  16.887  0.1793  0.9202 -1.1435
 5349TIP3   OH237461   6.393   2.097   2.134  0.2522 -0.3362  0.0147
 5349TIP3    H137462   6.351   2.112   2.219 -0.7860  1.1796 -0.7149
 5349TIP3    H237463   6.482   2.131   2.146 -0.1745  0.7429  0.2398
 5350TIP3   OH237464   0.948   0.703  11.432 -0.1042  0.1094 -0.1014
 5350TIP3    H137465   0.965   0.708  11.338 -0.6384 -1.3208 -0.2979
 5350TIP3    H237466   0.951   0.794  11.462 -1.3868  0.7510 -1.7547
 5351TIP3   OH237467   5.958   3.705   3.877  0.4282 -0.3594 -0.0492
 5351TIP3    H137468   5.886   3.710   3.814  1.0346 -0.8101 -0.7950
 5351TIP3    H237469   5.934   3.631   3.934  0.0602 -0.1849  0.0287
 5352TIP3   OH237470   5.720   0.069  14.578 -0.0708  0.4733  0.7142
 5352TIP3    H137471   5.647   0.129  14.566 -0.1747  0.2860  0.3902
 5352TIP3    H237472   5.700  -0.005  14.521  1.0273  1.0295 -0.4769
 5353TIP3   OH237473   0.731   4.673  17.089  0.2362  0.3659 -0.3246
 5353TIP3    H137474   0.657   4.732  17.104 -0.3050 -0.7707  1.7888
 5353TIP3    H237475   0.797   4.700  17.154  0.5148 -0.4827 -0.2464
 5354TIP3   OH237476   6.305   3.641  12.789 -0.3207 -0.1395  0.0979
 5354TIP3    H137477   6.284   3.568  12.731 -0.0256  0.4383 -0.7675
 5354TIP3    H237478   6.227   3.696  12.788 -0.7286 -0.6713  1.1404
 5355TIP3   OH237479   2.333   2.717  14.902 -0.0628  0.3537  0.0879
 5355TIP3    H137480   2.420   2.692  14.871  1.4829  4.0193  0.9129
 5355TIP3    H237481   2.303   2.642  14.952  1.4209 -2.0401 -2.3264
 5356TIP3   OH237482   0.560   0.308   0.382 -0.2111  0.0998  0.0255
 5356TIP3    H137483   0.586   0.343   0.297 -0.6796 -0.1745 -0.2339
 5356TIP3    H237484   0.471   0.342   0.395 -0.2594 -0.1172  0.2624
 5357TIP3   OH237485   2.238   5.060  13.579 -0.3737 -0.1270  0.0895
 5357TIP3    H137486   2.332   5.052  13.561 -0.3675 -0.0891  0.1049
 5357TIP3    H237487   2.196   5.038  13.496 -0.3248  0.8247 -0.2000
 5358TIP3   OH237488   1.645   0.579  15.298  0.7205  0.7195 -0.8635
 5358TIP3    H137489   1.738   0.600  15.302  0.6781  0.7228  0.9368
 5358TIP3    H237490   1.640   0.503  15.240  1.8822  0.5669 -0.7773
 5359TIP3   OH237491   1.258   4.641   3.308 -0.2105 -0.1293  0.1213
 5359TIP3    H137492   1.225   4.658   3.219 -0.1718  0.1153  0.1518
 5359TIP3    H237493   1.179   4.627   3.360 -0.2836  0.5817  0.2192
 5360TIP3   OH237494   3.691   4.551  11.527 -0.1423 -0.0524 -0.0800
 5360TIP3    H137495   3.766   4.494  11.543  0.2214  1.2628  4.0080
 5360TIP3    H237496   3.617   4.504  11.566 -0.4450  0.8293  0.4387
 5361TIP3   OH237497   4.314   5.520   5.083 -0.1510  0.1339  0.0447
 5361TIP3    H137498   4.398   5.550   5.117 -0.5221 -1.1590  2.3439
 5361TIP3    H237499   4.257   5.519   5.160 -2.0214  0.1126 -1.2971
 5362TIP3   OH237500   0.780   3.747  13.338 -0.2828  0.3380  0.4235
 5362TIP3    H137501   0.778   3.652  13.325  0.6114  0.4809 -1.0834
 5362TIP3    H237502   0.689   3.771  13.351 -0.6385 -0.6339 -0.1143
 5363TIP3   OH237503   5.799   3.443   3.213 -0.0520 -0.1144 -0.0120
 5363TIP3    H137504   5.871   3.478   3.266 -0.9676  1.3163  0.3535
 5363TIP3    H237505   5.823   3.464   3.122  0.9370 -1.4781 -0.0908
 5364TIP3   OH237506   5.578   0.686  13.029  0.4210  0.5872 -0.5822
 5364TIP3    H137507   5.612   0.755  13.087 -2.3708 -0.0887  2.0982
 5364TIP3    H237508   5.630   0.609  13.051 -1.1176  0.1377  1.7544
 5365TIP3   OH237509   4.091   5.524   1.769 -0.3402 -0.0197 -0.1302
 5365TIP3    H137510   4.146   5.568   1.833  0.6487  1.8889 -2.1277
 5365TIP3    H237511   4.130   5.437   1.759  1.4065  0.7425 -0.3384
 5366TIP3   OH237512   1.843   2.247  14.027  0.7994  0.0358  0.2827
 5366TIP3    H137513   1.824   2.282  14.114 -1.8395 -0.5250  0.0277
 5366TIP3    H237514   1.872   2.323  13.976 -2.7782  1.6205  0.2904
 5367TIP3   OH237515   1.061   2.086   0.591  0.5363 -0.2837 -0.0079
 5367TIP3    H137516   0.977   2.082   0.637 -1.3773  0.6817 -3.0981
 5367TIP3    H237517   1.059   2.011   0.531  1.9031 -0.2790 -0.0871
 5368TIP3   OH237518   6.607   0.911  13.486 -0.4972  0.7747 -0.1853
 5368TIP3    H137519   6.693   0.872  13.502  0.1230  2.7403  1.7985
 5368TIP3    H237520   6.545   0.853  13.530  0.1841  0.9236  1.0047
 5369TIP3   OH237521   1.326   0.849  10.993 -0.4617  0.0579 -0.1170
 5369TIP3    H137522   1.272   0.911  11.044 -2.8816 -1.8018 -0.2139
 5369TIP3    H237523   1.377   0.803  11.059  0.4455  1.2807  0.0671
 5370TIP3   OH237524   3.967   2.523   3.800  0.4320  0.1291  0.3463
 5370TIP3    H137525   3.994   2.437   3.767  0.1930  0.0816  0.2738
 5370TIP3    H237526   3.984   2.582   3.726 -0.3995 -0.0280  0.0146
 5371TIP3   OH237527   5.663   2.555   1.944 -0.2920  0.6944 -0.6654
 5371TIP3    H137528   5.589   2.501   1.971 -0.3274 -0.1648 -2.4078
 5371TIP3    H237529   5.624   2.632   1.903 -0.2137  0.8463 -0.4613
 5372TIP3   OH237530   6.650   2.350  13.089  0.4635  0.5729 -0.3607
 5372TIP3    H137531   6.626   2.257  13.089  0.6233  0.5104  0.6350
 5372TIP3    H237532   6.574   2.395  13.054 -0.6168  0.2610  1.4590
 5373TIP3   OH237533   0.378   6.540  16.072  0.1799 -0.3579 -0.2847
 5373TIP3    H137534   0.363   6.498  15.987 -1.1667  1.9041 -1.2659
 5373TIP3    H237535   0.354   6.474  16.136  0.1766 -1.7660 -1.6670
 5374TIP3   OH237536   4.966   3.439  12.726  0.0486  0.7196  0.4844
 5374TIP3    H137537   5.059   3.425  12.745  0.2581  2.3459  0.8200
 5374TIP3    H237538   4.964   3.523  12.679 -1.3789  1.5513  1.9335
 5375TIP3   OH237539   4.965   6.459   3.558 -0.0484  0.2515  0.2865
 5375TIP3    H137540   4.935   6.369   3.561 -0.1727  0.3042  1.0432
 5375TIP3    H237541   4.889   6.510   3.588 -0.6172  0.7979 -1.9330
 5376TIP3   OH237542   6.427   0.860  15.315 -0.4444 -0.2300 -0.2193
 5376TIP3    H137543   6.337   0.863  15.282 -0.1949 -1.5702 -1.1017
 5376TIP3    H237544   6.462   0.777  15.282  0.2185 -1.1211  2.4722
 5377TIP3   OH237545   2.054   0.880  15.612  0.2036 -0.7119  0.4981
 5377TIP3    H137546   2.003   0.918  15.540 -0.1260  0.2023  1.1957
 5377TIP3    H237547   2.141   0.919  15.602  0.1452 -0.5501  0.6170
 5378TIP3   OH237548   0.538   1.091   6.613 -0.1414 -0.1333 -0.1251
 5378TIP3    H137549   0.609   1.064   6.670  0.8477 -0.3697 -1.4167
 5378TIP3    H237550   0.544   1.187   6.611  0.0946 -0.1486 -0.1664
 5379TIP3   OH237551   1.809   1.990   3.230 -0.0900  0.4577  0.3307
 5379TIP3    H137552   1.716   1.989   3.255 -0.9736 -0.0177 -2.5797
 5379TIP3    H237553   1.826   2.081   3.205 -0.1111  0.3062 -0.2373
 5380TIP3   OH237554   5.599   2.575  16.594 -0.0813 -0.1848  0.2656
 5380TIP3    H137555   5.534   2.643  16.577  0.1825 -0.4332 -2.1512
 5380TIP3    H237556   5.553   2.493  16.572  0.1299 -0.6635  1.5192
 5381TIP3   OH237557   2.627   1.862  15.800 -0.2445 -0.4435  0.3204
 5381TIP3    H137558   2.613   1.929  15.733  1.4022 -1.1549 -0.8058
 5381TIP3    H237559   2.722   1.861  15.813 -0.1081 -3.0836 -0.2959
 5382TIP3   OH237560   6.255   0.611  11.768 -0.0739 -0.3202 -0.4105
 5382TIP3    H137561   6.199   0.668  11.715  2.2836  2.5772 -0.0023
 5382TIP3    H237562   6.203   0.593  11.847 -1.6262 -0.4558 -1.4122
 5383TIP3   OH237563   4.019   1.142   1.099 -0.1760  0.1011  0.2435
 5383TIP3    H137564   3.954   1.085   1.058  0.7430 -1.0863  0.4014
 5383TIP3    H237565   4.103   1.099   1.083  0.2854 -0.1190  2.8653
 5384TIP3   OH237566   5.201   5.918   6.479  0.2029 -0.1512  0.2546
 5384TIP3    H137567   5.290   5.893   6.455  0.2251  0.8102 -0.7167
 5384TIP3    H237568   5.209   6.009   6.509 -0.8965  1.2708 -3.2211
 5385TIP3   OH237569   4.437   2.476  14.635  0.2395  0.2029  0.2171
 5385TIP3    H137570   4.382   2.460  14.558  0.2822  1.9630 -0.2286
 5385TIP3    H237571   4.424   2.569  14.655  1.8072  0.2785  1.0726
 5386TIP3   OH237572   4.497   0.503  14.913  0.1894 -0.3759 -0.4247
 5386TIP3    H137573   4.517   0.522  14.821  2.3827 -0.0555  0.0575
 5386TIP3    H237574   4.497   0.407  14.918  1.4898 -0.3938 -0.5109
 5387TIP3   OH237575   1.777   6.489   3.000  0.2277 -0.6585  0.0774
 5387TIP3    H137576   1.807   6.576   2.972  0.0779 -0.5006  0.4003
 5387TIP3    H237577   1.786   6.435   2.922 -2.2028  0.2601 -0.9247
 5388TIP3   OH237578   5.853   5.887   6.032  0.1479 -0.5019  0.3109
 5388TIP3    H137579   5.845   5.981   6.013 -1.3035 -0.5333  0.6377
 5388TIP3    H237580   5.894   5.884   6.118  0.1281 -0.1553  0.3351
 5389TIP3   OH237581   1.664   0.053   4.503  0.2294  0.3603  0.3806
 5389TIP3    H137582   1.602   0.112   4.460 -0.0284  0.7693  1.2947
 5389TIP3    H237583   1.732   0.038   4.437 -0.2646  0.7996 -0.2433
 5390TIP3   OH237584   2.490   5.521   0.664  0.1558  1.2124 -0.1719
 5390TIP3    H137585   2.568   5.525   0.610  0.5368  1.0051  0.3490
 5390TIP3    H237586   2.520   5.547   0.752 -0.0726 -0.1577  0.3338
 5391TIP3   OH237587   4.304   6.406   4.066  0.5844 -0.8070  0.2566
 5391TIP3    H137588   4.336   6.380   4.153 -1.8238 -0.6072  1.2707
 5391TIP3    H237589   4.322   6.500   4.061  1.6743 -1.0175  0.0960
 5392TIP3   OH237590   3.594   1.569   5.629  0.1186 -0.0539  0.1611
 5392TIP3    H137591   3.584   1.529   5.542  0.3316 -2.1990  1.0572
 5392TIP3    H237592   3.662   1.517   5.671 -0.8147  0.1738  2.0274
 5393TIP3   OH237593   1.855   5.401   1.931 -0.0436  0.0832 -0.4094
 5393TIP3    H137594   1.948   5.420   1.919  0.0400  0.2394  0.4649
 5393TIP3    H237595   1.829   5.450   2.009 -0.7130 -0.4465 -0.2830
 5394TIP3   OH237596   2.778   4.510  13.608  0.1734 -0.1945 -0.6783
 5394TIP3    H137597   2.859   4.465  13.589 -0.2655 -1.6886  0.7571
 5394TIP3    H237598   2.715   4.476  13.544 -0.3383 -2.2891  0.8288
 5395TIP3   OH237599   3.227   4.097   3.899 -0.4798 -0.0333  0.7234
 5395TIP3    H137600   3.237   4.153   3.976  2.2754  1.2440 -0.4290
 5395TIP3    H237601   3.191   4.155   3.832  0.0318 -0.2936  0.2168
 5396TIP3   OH237602   6.361   5.673   1.087  0.6015 -0.2116 -0.2351
 5396TIP3    H137603   6.373   5.579   1.072 -0.7794 -1.1945  3.6683
 5396TIP3    H237604   6.436   5.699   1.141  0.0652  0.5109  0.1858
 5397TIP3   OH237605   0.763   1.696   0.649 -0.1313 -0.3309  0.1393
 5397TIP3    H137606   0.705   1.635   0.604 -1.9002  1.2488  0.1843
 5397TIP3    H237607   0.719   1.716   0.731  0.6108  0.6824  0.3201
 5398TIP3   OH237608   5.537   2.101  15.758  0.0595 -0.0027  0.0560
 5398TIP3    H137609   5.482   2.121  15.834 -0.4585  1.3332 -0.6383
 5398TIP3    H237610   5.510   2.013  15.731 -1.2023  0.3198  0.1979
 5399TIP3   OH237611   1.411   2.222   3.916  0.4445 -0.1422  0.1398
 5399TIP3    H137612   1.380   2.252   4.002 -0.5152  1.0637 -0.6040
 5399TIP3    H237613   1.423   2.128   3.927 -0.4655 -0.1407  1.3761
 5400TIP3   OH237614   1.133   5.642  16.341 -0.7096 -0.0008  0.1552
 5400TIP3    H137615   1.127   5.731  16.374 -1.8216  0.7963 -1.9637
 5400TIP3    H237616   1.192   5.649  16.266 -3.4836 -0.2121 -2.2272
 5401TIP3   OH237617   6.288   1.605   1.908 -0.1423 -0.2870 -0.3386
 5401TIP3    H137618   6.228   1.641   1.973  1.7570 -1.0525  1.9754
 5401TIP3    H237619   6.240   1.531   1.870 -1.4792  0.4762 -0.2113
 5402TIP3   OH237620   0.533   0.073  14.974  0.1598  0.2887 -0.6880
 5402TIP3    H137621   0.481   0.006  15.018  0.6431 -1.9720 -3.2931
 5402TIP3    H237622   0.481   0.153  14.984 -0.6669 -0.4752  2.1611
 5403TIP3   OH237623   5.040   3.575  16.023 -0.1012  0.5010 -0.4355
 5403TIP3    H137624   4.987   3.496  16.021 -0.7506  0.9449 -1.1314
 5403TIP3    H237625   4.985   3.641  16.065  0.5690  0.4977  0.4721
 5404TIP3   OH237626   2.456   1.186  17.307  0.1715 -0.2891 -0.3750
 5404TIP3    H137627   2.441   1.221  17.219  1.6937 -1.1037 -0.9907
 5404TIP3    H237628   2.383   1.220  17.359 -1.0234 -0.1569 -2.0484
 5405TIP3   OH237629   5.372   1.812   0.203 -0.3940 -0.2171  0.3841
 5405TIP3    H137630   5.447   1.756   0.181 -0.0477 -1.2542  3.6291
 5405TIP3    H237631   5.405   1.869   0.272 -1.4017  2.5635 -1.2980
 5406TIP3   OH237632   1.933   2.753   0.924  0.5817 -0.0791 -0.6813
 5406TIP3    H137633   2.012   2.735   0.873  1.8219  2.5424  0.1068
 5406TIP3    H237634   1.898   2.833   0.885 -0.8815 -0.4098 -0.0878
 5407TIP3   OH237635   2.437   3.713   2.863  0.4537 -0.1233  0.0122
 5407TIP3    H137636   2.503   3.648   2.887 -0.6336 -0.7974  1.3115
 5407TIP3    H237637   2.379   3.668   2.801 -0.3011 -0.4196  0.9141
 5408TIP3   OH237638   2.910   5.956  12.233 -0.2627  0.4115  0.2949
 5408TIP3    H137639   2.982   5.986  12.178  0.1155  1.4006  1.2993
 5408TIP3    H237640   2.831   5.982  12.185  0.0530  0.8222 -0.0078
 5409TIP3   OH237641   4.662   4.524   3.361 -0.5816  0.3225 -0.7083
 5409TIP3    H137642   4.686   4.591   3.297 -1.6534 -0.3156 -1.8166
 5409TIP3    H237643   4.745   4.480   3.382 -0.1332  0.8764 -1.2658
 5410TIP3   OH237644   4.220   4.001  11.606 -0.3555  0.3473  0.2375
 5410TIP3    H137645   4.178   3.917  11.623  1.3075 -0.5966 -0.1401
 5410TIP3    H237646   4.152   4.066  11.628 -1.6632 -1.0602  0.5644
 5411TIP3   OH237647   4.627   1.688  15.372  0.4361 -0.4587  0.2656
 5411TIP3    H137648   4.564   1.760  15.377 -2.2055 -2.6231  1.0195
 5411TIP3    H237649   4.646   1.679  15.279  1.4317  1.6279  0.2264
 5412TIP3   OH237650   4.966   2.817  12.002  0.4524 -0.2486 -0.3481
 5412TIP3    H137651   4.998   2.880  12.066  0.2687  0.2624 -0.7513
 5412TIP3    H237652   5.038   2.755  11.991  2.7942  2.6124 -3.6283
 5413TIP3   OH237653   3.320   3.739  11.901 -0.0279  0.3909 -0.0494
 5413TIP3    H137654   3.276   3.671  11.951 -1.3542  0.7808 -0.6395
 5413TIP3    H237655   3.345   3.695  11.819 -1.3663  0.7077 -0.6591
 5414TIP3   OH237656   1.649   6.640  15.175 -0.1574  0.0899  0.2771
 5414TIP3    H137657   1.611   6.553  15.167 -1.0904  0.4790  0.2260
 5414TIP3    H237658   1.693   6.640  15.260 -0.5133 -0.2985  0.4665
 5415TIP3   OH237659   2.759   5.084  12.879 -0.1449  0.6317 -0.3169
 5415TIP3    H137660   2.763   5.035  12.961  0.8793  1.6436  0.2625
 5415TIP3    H237661   2.666   5.098  12.864 -0.3026  2.2548  1.7944
 5416TIP3   OH237662   5.599   4.109   3.370  0.3023  0.6179  0.3112
 5416TIP3    H137663   5.687   4.085   3.397  0.4662  1.3020  0.4030
 5416TIP3    H237664   5.588   4.200   3.398 -0.9547  0.1091  1.6009
 5417TIP3   OH237665   0.804   6.551  11.622  0.4352 -0.3231 -0.3806
 5417TIP3    H137666   0.856   6.623  11.588  0.5212 -0.4243 -0.4651
 5417TIP3    H237667   0.855   6.473  11.601  0.4922 -0.3868 -0.0130
 5418TIP3   OH237668   1.555   1.917   0.413 -0.1173  0.1433 -0.1498
 5418TIP3    H137669   1.562   1.947   0.322 -0.0379  0.7812  0.0668
 5418TIP3    H237670   1.532   1.995   0.463  1.0969  0.0637  0.5742
 5419TIP3   OH237671   3.608   4.749  16.273  0.4137  0.6283 -0.0055
 5419TIP3    H137672   3.611   4.670  16.327  0.5888  0.4199 -0.3207
 5419TIP3    H237673   3.563   4.814  16.328 -1.2903 -0.1819 -0.3737
 5420TIP3   OH237674   3.917   3.095   0.835  0.4747  0.5440  0.0036
 5420TIP3    H137675   3.926   3.133   0.747  2.9312  0.2959  0.0768
 5420TIP3    H237676   3.850   3.028   0.825  0.6132  0.6073 -1.6574
 5421TIP3   OH237677   1.291   2.835  11.605 -0.0442  0.5061 -0.0107
 5421TIP3    H137678   1.240   2.836  11.686  0.2441  0.6256  0.1685
 5421TIP3    H237679   1.225   2.846  11.535 -0.2918  0.3917  0.2037
 5422TIP3   OH237680   3.150   0.005  11.959  0.6244 -0.1200  0.3781
 5422TIP3    H137681   3.244  -0.004  11.941  0.0639 -1.4842 -2.3585
 5422TIP3    H237682   3.123   0.081  11.908  0.5716  1.9000  3.1490
 5423TIP3   OH237683   1.287   5.841   4.828  0.3413  0.0639  0.4606
 5423TIP3    H137684   1.367   5.842   4.881  1.0837  2.2595 -0.5937
 5423TIP3    H237685   1.230   5.906   4.869 -0.9007 -1.3493  1.0961
 5424TIP3   OH237686   5.220   3.943  15.833  0.5061  0.2340 -0.1440
 5424TIP3    H137687   5.244   4.031  15.801 -0.6689  0.6482  0.0653
 5424TIP3    H237688   5.197   3.957  15.925  0.5906 -0.3550 -0.0340
 5425TIP3   OH237689   6.659   2.167  16.389 -0.5091 -0.8903  0.3782
 5425TIP3    H137690   6.675   2.231  16.320 -0.7072 -2.0171 -0.7537
 5425TIP3    H237691   6.742   2.162  16.437  0.1736 -1.2570 -0.7935
 5426TIP3   OH237692   2.146   5.524  12.257  0.4194  0.0773 -0.1382
 5426TIP3    H137693   2.201   5.469  12.202 -0.6730 -1.2564  0.0375
 5426TIP3    H237694   2.147   5.481  12.343 -0.3470  0.3889  0.0394
 5427TIP3   OH237695   0.659   6.653  14.205 -0.2337 -0.1004  0.0927
 5427TIP3    H137696   0.716   6.625  14.277 -0.9186 -0.2409  0.5898
 5427TIP3    H237697   0.708   6.723  14.162 -0.3329  0.8786  1.4769
 5428TIP3   OH237698   4.747   0.404   2.372  0.1450 -0.2899 -0.0788
 5428TIP3    H137699   4.754   0.426   2.465  1.0896  1.4475 -0.5176
 5428TIP3    H237700   4.654   0.417   2.351  0.1626  0.5938  0.3462
 5429TIP3   OH237701   1.069   1.260   3.289  0.0102 -0.2774 -0.5833
 5429TIP3    H137702   1.041   1.296   3.204 -1.0195  0.4400  0.0355
 5429TIP3    H237703   1.063   1.165   3.277  0.9085 -0.2287 -1.6387
 5430TIP3   OH237704   6.154   5.037  15.684 -0.1075 -0.1228 -0.1830
 5430TIP3    H137705   6.204   5.064  15.761 -0.0143  2.5035 -1.0697
 5430TIP3    H237706   6.074   5.089  15.688  0.3500  0.8580 -2.3515
 5431TIP3   OH237707   1.831   5.340   5.556 -0.0674  0.1765 -0.2964
 5431TIP3    H137708   1.798   5.272   5.614 -0.9378  0.6940 -0.1679
 5431TIP3    H237709   1.783   5.326   5.474 -0.0094  0.4260 -0.3739
 5432TIP3   OH237710   2.590   1.860  14.106 -0.0683 -0.0960  0.7858
 5432TIP3    H137711   2.658   1.834  14.044 -0.6728 -0.9887  0.4647
 5432TIP3    H237712   2.598   1.955  14.113  1.1194 -0.1747  0.6636
 5433TIP3   OH237713   5.456   1.559   1.412  0.5445 -0.1715 -0.2794
 5433TIP3    H137714   5.534   1.565   1.357 -0.3020  2.6738 -1.3452
 5433TIP3    H237715   5.388   1.523   1.354  0.3000  0.3663 -0.3339
 5434TIP3   OH237716   5.722   2.855   0.141 -0.1582 -0.5363  1.1122
 5434TIP3    H137717   5.773   2.933   0.160  1.0538 -1.0139 -0.0786
 5434TIP3    H237718   5.708   2.815   0.227  0.2118  0.3630  1.6068
 5435TIP3   OH237719   3.658   0.573  11.418  0.4127 -0.0006 -0.1998
 5435TIP3    H137720   3.622   0.614  11.340 -1.7311 -1.8487 -0.2522
 5435TIP3    H237721   3.678   0.483  11.392  3.0471  0.2987  0.4712
 5436TIP3   OH237722   2.819   4.780   2.519 -0.3710  0.0317 -0.0029
 5436TIP3    H137723   2.756   4.718   2.483 -0.7028  1.1703 -1.4879
 5436TIP3    H237724   2.902   4.759   2.475  0.1880 -1.0710  1.4970
 5437TIP3   OH237725   1.021   2.249  13.159 -0.3841  0.2198  0.0466
 5437TIP3    H137726   1.095   2.236  13.218 -0.2365 -0.2854 -0.2341
 5437TIP3    H237727   1.034   2.182  13.091 -1.0825  0.1456 -0.0181
 5438TIP3   OH237728   0.720   0.460   4.996 -0.4793 -0.1573  0.1933
 5438TIP3    H137729   0.787   0.399   4.966 -0.5408 -0.6164  0.9608
 5438TIP3    H237730   0.768   0.527   5.045 -0.6772 -1.1461  1.7919
 5439TIP3   OH237731   3.211   5.795  12.159 -0.1298 -0.2988  0.2100
 5439TIP3    H137732   3.261   5.732  12.107 -1.1966 -2.0167  1.1820
 5439TIP3    H237733   3.152   5.836  12.096 -1.1200 -2.0535 -0.0708
 5440TIP3   OH237734   2.499   3.784  14.561  0.9925  0.0140  0.6002
 5440TIP3    H137735   2.528   3.693  14.561  1.6142  0.2041 -0.6695
 5440TIP3    H237736   2.403   3.779  14.559  1.0015 -0.6656 -2.5033
 5441TIP3   OH237737   1.072   6.646  15.211  0.1526 -0.1855  0.0701
 5441TIP3    H137738   1.023   6.612  15.136 -1.0908  0.2370  0.6646
 5441TIP3    H237739   1.124   6.571  15.241 -0.7548 -0.9042 -0.0825
 5442TIP3   OH237740   2.309   6.114  15.628 -0.0473 -0.4591  0.1390
 5442TIP3    H137741   2.392   6.134  15.585  0.9054 -2.5231  0.8927
 5442TIP3    H237742   2.258   6.068  15.562 -0.5802  0.7001 -0.2842
 5443TIP3   OH237743   3.519   5.766  15.755  0.1811 -0.2161  0.3873
 5443TIP3    H137744   3.528   5.817  15.836 -2.3560  0.1383  0.5104
 5443TIP3    H237745   3.525   5.675  15.783  0.9787 -0.0836  0.6975
 5444TIP3   OH237746   1.101   2.755  16.439  0.1685  0.1020 -0.5315
 5444TIP3    H137747   1.035   2.762  16.508  0.2858 -0.2150 -0.3822
 5444TIP3    H237748   1.126   2.662  16.440  0.1799  0.1003 -0.9927
 5445TIP3   OH237749   1.832   5.055   0.930  0.0020  0.0829  0.4184
 5445TIP3    H137750   1.795   4.972   0.958  0.5156 -0.2952 -0.0155
 5445TIP3    H237751   1.781   5.079   0.853  0.9663 -0.6848 -0.4767
 5446TIP3   OH237752   2.775   6.133  13.488 -0.2497 -0.5280 -0.2601
 5446TIP3    H137753   2.777   6.101  13.398  0.8622 -1.2866  0.0091
 5446TIP3    H237754   2.865   6.122  13.519 -0.7242 -0.7496  1.0983
 5447TIP3   OH237755   5.378   2.667  16.401  0.0250 -0.2678  0.0209
 5447TIP3    H137756   5.289   2.693  16.378  0.2069  1.2915  0.8808
 5447TIP3    H237757   5.387   2.578  16.369 -1.6060 -0.1975 -0.7089
 5448TIP3   OH237758   0.066   5.090   4.625 -0.3362  0.1964 -0.2191
 5448TIP3    H137759   0.016   5.012   4.601 -0.5198  0.1336  0.3519
 5448TIP3    H237760   0.033   5.114   4.712 -0.0768  0.7408 -0.2645
 5449TIP3   OH237761   4.377   2.427  11.525 -0.1751 -0.1314  0.1060
 5449TIP3    H137762   4.304   2.399  11.470  1.3033 -0.5917 -1.7340
 5449TIP3    H237763   4.389   2.356  11.588  0.4424 -1.4606 -1.4169
 5450TIP3   OH237764   6.029   1.049  17.180 -0.2032 -0.1885  0.0403
 5450TIP3    H137765   5.954   1.108  17.193 -0.7460 -0.6121 -1.0764
 5450TIP3    H237766   5.997   0.964  17.210  0.1323 -0.2042  0.3654
 5451TIP3   OH237767   1.263   1.629   3.103 -0.1473 -0.3158 -0.0294
 5451TIP3    H137768   1.339   1.639   3.047 -1.6128 -0.0725 -2.0952
 5451TIP3    H237769   1.299   1.622   3.192  2.1419  2.1225 -0.6304
 5452TIP3   OH237770   3.510   6.751   3.866  0.1433  0.2856  0.1455
 5452TIP3    H137771   3.453   6.686   3.825  0.0039  0.4710  0.0473
 5452TIP3    H237772   3.575   6.772   3.799 -0.5914  1.2261 -0.2866
 5453TIP3   OH237773   1.115   5.828  13.950  0.0636  0.1919 -0.1234
 5453TIP3    H137774   1.133   5.773  13.874 -0.9831  0.8835 -0.8994
 5453TIP3    H237775   1.044   5.885  13.922 -0.7412  0.0889  1.5623
 5454TIP3   OH237776   2.243   2.045   5.627 -0.3200  0.2261 -0.1066
 5454TIP3    H137777   2.159   2.070   5.666  0.0265  0.8534  0.2440
 5454TIP3    H237778   2.226   2.043   5.533 -0.9395 -0.4673  0.0077
 5455TIP3   OH237779   5.721   1.096  12.860  0.2580  0.0493 -0.0051
 5455TIP3    H137780   5.626   1.106  12.874  0.2826 -0.2756  0.4489
 5455TIP3    H237781   5.753   1.065  12.945  0.5438 -1.3299 -0.5925
 5456TIP3   OH237782   0.725   1.268  14.924  0.4724 -0.1679 -0.3303
 5456TIP3    H137783   0.735   1.261  14.829 -0.0716  2.5887 -0.6878
 5456TIP3    H237784   0.785   1.338  14.949 -0.1065 -0.1812  1.1838
 5457TIP3   OH237785   4.350   1.952  16.226  0.2359  0.4369 -0.4501
 5457TIP3    H137786   4.371   2.034  16.271 -1.1371  0.3201  0.4470
 5457TIP3    H237787   4.317   1.895  16.295  1.7897 -1.1306 -0.9359
 5458TIP3   OH237788   5.215   2.722  15.003 -0.8929  0.4784 -0.1157
 5458TIP3    H137789   5.256   2.793  15.053 -0.8270  0.9120 -0.7793
 5458TIP3    H237790   5.212   2.649  15.065  1.9086  0.0673 -0.3411
 5459TIP3   OH237791   1.088   6.507   1.726  0.0357 -1.1746  0.4371
 5459TIP3    H137792   1.082   6.425   1.775  2.9184 -1.0080  1.2521
 5459TIP3    H237793   1.072   6.575   1.791  1.0337 -1.0286  0.5421
 5460TIP3   OH237794   6.302   5.414  17.022 -0.3131 -0.2439  0.6461
 5460TIP3    H137795   6.208   5.432  17.012  0.0369  1.4317  0.0125
 5460TIP3    H237796   6.322   5.351  16.953 -0.7297  0.4272 -0.1069
 5461TIP3   OH237797   5.003   1.473   4.273 -0.5902  0.3201 -0.3057
 5461TIP3    H137798   5.032   1.483   4.364  1.1887  2.0991 -0.9962
 5461TIP3    H237799   4.994   1.378   4.261  1.8453 -0.1452  0.9697
 5462TIP3   OH237800   1.159   3.009   5.777  0.1995  0.1889 -0.4045
 5462TIP3    H137801   1.203   2.935   5.736 -0.0050 -0.2664  0.1727
 5462TIP3    H237802   1.230   3.061   5.816  0.2384 -0.6141  0.6421
 5463TIP3   OH237803   1.190   5.297  11.333 -0.4657  0.7163  0.3629
 5463TIP3    H137804   1.177   5.365  11.267 -0.4486 -0.0824 -0.4852
 5463TIP3    H237805   1.268   5.250  11.304  0.2947  1.1536  1.6577
 5464TIP3   OH237806   2.388   1.529  13.387 -0.1193 -0.0540 -0.5200
 5464TIP3    H137807   2.429   1.615  13.386  2.6621 -1.1600  2.2539
 5464TIP3    H237808   2.436   1.479  13.321  0.4232 -0.2855  0.0375
 5465TIP3   OH237809   6.600   2.784  10.987  0.3794  0.6684 -0.3598
 5465TIP3    H137810   6.582   2.720  10.919  2.5844  0.4364 -0.8261
 5465TIP3    H237811   6.672   2.746  11.038  0.1294  1.7178  0.8421
 5466TIP3   OH237812   0.293   4.509  14.595 -0.5483  0.4966 -0.2180
 5466TIP3    H137813   0.294   4.452  14.672  0.7822  1.2521  0.3668
 5466TIP3    H237814   0.374   4.486  14.548  1.1938  3.2865  1.1527
 5467TIP3   OH237815   3.962   6.373  17.077 -0.2364 -0.1996 -0.0024
 5467TIP3    H137816   3.953   6.380  16.982 -2.4159 -0.6367  0.1039
 5467TIP3    H237817   4.002   6.455  17.104 -1.6607  0.9116 -1.1140
 5468TIP3   OH237818   4.171   1.032  12.837  0.0310  0.1376 -0.6362
 5468TIP3    H137819   4.133   0.949  12.866 -0.4301  0.8676  0.9676
 5468TIP3    H237820   4.111   1.063  12.770 -0.6742 -0.0790 -0.1216
 5469TIP3   OH237821   4.934   2.937   3.522  0.3951 -0.4160 -0.6787
 5469TIP3    H137822   4.960   2.863   3.575 -0.9528 -0.5058 -0.1125
 5469TIP3    H237823   4.922   2.901   3.434  0.5696 -0.7000 -0.5843
 5470TIP3   OH237824   3.657   3.192   2.337 -0.5015 -0.2891 -0.0130
 5470TIP3    H137825   3.711   3.115   2.320 -1.3250 -1.0129  0.6144
 5470TIP3    H237826   3.572   3.172   2.298 -0.0284  1.3389 -2.0800
 5471TIP3   OH237827   0.574   0.361  12.785  0.1724  0.1792  0.8309
 5471TIP3    H137828   0.645   0.337  12.845  0.2774 -1.0983  0.2283
 5471TIP3    H237829   0.616   0.420  12.722  0.7481 -0.6248  0.4328
 5472TIP3   OH237830   6.344   5.771  14.459 -0.3857  0.1517  0.5869
 5472TIP3    H137831   6.354   5.711  14.533 -1.1598 -0.4698  0.1986
 5472TIP3    H237832   6.420   5.755  14.404 -0.3806 -0.1753  0.6900
 5473TIP3   OH237833   2.567   4.758  15.166  0.1975 -0.2497 -0.3892
 5473TIP3    H137834   2.658   4.765  15.196  0.1806  0.1533 -0.4276
 5473TIP3    H237835   2.553   4.664  15.153  1.0909 -0.2170 -1.8588
 5474TIP3   OH237836   0.542   0.161   5.467  0.3949  0.2600 -0.4021
 5474TIP3    H137837   0.534   0.084   5.411  0.6779  0.4975 -0.7830
 5474TIP3    H237838   0.466   0.215   5.445  0.5575  0.3978 -0.6339
 5475TIP3   OH237839   1.794   5.075   2.152 -0.5083 -0.2179  0.2685
 5475TIP3    H137840   1.769   4.993   2.110 -0.7750  0.7389 -1.5231
 5475TIP3    H237841   1.768   5.064   2.243 -1.9162 -1.5474 -0.2612
 5476TIP3   OH237842   5.480   4.314   2.164  0.1494 -0.1893  0.2649
 5476TIP3    H137843   5.535   4.351   2.095 -0.5771  0.4486  0.0189
 5476TIP3    H237844   5.542   4.292   2.234  0.5569  2.3719  0.8286
 5477TIP3   OH237845   4.778   4.720   4.116  0.2101  0.2854 -0.3431
 5477TIP3    H137846   4.750   4.687   4.201 -1.1507  0.3915 -0.7227
 5477TIP3    H237847   4.697   4.726   4.065  0.7305  1.9573 -1.0553
 5478TIP3   OH237848   3.115   3.931   0.672 -0.2702 -0.6746  0.5684
 5478TIP3    H137849   3.137   3.908   0.762  1.0618  0.7378  0.6320
 5478TIP3    H237850   3.042   3.992   0.680  0.4030  0.1267  0.7659
 5479TIP3   OH237851   2.822   3.824   0.882 -0.0198 -0.0943  0.3586
 5479TIP3    H137852   2.794   3.908   0.845  0.0079 -0.1766  0.1480
 5479TIP3    H237853   2.758   3.804   0.950 -0.7362 -0.5078 -0.4266
 5480TIP3   OH237854   3.511   5.860  14.876  0.4691  0.0624  0.2440
 5480TIP3    H137855   3.502   5.821  14.790  0.8321  2.0975 -0.7795
 5480TIP3    H237856   3.507   5.786  14.937 -2.5836 -1.1877 -1.2780
 5481TIP3   OH237857   1.777   4.892   5.342 -0.5655  0.1633  0.2114
 5481TIP3    H137858   1.729   4.810   5.327 -0.6110  0.2332 -0.0337
 5481TIP3    H237859   1.719   4.944   5.398 -0.0847 -0.3910  1.2530
 5482TIP3   OH237860   1.382   5.300  16.473 -0.2791  0.1348 -0.0236
 5482TIP3    H137861   1.430   5.269  16.396 -2.1621 -0.6706 -0.9348
 5482TIP3    H237862   1.346   5.220  16.511 -1.3586  0.7645  0.2897
 5483TIP3   OH237863   0.066   4.672   1.736  0.0829  0.1745  0.0821
 5483TIP3    H137864   0.054   4.731   1.810  0.3029 -1.3528  1.3927
 5483TIP3    H237865   0.084   4.586   1.776  3.3823 -0.1349 -1.6940
 5484TIP3   OH237866   2.647   0.890  14.908 -0.1004  1.1342 -0.1155
 5484TIP3    H137867   2.619   0.952  14.975 -2.2037  0.5342 -0.3586
 5484TIP3    H237868   2.598   0.915  14.830 -0.5232 -0.4357 -0.3848
 5485TIP3   OH237869   3.637   4.437  13.730 -0.3246 -0.5900 -0.3631
 5485TIP3    H137870   3.626   4.521  13.687  0.9586  0.1481  0.6827
 5485TIP3    H237871   3.731   4.419  13.724 -0.5670 -1.9083 -0.4903
 5486TIP3   OH237872   0.274   1.657   4.843 -0.1185  0.0696 -0.5338
 5486TIP3    H137873   0.211   1.601   4.888  2.1824 -1.1643  1.4044
 5486TIP3    H237874   0.274   1.738   4.894  0.8383 -0.4763  0.3781
 5487TIP3   OH237875   0.081   3.497  13.791  0.3956  0.2334 -0.1005
 5487TIP3    H137876   0.035   3.455  13.719  3.5075 -1.6773 -1.1871
 5487TIP3    H237877   0.121   3.425  13.839  0.5901  1.6425  1.9663
 5488TIP3   OH237878   1.364   2.518   4.651 -0.5571 -0.3679 -0.1693
 5488TIP3    H137879   1.457   2.518   4.628 -0.3469  2.9142  0.1703
 5488TIP3    H237880   1.319   2.492   4.570  0.5119  3.4822 -2.2558
 5489TIP3   OH237881   1.256   6.260   3.010 -0.1024 -0.0779 -0.0275
 5489TIP3    H137882   1.206   6.310   3.074 -1.7190 -1.7701  0.0928
 5489TIP3    H237883   1.341   6.305   3.006 -1.2368  2.2426  0.5395
 5490TIP3   OH237884   2.068   5.819   4.682 -0.2978  0.8169 -0.4109
 5490TIP3    H137885   2.140   5.807   4.620 -0.6734 -1.6534 -0.4763
 5490TIP3    H237886   1.991   5.833   4.626 -0.6674 -1.5777 -0.6362
 5491TIP3   OH237887   2.240   0.340  13.979 -0.1898 -0.4054  0.4239
 5491TIP3    H137888   2.153   0.378  13.967 -0.1141 -0.3793 -0.0622
 5491TIP3    H237889   2.282   0.397  14.044  0.1551  0.7575 -0.7794
 5492TIP3   OH237890   0.181   0.606   1.705  0.2563  0.0779  0.0106
 5492TIP3    H137891   0.173   0.701   1.691 -0.0773  0.0930  0.3138
 5492TIP3    H237892   0.276   0.592   1.713  0.2540  0.5653  1.1939
 5493TIP3   OH237893   3.855   3.578   0.571 -0.1757 -0.3577 -0.9156
 5493TIP3    H137894   3.833   3.609   0.659 -0.1843  0.1574 -1.0972
 5493TIP3    H237895   3.820   3.645   0.512 -0.2767 -0.7604 -1.3194
 5494TIP3   OH237896   1.316   4.969   3.089 -0.0546  0.2433  0.0404
 5494TIP3    H137897   1.267   5.004   3.163 -0.8026 -1.1395  0.2201
 5494TIP3    H237898   1.284   5.018   3.013 -0.9621  0.0631  0.3046
 5495TIP3   OH237899   0.750   2.458   1.814  0.2353  0.0698  0.5344
 5495TIP3    H137900   0.656   2.469   1.799  0.5932  1.4761 -0.8983
 5495TIP3    H237901   0.761   2.472   1.908 -0.9471  0.1376  0.6841
 5496TIP3   OH237902   1.619   5.007   0.705  0.0422  0.1769 -0.6041
 5496TIP3    H137903   1.665   5.056   0.637 -0.4018  0.9881 -0.3379
 5496TIP3    H237904   1.529   5.001   0.672 -0.1344  0.4228 -0.1706
 5497TIP3   OH237905   4.781   6.366   0.157 -0.3380  0.7679  0.0412
 5497TIP3    H137906   4.812   6.455   0.138 -1.1107  1.3253  1.3262
 5497TIP3    H237907   4.779   6.361   0.252  1.0216 -1.1222  0.0222
 5498TIP3   OH237908   1.466   6.704   3.391 -0.0840 -0.4458 -0.1265
 5498TIP3    H137909   1.456   6.704   3.487 -0.3656  0.2744 -0.1493
 5498TIP3    H237910   1.490   6.794   3.370  2.4081 -1.1535 -0.5110
 5499TIP3   OH237911   1.317   3.288   0.844 -0.1859  0.4530  0.0799
 5499TIP3    H137912   1.329   3.226   0.915  0.6136 -2.9112 -2.7014
 5499TIP3    H237913   1.335   3.374   0.883  2.1880 -1.3244  3.4104
 5500TIP3   OH237914   0.367   4.946   2.903 -0.0637 -0.6154  0.5673
 5500TIP3    H137915   0.273   4.950   2.922 -0.5191 -1.6140 -1.2684
 5500TIP3    H237916   0.408   4.934   2.989 -1.6780 -0.8633  1.3354
 5501TIP3   OH237917   5.084   4.837   4.358  0.8734 -0.6860 -0.0094
 5501TIP3    H137918   5.060   4.914   4.306  1.1526 -1.3713 -1.1819
 5501TIP3    H237919   5.002   4.788   4.367  0.7191 -0.3155  0.6419
 5502TIP3   OH237920   5.847   2.473  12.743  0.6177 -0.5113  0.2957
 5502TIP3    H137921   5.893   2.399  12.782  2.7084  0.7203  0.3243
 5502TIP3    H237922   5.910   2.545  12.748 -1.3768  1.3030  0.3553
 5503TIP3   OH237923   1.611   1.558  17.132  0.2100  0.1367  0.2799
 5503TIP3    H137924   1.667   1.634  17.144 -0.3255  0.5676  0.0636
 5503TIP3    H237925   1.547   1.563  17.204 -0.5560  0.5499 -0.4111
 5504TIP3   OH237926   3.839   6.357  13.769 -0.2496  0.1266  0.2737
 5504TIP3    H137927   3.837   6.286  13.833  0.4765  0.4606  0.6874
 5504TIP3    H237928   3.913   6.411  13.796 -0.8747  1.1239  0.0578
 5505TIP3   OH237929   1.397   3.529  13.794 -0.0561 -0.1108 -0.7080
 5505TIP3    H137930   1.470   3.585  13.768 -0.8092  0.3605 -1.8800
 5505TIP3    H237931   1.435   3.441  13.797  1.2709  0.4782  1.7051
 5506TIP3   OH237932   0.270   0.172   3.274  0.3018 -0.0435  0.0188
 5506TIP3    H137933   0.308   0.138   3.354  1.6827  1.0617 -0.1166
 5506TIP3    H237934   0.229   0.255   3.300 -1.1714 -0.7178 -0.0396
 5507TIP3   OH237935   3.589   1.058   1.973  0.5900  0.2801  0.6031
 5507TIP3    H137936   3.607   0.964   1.976 -0.1424  0.1668  1.6898
 5507TIP3    H237937   3.670   1.098   2.005  1.0288  0.0550 -0.1796
 5508TIP3   OH237938   4.337   2.720   0.538  0.4154  0.7965 -0.1162
 5508TIP3    H137939   4.294   2.740   0.455  0.7643  0.5897 -0.3458
 5508TIP3    H237940   4.385   2.799   0.561 -2.7772  2.3726  1.8729
 5509TIP3   OH237941   1.748   6.238   6.110  0.3107 -0.7214 -0.4183
 5509TIP3    H137942   1.703   6.274   6.186 -0.6446 -1.1389 -0.7652
 5509TIP3    H237943   1.758   6.145   6.129 -1.4240 -1.1843 -1.4426
 5510TIP3   OH237944   1.408   4.833   3.700  0.2824  0.6386 -0.6218
 5510TIP3    H137945   1.352   4.767   3.739 -0.0416  0.7587 -0.8753
 5510TIP3    H237946   1.435   4.889   3.773  2.0364 -0.8073 -0.0786
 5511TIP3   OH237947   0.855   5.279   0.445  0.4426  0.2568 -0.4896
 5511TIP3    H137948   0.883   5.370   0.441 -1.4891  1.0862  2.0111
 5511TIP3    H237949   0.760   5.283   0.445  0.3101 -1.8232 -0.9097
 5512TIP3   OH237950   1.636   6.358   3.589  0.3222 -0.4542  0.2457
 5512TIP3    H137951   1.674   6.291   3.533  0.8155  1.2390 -1.5975
 5512TIP3    H237952   1.542   6.343   3.583  0.4004 -0.6841 -0.5788
 5513TIP3   OH237953   6.573   5.050  15.207  0.6061  0.2741  0.3701
 5513TIP3    H137954   6.550   4.957  15.218  1.4648 -0.1256 -0.9903
 5513TIP3    H237955   6.665   5.054  15.236 -0.2017  1.3154  3.1709
 5514TIP3   OH237956   4.188   3.112   1.706  0.3942  0.0434  0.0387
 5514TIP3    H137957   4.158   3.172   1.774  1.1837 -0.5019  0.8983
 5514TIP3    H237958   4.164   3.155   1.624 -0.2561  0.8868  0.6481
 5515TIP3   OH237959   0.742   1.481   4.312 -0.2880 -0.5869 -0.2489
 5515TIP3    H137960   0.748   1.503   4.405  0.1890 -0.8076 -0.2223
 5515TIP3    H237961   0.832   1.458   4.288 -0.6345 -1.7774 -0.4466
 5516TIP3   OH237962   4.963   4.898  13.367  0.3710 -0.0682  0.2795
 5516TIP3    H137963   5.001   4.910  13.454 -0.2034  2.0770  0.2734
 5516TIP3    H237964   5.033   4.925  13.307  0.5315 -0.8958  0.0859
 5517TIP3   OH237965   2.767   5.293   5.005 -0.0429 -0.4984 -0.0929
 5517TIP3    H137966   2.673   5.276   5.001  0.0337 -0.7950 -0.7564
 5517TIP3    H237967   2.807   5.216   4.965  0.5917 -1.2748  1.8791
 5518TIP3   OH237968   6.708   2.941  15.624  0.2895 -0.1860  0.3902
 5518TIP3    H137969   6.776   2.959  15.688 -2.3857  2.3410  2.8334
 5518TIP3    H237970   6.704   3.020  15.570 -1.3551  0.2330  1.0546
 5519TIP3   OH237971   6.650   5.138   1.348  0.2565 -0.0148 -0.1841
 5519TIP3    H137972   6.639   5.227   1.382 -0.3805 -0.2864  0.3269
 5519TIP3    H237973   6.594   5.084   1.403 -0.0534 -0.6088 -1.0639
 5520TIP3   OH237974   1.873   1.200   3.819 -0.2524  0.1902 -0.6259
 5520TIP3    H137975   1.860   1.269   3.884  2.7208  0.8822 -0.6227
 5520TIP3    H237976   1.826   1.124   3.855  2.0703  0.2410  2.9717
 5521TIP3   OH237977   6.492   0.443   6.222  0.1470  0.2750 -0.7359
 5521TIP3    H137978   6.480   0.478   6.311  0.5997  0.7306 -0.8470
 5521TIP3    H237979   6.585   0.419   6.219  0.5732  1.9100 -1.6526
 5522TIP3   OH237980   1.863   2.493   2.535  0.0618 -0.3353 -0.1547
 5522TIP3    H137981   1.899   2.478   2.448  0.8812 -0.0774  0.1333
 5522TIP3    H237982   1.842   2.586   2.538  0.8951 -0.1545  0.2356
 5523TIP3   OH237983   5.079   5.983  10.862 -0.3302 -0.1818  0.0146
 5523TIP3    H137984   5.162   5.947  10.830 -0.6711 -1.4860  0.5094
 5523TIP3    H237985   5.022   5.983  10.784 -0.3498 -0.8194  0.0242
 5524TIP3   OH237986   6.533   1.774  14.260 -0.5877 -0.0067 -0.5312
 5524TIP3    H137987   6.551   1.814  14.345  1.3499 -2.2088  0.2146
 5524TIP3    H237988   6.508   1.684  14.282  1.0076 -0.9442 -2.2761
 5525TIP3   OH237989   5.530   2.428  11.562 -0.2122  0.1523  0.3373
 5525TIP3    H137990   5.583   2.348  11.569 -0.8342 -0.5215 -1.8144
 5525TIP3    H237991   5.440   2.397  11.559 -0.4181  0.8211 -1.4099
 5526TIP3   OH237992   6.407   0.124   2.954 -0.0723  0.0624 -0.1256
 5526TIP3    H137993   6.434   0.075   2.877  1.8763  1.3305 -0.3212
 5526TIP3    H237994   6.485   0.172   2.980 -1.1843  1.0335  1.5933
 5527TIP3   OH237995   5.406   1.770  12.120  0.2293 -0.3379 -0.1942
 5527TIP3    H137996   5.431   1.678  12.122  1.8185  0.0618 -0.0957
 5527TIP3    H237997   5.433   1.800  12.032  3.7927  1.0081  1.1508
 5528TIP3   OH237998   4.955   5.302  13.370  0.4624  0.4256  0.0086
 5528TIP3    H137999   4.900   5.224  13.360 -0.2682  0.8827  0.3628
 5528TIP3    H238000   4.919   5.365  13.307 -0.9084  1.5338  1.8086
 5529TIP3   OH238001   4.205   5.703   3.097 -0.3150 -0.9049 -0.0463
 5529TIP3    H138002   4.287   5.751   3.110 -0.1515 -1.1859 -0.0229
 5529TIP3    H238003   4.214   5.625   3.151 -1.4287  0.0065  1.5279
 5530TIP3   OH238004   1.261   4.583  12.310 -0.2082  0.1826  0.1395
 5530TIP3    H138005   1.305   4.602  12.226 -2.5380  0.9596 -1.0048
 5530TIP3    H238006   1.241   4.670  12.345 -1.7561 -0.1317  0.0716
 5531TIP3   OH238007   6.573   5.415  11.139  0.0659  0.4750 -0.2925
 5531TIP3    H138008   6.572   5.414  11.235  0.2034 -0.0966 -0.2971
 5531TIP3    H238009   6.625   5.339  11.114  0.2177  0.7419 -0.8229
 5532TIP3   OH238010   2.397   4.286   3.801 -0.3774 -0.1348  0.2889
 5532TIP3    H138011   2.332   4.347   3.835 -0.2329 -0.2682  0.8195
 5532TIP3    H238012   2.425   4.236   3.878 -0.6767 -1.0445 -0.1810
 5533TIP3   OH238013   2.055   3.767   6.231  0.4360 -0.0303  0.1421
 5533TIP3    H138014   2.129   3.779   6.172 -1.0901 -1.3759 -2.1922
 5533TIP3    H238015   2.037   3.673   6.229 -1.0117  0.1890  1.0503
 5534TIP3   OH238016   1.370   0.555  15.200  0.3264  0.1863 -0.2760
 5534TIP3    H138017   1.372   0.460  15.189  0.0703  0.1907 -0.3703
 5534TIP3    H238018   1.278   0.579  15.186  0.0224  0.2286  1.5815
 5535TIP3   OH238019   2.773   1.821   5.994  0.0112  0.1220 -0.0016
 5535TIP3    H138020   2.716   1.755   5.956  0.0837 -0.2014  0.4414
 5535TIP3    H238021   2.720   1.901   5.996 -0.4843 -0.2118  0.5545
 5536TIP3   OH238022   4.240   1.765  14.428  0.0394 -0.0529  0.5805
 5536TIP3    H138023   4.253   1.678  14.463  0.9691  0.3751  1.3365
 5536TIP3    H238024   4.201   1.751  14.341  0.9886 -1.2501  0.3260
 5537TIP3   OH238025   5.856   4.918   1.187  0.6647  0.5792  0.1718
 5537TIP3    H138026   5.784   4.931   1.249 -1.1840 -0.8423 -1.5134
 5537TIP3    H238027   5.877   4.825   1.194  0.7370  0.4943 -0.9482
 5538TIP3   OH238028   3.049   4.979  13.197  0.0396  0.2189 -0.0089
 5538TIP3    H138029   2.992   4.912  13.160 -0.6284  0.3201  0.8090
 5538TIP3    H238030   3.012   5.062  13.166  2.3210  0.2143 -3.1188
 5539TIP3   OH238031   2.064   5.534   5.544  0.4858  0.2086 -0.2123
 5539TIP3    H138032   2.075   5.626   5.521  0.3279 -0.0385 -1.3427
 5539TIP3    H238033   1.975   5.512   5.515 -0.1063  0.1173  1.5582
 5540TIP3   OH238034   2.590   2.120  12.214 -0.3493 -0.1159  0.5931
 5540TIP3    H138035   2.593   2.067  12.294  1.0549  0.2846  0.8385
 5540TIP3    H238036   2.514   2.086  12.166 -0.5778 -1.0982  1.5848
 5541TIP3   OH238037   1.104   0.430  16.855  0.4972  0.3889  0.0130
 5541TIP3    H138038   1.138   0.406  16.768  2.4356  1.0272  0.5343
 5541TIP3    H238039   1.112   0.350  16.907 -0.9067 -0.0673 -0.4224
 5542TIP3   OH238040   0.127   2.263  16.101  0.3453  0.1107  0.0987
 5542TIP3    H138041   0.183   2.262  16.024 -0.0692  0.1723 -0.2039
 5542TIP3    H238042   0.187   2.279  16.174  0.7721 -0.2174 -0.1797
 5543TIP3   OH238043   4.867   4.262   6.566 -0.4464 -0.3066 -0.1115
 5543TIP3    H138044   4.837   4.174   6.590 -1.0780 -0.5648 -1.7354
 5543TIP3    H238045   4.923   4.248   6.489 -0.5403  0.7137 -0.3787
 5544TIP3   OH238046   3.593   0.048  14.241 -0.2882 -0.4293  0.2791
 5544TIP3    H138047   3.544  -0.028  14.211  1.1107 -0.0588 -3.5004
 5544TIP3    H238048   3.682   0.015  14.257 -0.0935  0.0873  0.2901
 5545TIP3   OH238049   1.925   4.130  15.454  0.1227  0.3414  0.6981
 5545TIP3    H138050   2.000   4.190  15.466 -1.1217  1.5513  3.3376
 5545TIP3    H238051   1.895   4.112  15.543 -1.4736 -1.7953 -0.1999
 5546TIP3   OH238052   6.154   4.444  14.032  0.4346  0.4136 -0.3156
 5546TIP3    H138053   6.183   4.485  13.950 -0.0324 -0.4684 -0.9345
 5546TIP3    H238054   6.066   4.478  14.046 -0.1962 -0.8283 -1.1605
 5547TIP3   OH238055   6.126   3.530  14.267 -0.2712  0.4011 -0.8797
 5547TIP3    H138056   6.035   3.544  14.293  0.4524  0.2712  2.0295
 5547TIP3    H238057   6.159   3.464  14.328  1.4597 -0.5308 -2.7026
 5548TIP3   OH238058   5.987   2.447   3.280  0.4280  0.0730  0.8045
 5548TIP3    H138059   5.920   2.378   3.278  1.5555 -1.0358 -0.1913
 5548TIP3    H238060   6.002   2.468   3.188  0.2438  1.5430  1.0908
 5549TIP3   OH238061   1.745   5.681   1.201  0.4825  0.4863  0.0610
 5549TIP3    H138062   1.652   5.702   1.204  0.2808 -0.4348  0.9284
 5549TIP3    H238063   1.750   5.606   1.141  0.5423 -0.0282  0.7047
 5550TIP3   OH238064   6.590   3.776   6.458 -0.8853 -0.7291  0.2753
 5550TIP3    H138065   6.608   3.685   6.482  0.9129 -0.4816 -0.0131
 5550TIP3    H238066   6.674   3.821   6.468 -1.4327  0.6284 -0.8300
 5551TIP3   OH238067   1.209   5.690   2.195 -0.0107 -0.9349  0.4552
 5551TIP3    H138068   1.153   5.692   2.273  1.0745  0.1995  1.2566
 5551TIP3    H238069   1.282   5.634   2.221  0.2389 -0.7402  0.1761
 5552TIP3   OH238070   1.617   3.197  13.104  0.4035  0.0208  0.1369
 5552TIP3    H138071   1.649   3.117  13.062 -1.6107  0.5718 -2.7222
 5552TIP3    H238072   1.524   3.180  13.118  0.1010  1.6127  0.1704
 5553TIP3   OH238073   4.797   1.948  13.018 -0.1969 -0.5077 -0.3263
 5553TIP3    H138074   4.866   1.915  13.075  0.1274 -0.8581 -0.9032
 5553TIP3    H238075   4.819   1.913  12.931  0.4462  1.6136 -1.0857
 5554TIP3   OH238076   0.872   3.489  16.125 -0.2868 -0.0626 -0.9243
 5554TIP3    H138077   0.896   3.417  16.066 -0.0225 -0.5056 -0.2875
 5554TIP3    H238078   0.861   3.565  16.068  0.4078 -0.3821 -1.4928
 5555TIP3   OH238079   1.943   2.525   3.726  0.7368 -0.3991  0.5822
 5555TIP3    H138080   1.932   2.479   3.810  1.8401  1.8106  2.0158
 5555TIP3    H238081   1.870   2.586   3.723 -0.1966 -1.5116 -0.8814
 5556TIP3   OH238082   2.382   6.048   3.854 -0.0263  0.0638  0.0266
 5556TIP3    H138083   2.351   5.958   3.842 -1.2628  0.3683  0.7949
 5556TIP3    H238084   2.469   6.038   3.892  0.9866 -0.8150 -2.3249
 5557TIP3   OH238085   1.194   6.366  14.239 -0.0714 -0.1721 -0.2359
 5557TIP3    H138086   1.260   6.299  14.222  0.8704  1.0151 -1.5665
 5557TIP3    H238087   1.226   6.412  14.317 -0.7878 -1.3122  0.7580
 5558TIP3   OH238088   1.998   4.608   5.639 -0.4993  0.0674  0.1673
 5558TIP3    H138089   1.975   4.581   5.550  1.9203 -0.9145 -0.2356
 5558TIP3    H238090   1.972   4.533   5.693  1.8556 -1.1943 -0.3301
 5559TIP3   OH238091   1.942   5.480   0.309  0.2329  0.1202 -0.1831
 5559TIP3    H138092   2.002   5.540   0.353 -2.0041  1.5125  1.1144
 5559TIP3    H238093   1.896   5.534   0.245 -1.6604 -0.1923  0.8482
 5560TIP3   OH238094   0.449   1.686   1.522 -0.2259 -0.3533  0.8150
 5560TIP3    H138095   0.446   1.592   1.536  1.1447 -0.3151  1.5582
 5560TIP3    H238096   0.501   1.719   1.595  0.9723  0.7526 -0.4756
 5561TIP3   OH238097   3.890   3.922   2.361  0.0999  0.2716 -0.0696
 5561TIP3    H138098   3.978   3.939   2.395  0.0869  1.2059 -0.4754
 5561TIP3    H238099   3.840   4.001   2.381  0.0901  0.8895 -2.1941
 5562TIP3   OH238100   2.904   0.422   6.155 -0.4939 -0.3206  0.1200
 5562TIP3    H138101   2.983   0.381   6.119 -0.2623  1.2827 -1.3864
 5562TIP3    H238102   2.936   0.475   6.228 -0.3698 -0.6226  0.2866
 5563TIP3   OH238103   0.814   1.880  14.225  0.0614  0.2150  0.4314
 5563TIP3    H138104   0.758   1.929  14.285 -1.1667 -0.3021 -0.2427
 5563TIP3    H238105   0.879   1.838  14.281  0.4759  1.7176  1.1257
 5564TIP3   OH238106   2.040   2.231   2.108  0.0170 -1.0123 -0.0533
 5564TIP3    H138107   2.001   2.275   2.033  1.2083  0.1608 -0.0156
 5564TIP3    H238108   2.042   2.138   2.083 -1.8157 -0.9677 -0.4499
 5565TIP3   OH238109   0.461   3.683  13.735 -0.2113  0.0556  0.3357
 5565TIP3    H138110   0.544   3.685  13.687  0.4086 -0.7037  1.3301
 5565TIP3    H238111   0.399   3.643  13.675  0.4998 -0.7141  0.0990
 5566TIP3   OH238112   5.148   3.127   1.734 -0.3161 -0.1713  0.4822
 5566TIP3    H138113   5.099   3.071   1.673 -2.8418  0.7074  1.5869
 5566TIP3    H238114   5.160   3.073   1.812  0.6943 -0.4455  0.1499
 5567TIP3   OH238115   4.171   1.067   5.018 -0.1670 -0.4648 -0.6472
 5567TIP3    H138116   4.245   1.122   5.048 -0.7100  0.5702 -1.1589
 5567TIP3    H238117   4.098   1.094   5.074 -0.6281 -0.1139 -1.4051
 5568TIP3   OH238118   2.166   1.166   4.939 -0.2936  0.0507  0.0733
 5568TIP3    H138119   2.207   1.113   4.872 -0.8772 -0.0782 -0.1926
 5568TIP3    H238120   2.081   1.124   4.954 -0.5456  0.6058  0.2296
 5569TIP3   OH238121   1.127   3.446  15.101 -0.1597  0.0347  0.1117
 5569TIP3    H138122   1.203   3.389  15.111 -1.2155 -1.4000  0.3154
 5569TIP3    H238123   1.134   3.508  15.173  0.8616 -0.0169  0.0701
 5570TIP3   OH238124   0.592   6.498  11.439  0.0113 -0.1710  0.6595
 5570TIP3    H138125   0.624   6.539  11.519 -0.2453  0.7748  0.2856
 5570TIP3    H238126   0.637   6.544  11.368  3.6262 -3.7980  0.2500
 5571TIP3   OH238127   3.192   1.163  13.257 -0.0758 -0.0921 -0.2533
 5571TIP3    H138128   3.171   1.205  13.174  1.9112  1.9415  0.1604
 5571TIP3    H238129   3.280   1.127  13.244 -0.1663 -0.6954  0.6538
 5572TIP3   OH238130   0.941   0.834  13.032 -0.5313  0.0713  0.2011
 5572TIP3    H138131   0.864   0.792  13.072 -1.3216  1.7169  0.5075
 5572TIP3    H238132   0.908   0.917  13.000  1.2850  1.1122  0.9095
 5573TIP3   OH238133   4.299   1.689   1.190 -0.0872 -0.0712  0.3056
 5573TIP3    H138134   4.320   1.615   1.133  0.6000 -0.0891  0.5806
 5573TIP3    H238135   4.240   1.743   1.137  1.1747  0.3318 -0.7384
 5574TIP3   OH238136   3.427   4.429  11.568  0.3887 -0.2624  0.2174
 5574TIP3    H138137   3.390   4.345  11.596 -0.8421  0.3655  0.5184
 5574TIP3    H238138   3.484   4.406  11.494  0.3439 -1.4022  0.5181
 5575TIP3   OH238139   2.867   4.080  11.643 -0.2799 -0.4705 -0.4293
 5575TIP3    H138140   2.821   4.015  11.696  0.3688  1.0132  2.1212
 5575TIP3    H238141   2.814   4.087  11.563 -2.8988 -0.9107  1.1409
 5576TIP3   OH238142   5.480   6.657  10.846  0.1098  0.1560  0.0685
 5576TIP3    H138143   5.439   6.734  10.885 -0.6393 -1.6054  3.1456
 5576TIP3    H238144   5.569   6.685  10.824 -0.6802  2.3106 -0.5639
 5577TIP3   OH238145   2.800   4.137   0.419  0.4765  0.0380  0.4426
 5577TIP3    H138146   2.886   4.178   0.425  0.4592  0.5924 -2.0594
 5577TIP3    H238147   2.780   4.138   0.326 -2.2514 -0.0884  0.9573
 5578TIP3   OH238148   4.496   5.219  13.138  0.1283  0.0643  0.2284
 5578TIP3    H138149   4.407   5.188  13.126 -1.2947  2.6399  2.7353
 5578TIP3    H238150   4.542   5.147  13.181 -1.0363 -0.9175 -0.1463
 5579TIP3   OH238151   2.038   0.893   4.022 -0.3087 -0.0663 -0.1982
 5579TIP3    H138152   2.109   0.881   4.085  0.0370  0.7429 -0.4220
 5579TIP3    H238153   1.966   0.839   4.056  0.5679 -1.3088 -0.2470
 5580TIP3   OH238154   0.694   5.245   1.584 -0.0590  0.3106  0.3821
 5580TIP3    H138155   0.639   5.217   1.511  2.0202 -1.3843 -0.6448
 5580TIP3    H238156   0.673   5.185   1.655 -0.2641  0.3380  0.3453
 5581TIP3   OH238157   2.055   4.348  15.630 -0.3421  0.4543 -0.1517
 5581TIP3    H138158   2.039   4.398  15.710 -4.3586  0.8434 -1.0228
 5581TIP3    H238159   2.007   4.394  15.562  0.2962 -1.6411 -2.1362
 5582TIP3   OH238160   2.218   2.357  15.266  0.2019 -0.2065  0.6338
 5582TIP3    H138161   2.300   2.324  15.303 -1.2689 -2.1165  2.4414
 5582TIP3    H238162   2.154   2.289  15.285 -1.6339  0.7728 -1.5988
 5583TIP3   OH238163   0.423   4.818   0.730  0.1214  0.3703 -0.1845
 5583TIP3    H138164   0.440   4.838   0.638  0.5681  2.7447  0.3431
 5583TIP3    H238165   0.433   4.902   0.775  1.5038 -0.9790  2.2820
 5584TIP3   OH238166   6.494   5.976  15.194 -0.2562 -0.0181 -0.0144
 5584TIP3    H138167   6.530   6.055  15.234 -0.0231 -1.0237  1.8955
 5584TIP3    H238168   6.415   5.957  15.246 -1.5321  0.1211 -1.8120
 5585TIP3   OH238169   3.017   3.285  14.573  0.2518 -0.2246 -0.0132
 5585TIP3    H138170   3.001   3.376  14.549 -0.0721 -0.5624 -1.1373
 5585TIP3    H238171   3.093   3.288  14.631  1.6498  0.5789 -1.7881
 5586TIP3   OH238172   4.858   1.663  13.523  0.0859  0.3796 -0.2889
 5586TIP3    H138173   4.908   1.721  13.580 -2.0744  0.6721  1.4689
 5586TIP3    H238174   4.913   1.586  13.512  2.0931  1.7964 -0.8621
 5587TIP3   OH238175   5.993   0.839   6.257  0.2158  0.7550 -0.3932
 5587TIP3    H138176   6.001   0.811   6.166  0.1479  1.7503 -0.7254
 5587TIP3    H238177   5.944   0.921   6.251  1.7797  1.7827  0.3762
 5588TIP3   OH238178   3.512   5.030   1.630 -0.1553 -0.0886  0.3400
 5588TIP3    H138179   3.526   5.001   1.719  1.9635 -2.0208 -0.5355
 5588TIP3    H238180   3.599   5.046   1.595 -0.8739 -0.0404 -1.5895
 5589TIP3   OH238181   3.901   2.996  15.350  0.0876  0.3268 -0.1608
 5589TIP3    H138182   3.867   3.014  15.438 -0.5287  0.1387 -0.3555
 5589TIP3    H238183   3.995   3.012  15.357  0.4085 -1.7233  1.0985
 5590TIP3   OH238184   3.962   4.206   2.493  0.2530 -0.1123  0.0826
 5590TIP3    H138185   3.899   4.213   2.565 -1.0485 -0.0081 -1.0127
 5590TIP3    H238186   4.047   4.194   2.535 -0.5428 -0.5589  1.6151
 5591TIP3   OH238187   4.549   2.576  17.156 -0.3613  0.0257 -0.0687
 5591TIP3    H138188   4.517   2.604  17.243  2.2830  1.4919  0.5448
 5591TIP3    H238189   4.514   2.642  17.096  0.7733  1.1780  0.4810
 5592TIP3   OH238190   0.171   6.231   1.025 -0.3004  0.1773  0.3011
 5592TIP3    H138191   0.221   6.187   0.956 -0.8706  0.1332 -0.0929
 5592TIP3    H238192   0.194   6.324   1.015  3.3045 -0.2003  3.0671
 5593TIP3   OH238193   4.060   3.278  13.025 -0.0077 -0.1812  0.1902
 5593TIP3    H138194   3.994   3.304  12.960 -1.3043 -2.2669  0.5763
 5593TIP3    H238195   4.094   3.195  12.992  2.7897  0.9814 -0.1772
 5594TIP3   OH238196   1.250   6.242   3.944 -0.0519 -0.3975  0.1394
 5594TIP3    H138197   1.332   6.282   3.917  0.8309 -0.3973  2.5855
 5594TIP3    H238198   1.184   6.280   3.885  1.4580  0.7624 -0.8745
 5595TIP3   OH238199   5.317   5.419   4.922  0.5208  0.1836 -0.5989
 5595TIP3    H138200   5.333   5.417   4.827 -3.3760  1.6728 -1.4801
 5595TIP3    H238201   5.244   5.359   4.935 -0.2723  1.4466  1.1461
 5596TIP3   OH238202   2.621   0.620   2.931 -1.0065  0.4639 -0.3460
 5596TIP3    H138203   2.640   0.629   2.838 -0.6263  1.2661 -0.1990
 5596TIP3    H238204   2.611   0.526   2.945  0.8107  0.1630 -0.8258
 5597TIP3   OH238205   6.206   3.433  16.477  0.4787  0.0976 -0.2832
 5597TIP3    H138206   6.279   3.420  16.538  1.0937 -2.3775 -1.4527
 5597TIP3    H238207   6.147   3.361  16.495 -1.9288  2.1669  0.7931
 5598TIP3   OH238208   0.649   4.385  15.018 -0.2365  0.2779 -0.1707
 5598TIP3    H138209   0.741   4.369  14.996 -0.6474 -1.6370 -0.7388
 5598TIP3    H238210   0.651   4.418  15.107  1.0302  0.8080 -0.3667
 5599TIP3   OH238211   3.773   0.831   1.941  0.2422 -0.4088  0.2688
 5599TIP3    H138212   3.790   0.860   1.851  2.6204  0.4979  0.9124
 5599TIP3    H238213   3.768   0.736   1.936  1.3712 -0.4365 -0.7027
 5600TIP3   OH238214   1.480   2.702  13.455 -0.2395 -0.3708  0.3978
 5600TIP3    H138215   1.399   2.659  13.427  0.8751 -2.7367  0.5477
 5600TIP3    H238216   1.500   2.660  13.540  1.2278  0.0149  0.2590
 5601TIP3   OH238217   0.498   1.160  14.567  0.1138  0.2286 -0.7208
 5601TIP3    H138218   0.421   1.107  14.548 -0.5095  0.0410  1.9522
 5601TIP3    H238219   0.535   1.181  14.481 -2.2745 -0.5859 -2.0222
 5602TIP3   OH238220   0.799   1.819   2.209  1.0286  0.7049 -0.3283
 5602TIP3    H138221   0.865   1.875   2.167 -0.8093  4.2457  1.0787
 5602TIP3    H238222   0.726   1.818   2.148  0.1963  1.8541  0.5900
 5603TIP3   OH238223   2.128   4.040  16.759 -0.4656 -0.0249 -0.2026
 5603TIP3    H138224   2.087   4.124  16.779 -0.0167 -0.0015  0.6948
 5603TIP3    H238225   2.211   4.063  16.716 -1.4047 -0.0748 -2.1629
 5604TIP3   OH238226   3.033   0.602  11.992 -0.3401  0.5587 -0.5630
 5604TIP3    H138227   3.071   0.514  11.990  2.3279  1.6251 -2.1266
 5604TIP3    H238228   2.953   0.595  11.941 -0.8800 -1.2138  0.4608
 5605TIP3   OH238229   3.163   3.556  10.851 -0.1086 -0.2385  0.6319
 5605TIP3    H138230   3.072   3.584  10.857  0.1736  1.1496 -0.7195
 5605TIP3    H238231   3.213   3.637  10.856  0.9383 -0.7955 -0.3284
 5606TIP3   OH238232   0.945   2.661   1.426 -0.0400 -0.1294 -0.1901
 5606TIP3    H138233   0.960   2.634   1.335  0.3311 -0.2609 -0.0926
 5606TIP3    H238234   0.926   2.579   1.472  0.9056 -0.2109  0.0715
 5607TIP3   OH238235   0.483   1.271  13.011 -0.2609  0.4710  0.3158
 5607TIP3    H138236   0.529   1.329  13.072 -0.2719 -0.8090  1.5894
 5607TIP3    H238237   0.394   1.307  13.006 -0.3611  0.3965  1.3554
 5608TIP3   OH238238   6.619   2.110   3.704  0.1360 -0.3551 -0.1456
 5608TIP3    H138239   6.585   2.132   3.790 -1.4936  0.3634 -0.9421
 5608TIP3    H238240   6.678   2.182   3.682 -1.1197  0.5848 -0.5208
 5609TIP3   OH238241   1.910   4.356   5.762  0.0791  0.0850 -0.4091
 5609TIP3    H138242   1.914   4.262   5.744  0.9544  0.0588 -0.1339
 5609TIP3    H238243   1.820   4.381   5.740  0.1797 -0.5709 -1.6796
 5610TIP3   OH238244   4.805   6.662   3.685 -0.4539  0.2868 -0.4076
 5610TIP3    H138245   4.747   6.636   3.756 -0.4529 -0.7384 -0.7715
 5610TIP3    H238246   4.878   6.707   3.730 -0.7873  0.2575  0.1758
 5611TIP3   OH238247   1.885   2.645  11.834  0.2279 -0.3988 -0.0813
 5611TIP3    H138248   1.849   2.727  11.799  0.9156  1.3397  2.9235
 5611TIP3    H238249   1.808   2.597  11.866 -0.0364 -0.2540 -0.4818
 5612TIP3   OH238250   1.529   0.098  13.064 -0.3156  0.0039  0.3151
 5612TIP3    H138251   1.552   0.117  12.973  0.8340 -0.1764  0.5516
 5612TIP3    H238252   1.497   0.182  13.098 -0.6086  0.1102 -0.2105
 5613TIP3   OH238253   1.113   0.977  11.133 -0.3059 -0.1932  0.6521
 5613TIP3    H138254   1.067   0.900  11.167 -0.6571 -0.9052 -1.3237
 5613TIP3    H238255   1.052   1.014  11.069  1.2347 -0.2641 -0.9150
 5614TIP3   OH238256   2.156   4.583  11.609 -0.3322 -0.6317  0.3381
 5614TIP3    H138257   2.064   4.556  11.601  0.3241 -4.1126  2.3885
 5614TIP3    H238258   2.153   4.659  11.667 -1.9550  0.0295 -0.5514
 5615TIP3   OH238259   0.339   0.173   1.010 -0.3542 -0.2672 -0.1628
 5615TIP3    H138260   0.301   0.234   0.946 -0.0277 -0.7670 -0.8481
 5615TIP3    H238261   0.336   0.220   1.093 -1.8343 -0.0355 -0.3281
 5616TIP3   OH238262   0.553   2.652   2.960 -0.6973 -0.3587 -0.1217
 5616TIP3    H138263   0.594   2.668   3.044 -0.4513 -1.1854 -0.0728
 5616TIP3    H238264   0.569   2.731   2.909 -0.6365  0.0467  0.5185
 5617TIP3   OH238265   3.297   4.035   4.201 -0.2331 -0.4040 -0.2186
 5617TIP3    H138266   3.378   4.069   4.238  0.0533 -1.4829  0.1872
 5617TIP3    H238267   3.324   3.959   4.150 -0.8964 -0.2618 -0.7923
 5618TIP3   OH238268   1.775   3.824  16.987  0.2081  0.6014  0.0801
 5618TIP3    H138269   1.867   3.805  16.969  0.0095 -0.1891 -0.1217
 5618TIP3    H238270   1.737   3.842  16.901  0.3735  1.9070  0.2547
 5619TIP3   OH238271   2.050   6.010  13.108  0.1593  0.0972 -0.1774
 5619TIP3    H138272   2.007   6.092  13.132  0.0536  0.5909 -1.9183
 5619TIP3    H238273   2.130   6.038  13.062  1.0145 -0.7994  0.7005
 5620TIP3   OH238274   6.602   3.197   0.236  0.7894 -0.1670  0.0675
 5620TIP3    H138275   6.507   3.184   0.229  0.9417 -1.7649  0.4542
 5620TIP3    H238276   6.614   3.248   0.315  0.3074 -1.0718  0.7406
 5621TIP3   OH238277   5.798   0.070  17.234  0.8747  0.1399  0.2052
 5621TIP3    H138278   5.747   0.144  17.203  0.5323 -0.2583 -0.2030
 5621TIP3    H238279   5.762   0.050  17.320  1.5271  0.9650  0.6864
 5622TIP3   OH238280   2.347   1.821  12.904 -0.0159 -0.3178 -0.0963
 5622TIP3    H138281   2.262   1.859  12.927  0.6524  0.3143  1.5339
 5622TIP3    H238282   2.379   1.783  12.986  0.7331 -1.6512 -0.9755
 5623TIP3   OH238283   1.779   3.468  13.991 -0.2185  0.2698  0.5586
 5623TIP3    H138284   1.767   3.554  14.029  1.5610  0.5177  0.6331
 5623TIP3    H238285   1.761   3.480  13.898  0.7507  0.9162  0.4391
 5624TIP3   OH238286   6.141   6.130  11.386  0.3311 -0.0524 -0.5180
 5624TIP3    H138287   6.102   6.043  11.387  0.5983 -0.2034 -1.6033
 5624TIP3    H238288   6.070   6.188  11.361  0.6451 -0.2588 -1.9685
 5625TIP3   OH238289   2.620   1.242  13.592 -0.2643 -0.3890 -0.3964
 5625TIP3    H138290   2.605   1.332  13.622 -1.6414 -1.0365  0.9856
 5625TIP3    H238291   2.624   1.249  13.497 -0.4895  1.1080 -0.3206
 5626TIP3   OH238292   1.017   2.515  14.951  0.4598  0.2486 -0.4664
 5626TIP3    H138293   1.012   2.508  15.047 -0.2283 -2.7365 -0.6370
 5626TIP3    H238294   0.963   2.591  14.930  0.1825  0.6423  1.4721
 5627TIP3   OH238295   0.006   2.615  13.675  0.5039  0.0795 -0.1266
 5627TIP3    H138296  -0.047   2.583  13.602  1.1996  0.1356 -0.6690
 5627TIP3    H238297   0.059   2.685  13.637  1.1902 -0.1804  0.3314
 5628TIP3   OH238298   3.746   5.892   2.561 -0.2864 -0.1433  0.9075
 5628TIP3    H138299   3.710   5.924   2.644 -0.2945  0.9279  0.5034
 5628TIP3    H238300   3.789   5.968   2.523 -2.4831  0.1065 -1.2959
 5629TIP3   OH238301   1.546   3.105  15.643 -0.4689  0.0786 -0.2362
 5629TIP3    H138302   1.494   3.067  15.572 -1.2492  0.7004 -0.0107
 5629TIP3    H238303   1.481   3.135  15.707  0.0506  2.2425 -0.6343
 5630TIP3   OH238304   1.792   3.978  16.430  0.5215  0.0629 -0.4168
 5630TIP3    H138305   1.747   3.895  16.415 -0.1722  0.4911 -0.7467
 5630TIP3    H238306   1.874   3.953  16.472  0.6089 -0.8371 -1.0953
 5631TIP3   OH238307   3.619   4.411  15.310 -0.1545  0.3403  0.3510
 5631TIP3    H138308   3.593   4.327  15.272  0.2641  0.9586 -1.3629
 5631TIP3    H238309   3.600   4.475  15.242  0.6845  1.4922  1.1706
 5632TIP3   OH238310   4.732   1.395  12.885 -0.6258 -0.7294 -0.6118
 5632TIP3    H138311   4.718   1.489  12.873  3.4328  0.2005  0.4108
 5632TIP3    H238312   4.827   1.386  12.894 -1.0459 -4.5467  2.5963
 5633TIP3   OH238313   3.368   6.273   3.317  0.1775  0.1343  0.5159
 5633TIP3    H138314   3.448   6.304   3.361  2.2616 -3.6955 -0.0682
 5633TIP3    H238315   3.334   6.206   3.376  0.2769 -1.6998 -1.3824
 5634TIP3   OH238316   0.988   3.681  11.802  0.3349 -0.3602  0.3960
 5634TIP3    H138317   1.045   3.638  11.866 -0.6375 -0.4809  1.2115
 5634TIP3    H238318   1.040   3.755  11.770  1.3189 -1.0415  0.3620
 5635TIP3   OH238319   4.708   5.414  16.685 -0.4492  0.4021  0.6023
 5635TIP3    H138320   4.696   5.507  16.663  1.4215  0.0452 -2.6362
 5635TIP3    H238321   4.670   5.405  16.772  0.7173  4.5536  1.7919
 5636TIP3   OH238322   1.775   2.695   2.190 -0.1948  0.2124  0.3698
 5636TIP3    H138323   1.743   2.698   2.100 -0.8409 -0.7428  0.5495
 5636TIP3    H238324   1.858   2.649   2.185 -0.8542 -1.0224  0.4061
 5637TIP3   OH238325   4.060   6.507   4.244 -0.5496  0.3468  0.4002
 5637TIP3    H138326   3.989   6.449   4.271  1.1100 -1.3100  1.3983
 5637TIP3    H238327   4.132   6.488   4.304  1.1429  1.1215 -1.2527
 5638TIP3   OH238328   3.159   4.943   1.422  0.1113 -0.3455 -0.0901
 5638TIP3    H138329   3.169   4.909   1.333  3.1202  0.0469  0.0039
 5638TIP3    H238330   3.109   5.024   1.411  2.5103  1.0454 -1.8567
 5639TIP3   OH238331   0.179   5.603   0.909 -0.1692  0.4022  0.0974
 5639TIP3    H138332   0.153   5.682   0.957  0.4499 -0.0538  1.2134
 5639TIP3    H238333   0.206   5.635   0.823  0.7279  1.4960  0.7621
 5640TIP3   OH238334   6.656   3.648  15.231  0.1361 -0.0811 -0.1328
 5640TIP3    H138335   6.604   3.568  15.231 -0.5411  0.3189 -1.5383
 5640TIP3    H238336   6.595   3.716  15.261  1.1716 -0.2943  2.7734
 5641TIP3   OH238337   0.277   3.841  15.904  0.5148  0.4446  0.3111
 5641TIP3    H138338   0.293   3.750  15.930  0.4021  1.1160  3.0274
 5641TIP3    H238339   0.364   3.880  15.896  0.5458  0.2614 -0.3523
 5642TIP3   OH238340   4.118   2.760  12.871  0.1893  0.3010  0.5232
 5642TIP3    H138341   4.030   2.737  12.839  0.1435  0.6543  0.3864
 5642TIP3    H238342   4.172   2.764  12.792  1.0176 -2.7084  0.8200
 5643TIP3   OH238343   1.315   0.716   3.845 -0.5169 -0.0302  0.0082
 5643TIP3    H138344   1.377   0.714   3.772 -1.3602 -0.1454 -0.7186
 5643TIP3    H238345   1.251   0.783   3.821  0.7217  2.0146  1.9598
 5644TIP3   OH238346   5.199   5.404  10.691  0.3195 -0.2242  0.1016
 5644TIP3    H138347   5.269   5.417  10.627  0.5544 -0.8299  0.2289
 5644TIP3    H238348   5.227   5.328  10.742  0.1215  0.2252  0.9030
 5645TIP3   OH238349   4.806   1.675  13.927 -0.6545 -0.0356 -0.2497
 5645TIP3    H138350   4.887   1.661  13.976 -0.3499  0.9325 -0.4533
 5645TIP3    H238351   4.820   1.757  13.880 -0.1163 -1.8670 -3.5973
 5646TIP3   OH238352   2.213   5.944   3.540 -0.3948 -0.2879 -0.2870
 5646TIP3    H138353   2.294   5.896   3.559 -0.5822 -0.1095  1.0978
 5646TIP3    H238354   2.230   6.033   3.571 -0.7758  0.0049 -0.9055
 5647TIP3   OH238355   2.407   1.991   2.045  0.0479 -0.2955  0.1445
 5647TIP3    H138356   2.387   1.984   1.952 -0.2958  1.8194  0.0243
 5647TIP3    H238357   2.397   2.084   2.066  0.0061 -0.7232  2.3241
 5648TIP3   OH238358   0.928   1.526   0.438 -0.1055  0.1415  0.2184
 5648TIP3    H138359   1.017   1.529   0.404 -0.0832 -1.4543  0.0333
 5648TIP3    H238360   0.935   1.559   0.528  0.2294  2.2276 -0.5241
 5649TIP3   OH238361   3.490   3.435   5.489 -0.5499  0.1498  0.0599
 5649TIP3    H138362   3.563   3.373   5.487 -2.2768 -2.0357 -2.3756
 5649TIP3    H238363   3.526   3.516   5.453  0.4097 -1.2918 -2.4604
 5650TIP3   OH238364   0.312   1.927   5.635  0.2469 -0.0593  0.2522
 5650TIP3    H138365   0.396   1.960   5.603 -0.6134 -0.3948 -2.6477
 5650TIP3    H238366   0.319   1.832   5.627 -0.2472 -0.1127  0.4146
 5651TIP3   OH238367   4.630   3.437   3.806  0.1948  0.7514 -0.0287
 5651TIP3    H138368   4.721   3.462   3.791  0.1591  0.8264 -0.1226
 5651TIP3    H238369   4.615   3.362   3.749  1.1533 -1.3631  2.3311
 5652TIP3   OH238370   3.789   3.362   2.165 -0.0082  0.0305 -0.2472
 5652TIP3    H138371   3.852   3.428   2.196  2.8629 -2.1111 -1.0422
 5652TIP3    H238372   3.762   3.316   2.245 -0.1781  0.6573  0.0613
 5653TIP3   OH238373   1.458   5.131  11.893 -0.0710 -0.0894 -0.2430
 5653TIP3    H138374   1.439   5.218  11.929 -1.7988 -0.5197 -0.0047
 5653TIP3    H238375   1.448   5.141  11.799 -1.8763 -0.3208 -0.1272
 5654TIP3   OH238376   3.729   1.281   2.380 -0.3761 -0.8098  0.4997
 5654TIP3    H138377   3.750   1.320   2.465  1.1619 -0.3875 -0.0400
 5654TIP3    H238378   3.668   1.210   2.401  0.2103 -0.9236  2.0028
 5655TIP3   OH238379   4.277   2.737  14.641 -0.5618 -0.4121  0.3288
 5655TIP3    H138380   4.274   2.809  14.704  0.2518 -0.2184  0.1476
 5655TIP3    H238381   4.223   2.668  14.681 -1.4930  0.3510  0.4194
 5656TIP3   OH238382   4.195   1.123   0.187  0.3736  0.7140 -0.1096
 5656TIP3    H138383   4.107   1.098   0.217  0.6948  1.0415  1.1338
 5656TIP3    H238384   4.242   1.040   0.181 -0.6371  0.2329 -3.0228
 5657TIP3   OH238385   6.172   0.097   6.066  0.0803 -0.1431  0.1684
 5657TIP3    H138386   6.137   0.064   6.149  1.6483 -3.4630 -0.3193
 5657TIP3    H238387   6.266   0.101   6.080  0.3045 -0.0522 -1.2619
 5658TIP3   OH238388   1.876   1.783  16.410 -0.2597 -0.3660  0.0357
 5658TIP3    H138389   1.927   1.851  16.453 -0.4567 -0.1791 -0.0242
 5658TIP3    H238390   1.934   1.749  16.342 -0.3819  0.1880 -0.3605
 5659TIP3   OH238391   1.635   2.022  12.963 -0.2969 -0.1833  0.6270
 5659TIP3    H138392   1.572   1.980  13.021  0.4783 -1.8808  0.2967
 5659TIP3    H238393   1.720   1.996  12.998  0.2025  0.3731 -0.1426
 5660TIP3   OH238394   6.166   2.437   5.217  0.0750 -0.0628  0.3001
 5660TIP3    H138395   6.115   2.356   5.225  0.7227 -0.9584 -3.1075
 5660TIP3    H238396   6.124   2.486   5.147  1.1180  1.4435  0.6746
 5661TIP3   OH238397   4.190   0.559   1.195  0.0885 -0.6762 -0.2780
 5661TIP3    H138398   4.220   0.532   1.108 -1.3772 -1.6622 -0.5212
 5661TIP3    H238399   4.219   0.489   1.253 -0.7048 -1.0682 -0.3356
 5662TIP3   OH238400   5.007   5.662   3.782 -0.7233  0.2249 -0.0332
 5662TIP3    H138401   5.027   5.709   3.863 -2.3275  2.3714 -0.7938
 5662TIP3    H238402   5.034   5.571   3.800  0.4518  0.9457  2.2947
 5663TIP3   OH238403   1.263   0.800  15.353  0.3618 -0.3245  0.0273
 5663TIP3    H138404   1.210   0.735  15.307  0.0010 -0.4597  0.6146
 5663TIP3    H238405   1.198   0.859  15.393  0.6513 -0.4177  0.6482
 5664TIP3   OH238406   3.529   5.048  11.958  0.0824  0.1007  0.2162
 5664TIP3    H138407   3.508   5.000  12.039  1.4658 -0.5855  0.2059
 5664TIP3    H238408   3.471   5.010  11.892 -0.2473 -0.1534  0.6469
 5665TIP3   OH238409   0.779   1.596  16.879 -0.1402 -0.2029 -0.1643
 5665TIP3    H138410   0.843   1.651  16.834 -0.9243  2.3112  1.5797
 5665TIP3    H238411   0.799   1.608  16.972 -1.6322 -1.3231  0.3323
 5666TIP3   OH238412   0.475   4.244  13.941  0.1477 -0.3079  0.1442
 5666TIP3    H138413   0.511   4.332  13.944  1.0917 -0.6959  0.5057
 5666TIP3    H238414   0.388   4.252  13.981 -0.1588  0.6257 -0.6849
 5667TIP3   OH238415   3.740   4.557  12.897 -0.0830 -0.2528 -0.9303
 5667TIP3    H138416   3.799   4.598  12.960 -1.2492 -1.5785  1.1437
 5667TIP3    H238417   3.655   4.557  12.940 -0.9469 -1.1623 -2.5498
 5668TIP3   OH238418   6.316   3.622  11.705 -0.7981  0.5409 -0.1834
 5668TIP3    H138419   6.333   3.568  11.629 -1.2817  0.3376 -0.1559
 5668TIP3    H238420   6.399   3.665  11.724 -0.1225 -0.9550  0.3965
 5669TIP3   OH238421   6.263   6.736   5.127 -0.2443  0.9563 -0.6229
 5669TIP3    H138422   6.306   6.805   5.177 -0.1307 -0.1830  0.9006
 5669TIP3    H238423   6.330   6.668   5.117 -1.2214 -0.2462  0.5959
 5670TIP3   OH238424   3.388   4.607   5.766  0.2146 -0.5410  1.0889
 5670TIP3    H138425   3.463   4.549   5.783  1.9461  1.8219  2.0535
 5670TIP3    H238426   3.358   4.633   5.853  0.9837  1.7569  0.7323
 5671TIP3   OH238427   0.908   1.067  13.734 -0.2260 -0.1237  0.1747
 5671TIP3    H138428   0.833   1.057  13.792 -0.6714  2.5374  0.1762
 5671TIP3    H238429   0.982   1.082  13.792 -0.1460 -0.2842  0.1155
 5672TIP3   OH238430   4.357   0.991   0.488  0.0568 -0.2293  0.7331
 5672TIP3    H138431   4.452   0.989   0.478 -0.1428 -0.7482 -1.5718
 5672TIP3    H238432   4.334   1.083   0.476  0.2493 -0.1079  1.2579
 5673TIP3   OH238433   4.558   3.335  15.288 -0.4219  0.4129  0.4087
 5673TIP3    H138434   4.555   3.292  15.203  0.9360 -1.0848  1.0625
 5673TIP3    H238435   4.528   3.424  15.271 -0.1181  0.1754 -1.6463
 5674TIP3   OH238436   3.916   0.035  13.704 -0.0577 -0.4032 -0.8411
 5674TIP3    H138437   4.000  -0.010  13.694  1.4256  1.7825  0.8062
 5674TIP3    H238438   3.876  -0.006  13.781  1.0504  0.6659  0.3485
 5675TIP3   OH238439   0.127   2.386   4.022  0.3718 -0.2618 -0.1018
 5675TIP3    H138440   0.187   2.458   4.046  0.9129 -0.1779 -1.5868
 5675TIP3    H238441   0.183   2.324   3.976 -0.3750 -0.9945 -0.0252
 5676TIP3   OH238442   3.429   0.561   4.619 -0.8045  0.2026 -0.0517
 5676TIP3    H138443   3.462   0.537   4.705 -1.1775 -1.7335 -0.3935
 5676TIP3    H238444   3.333   0.559   4.628 -0.8605  1.6045 -0.1254
 5677TIP3   OH238445   5.564   3.648   3.333  0.4902  0.8634  0.0861
 5677TIP3    H138446   5.651   3.616   3.309  0.4752 -1.0782  2.2352
 5677TIP3    H238447   5.564   3.647   3.429 -1.8052  1.0839  0.1454
 5678TIP3   OH238448   2.058   4.755  16.478  0.1849  0.1095  0.0743
 5678TIP3    H138449   2.020   4.682  16.527  0.3777 -0.9509 -1.2897
 5678TIP3    H238450   2.151   4.754  16.502  0.2042 -0.1626 -0.0063
 5679TIP3   OH238451   1.818   0.520   1.689 -1.0833 -0.0443 -0.1359
 5679TIP3    H138452   1.771   0.479   1.761  0.2184  0.6724  1.1663
 5679TIP3    H238453   1.878   0.582   1.731  0.2167 -0.1111 -1.7785
 5680TIP3   OH238454   4.058   2.612  13.195 -0.1535 -0.5225 -0.3665
 5680TIP3    H138455   4.142   2.586  13.157 -1.3677 -0.1950 -3.6006
 5680TIP3    H238456   4.066   2.706  13.209  0.6396 -0.7949  1.3139
 5681TIP3   OH238457   6.592   2.795   3.081 -0.1703 -0.0151  0.4488
 5681TIP3    H138458   6.556   2.813   2.995 -0.3727  0.5463  0.6486
 5681TIP3    H238459   6.516   2.781   3.138 -0.1022 -3.6597 -0.0730
 5682TIP3   OH238460   1.082   1.540   2.048  0.5819  0.2581  0.1655
 5682TIP3    H138461   1.028   1.515   2.123  0.0968 -1.5738 -0.7168
 5682TIP3    H238462   1.169   1.504   2.068  0.8708  1.1356  0.5268
 5683TIP3   OH238463   5.563   5.402   0.065  0.0274  0.3729  0.0404
 5683TIP3    H138464   5.636   5.436   0.013 -0.9114  1.3683 -0.6513
 5683TIP3    H238465   5.489   5.398   0.005 -0.4163 -0.9973  0.6364
 5684TIP3   OH238466   6.366   3.073  15.477 -0.2896 -0.2041  0.0439
 5684TIP3    H138467   6.390   3.155  15.520  0.6646 -0.1858 -0.4885
 5684TIP3    H238468   6.411   3.006  15.529  0.9780 -0.1703 -0.9725
 5685TIP3   OH238469   0.531   5.272   1.354  0.0639 -0.2134  0.2360
 5685TIP3    H138470   0.444   5.233   1.340  0.1351 -0.4970  0.5653
 5685TIP3    H238471   0.519   5.365   1.332 -0.5552 -0.0648  1.1397
 5686TIP3   OH238472   6.003   3.456  15.531 -0.4769  0.6359 -0.3545
 5686TIP3    H138473   6.008   3.551  15.519  0.2120  0.8892  1.4902
 5686TIP3    H238474   6.003   3.445  15.626 -0.4162 -1.2234 -0.5453
 5687TIP3   OH238475   0.649   3.465  17.179  0.0689 -0.3012 -0.2587
 5687TIP3    H138476   0.594   3.412  17.122  0.5661 -0.4499 -0.6090
 5687TIP3    H238477   0.654   3.550  17.136 -1.2114  0.2384  0.6014
 5688TIP3   OH238478   2.541   4.672  12.290  0.2008 -0.6975  0.9225
 5688TIP3    H138479   2.620   4.651  12.239 -1.4732  1.3853 -2.9765
 5688TIP3    H238480   2.496   4.588  12.300  0.5913 -1.2348 -1.2564
 5689TIP3   OH238481   5.187   0.552   3.446 -0.4698 -0.2060 -0.2756
 5689TIP3    H138482   5.134   0.554   3.526 -1.0020 -0.4154 -0.6135
 5689TIP3    H238483   5.197   0.459   3.426  0.8154 -0.1993  0.2877
 5690TIP3   OH238484   5.967   5.507   3.924 -0.0624 -0.2872 -0.1494
 5690TIP3    H138485   5.917   5.518   4.004 -0.8986  0.6967 -0.7774
 5690TIP3    H238486   6.029   5.580   3.924 -0.6878  0.2715 -0.8126
 5691TIP3   OH238487   1.681   4.764  11.454 -0.0350  0.0640  0.0346
 5691TIP3    H138488   1.653   4.706  11.526 -1.0377  0.7007  0.1794
 5691TIP3    H238489   1.613   4.753  11.387  0.2185  0.4365 -0.2877
 5692TIP3   OH238490   6.134   1.074  11.032  0.3232 -0.2319 -0.0888
 5692TIP3    H138491   6.180   1.114  11.106  1.5734 -0.0545 -0.9472
 5692TIP3    H238492   6.098   1.148  10.984  2.4091 -0.0739 -1.5276
 5693TIP3   OH238493   3.541   0.171  11.721 -0.1834 -0.3740 -0.2681
 5693TIP3    H138494   3.623   0.218  11.708 -0.5173 -0.1848 -1.8379
 5693TIP3    H238495   3.534   0.113  11.645 -2.1088  0.5195 -0.8117
 5694TIP3   OH238496   6.752   5.876  11.544  0.3167 -0.0511  0.1155
 5694TIP3    H138497   6.791   5.797  11.507 -2.1656 -0.8730 -0.9459
 5694TIP3    H238498   6.691   5.843  11.611 -0.5181  0.9603 -0.1244
 5695TIP3   OH238499   1.676   0.052  15.617  0.1821  0.0871 -0.3474
 5695TIP3    H138500   1.618   0.001  15.674 -1.0957  3.2106  1.4557
 5695TIP3    H238501   1.623   0.072  15.540  1.7138 -3.6305 -2.6302
 5696TIP3   OH238502   3.928   6.571   0.899 -0.0182 -0.1796 -0.0712
 5696TIP3    H138503   3.916   6.476   0.902 -1.0960 -0.0990 -1.0551
 5696TIP3    H238504   3.961   6.588   0.810 -2.7015  0.6135 -1.0077
 5697TIP3   OH238505   6.730   3.202   4.153  0.4366  0.2695 -0.5873
 5697TIP3    H138506   6.691   3.290   4.153 -0.2179  0.0695  1.9949
 5697TIP3    H238507   6.664   3.147   4.109 -0.8966  0.4772  1.0461
 5698TIP3   OH238508   4.527   2.936   5.092 -0.0090 -0.2532  0.2341
 5698TIP3    H138509   4.577   3.014   5.118  1.5696 -0.9816 -0.4820
 5698TIP3    H238510   4.516   2.887   5.174 -0.3200  0.3212  0.5471
 5699TIP3   OH238511   2.475   4.783  11.643  0.6053  0.0443  0.0419
 5699TIP3    H138512   2.557   4.822  11.612 -0.4047  3.3278  1.1803
 5699TIP3    H238513   2.472   4.698  11.599  3.8058  0.4823 -1.3104
 5700TIP3   OH238514   6.732   3.943   0.384  0.0485 -0.4948  0.2767
 5700TIP3    H138515   6.713   4.002   0.457 -1.3768 -0.3901 -0.1486
 5700TIP3    H238516   6.813   3.899   0.409  0.7882  1.1377  0.9145
 5701TIP3   OH238517   2.680   4.885  11.838  0.0768  0.2711 -0.2211
 5701TIP3    H138518   2.652   4.955  11.896  0.4061 -0.2180  0.5528
 5701TIP3    H238519   2.611   4.819  11.844  0.9185 -0.5484  1.0086
 5702TIP3   OH238520   2.933   5.260   3.731 -0.0052 -0.0535 -0.0450
 5702TIP3    H138521   2.926   5.355   3.742 -0.2315 -0.2127  1.3251
 5702TIP3    H238522   2.855   5.236   3.681 -0.8338  0.2803  1.0607
 5703TIP3   OH238523   6.642   5.150  16.497  0.2701 -0.0549  0.4724
 5703TIP3    H138524   6.606   5.135  16.409  1.5382 -0.5981  0.0220
 5703TIP3    H238525   6.656   5.244  16.502  0.5617 -0.0642 -0.0675
 5704TIP3   OH238526   0.747   5.125   5.580  0.2318  0.3117 -0.6149
 5704TIP3    H138527   0.748   5.202   5.637 -0.3120  0.3897 -0.7052
 5704TIP3    H238528   0.786   5.055   5.633  0.4342  0.5672 -0.4213
 5705TIP3   OH238529   4.754   5.916   1.956 -0.3815  0.2697 -0.3502
 5705TIP3    H138530   4.822   5.971   1.996  0.5640 -0.3916 -1.0104
 5705TIP3    H238531   4.798   5.871   1.884 -1.7852  0.6570 -1.5153
 5706TIP3   OH238532   6.214   4.188   3.334  0.4282 -0.3358 -0.2303
 5706TIP3    H138533   6.257   4.105   3.352  0.4842 -0.2714 -0.0617
 5706TIP3    H238534   6.159   4.204   3.411  0.0310 -0.4646 -0.4866
 5707TIP3   OH238535   4.770   6.138  14.491 -0.6099  0.0478 -0.5954
 5707TIP3    H138536   4.833   6.089  14.438 -1.5882 -0.2390 -1.5347
 5707TIP3    H238537   4.797   6.122  14.582  0.1274 -0.7911 -0.9474
 5708TIP3   OH238538   1.751   0.867   4.055  0.4983  0.2141 -0.2154
 5708TIP3    H138539   1.681   0.804   4.073  1.4244 -0.4937  0.9944
 5708TIP3    H238540   1.709   0.953   4.067 -0.6455 -0.1521 -1.4220
 5709TIP3   OH238541   1.753   6.635   5.892  0.6087 -0.0627 -0.2552
 5709TIP3    H138542   1.674   6.660   5.846  0.7715  0.4094 -0.2859
 5709TIP3    H238543   1.803   6.583   5.828  0.9725  0.8389 -0.7334
 5710TIP3   OH238544   5.821   2.669   1.215 -0.5145  0.1769  0.0477
 5710TIP3    H138545   5.891   2.735   1.218 -0.4405  0.0504  1.9673
 5710TIP3    H238546   5.810   2.640   1.306 -2.9524  0.0509 -0.2184
 5711TIP3   OH238547   5.984   2.740  12.022 -0.0943  0.1941  0.7407
 5711TIP3    H138548   6.012   2.821  11.979 -0.4176  1.0863  2.1087
 5711TIP3    H238549   6.027   2.670  11.974  0.2906  1.1965 -0.4106
 5712TIP3   OH238550   5.490   2.056   3.080  0.3193 -0.1812  0.5575
 5712TIP3    H138551   5.456   2.146   3.079  1.7365  0.4630 -2.0970
 5712TIP3    H238552   5.476   2.025   3.169 -0.1657  2.7076  1.5950
 5713TIP3   OH238553   1.071   4.480  14.535  0.1799  0.2707 -0.7429
 5713TIP3    H138554   1.154   4.517  14.565  0.3771  0.5629 -1.6410
 5713TIP3    H238555   1.096   4.404  14.483 -0.0473  0.9689 -1.9098
 5714TIP3   OH238556   6.711   5.337  13.260  0.2398 -0.2135 -0.0260
 5714TIP3    H138557   6.653   5.326  13.335  0.2200  0.9909  0.1519
 5714TIP3    H238558   6.799   5.339  13.298  0.3416 -0.9866 -0.1930
 5715TIP3   OH238559   1.092   6.464   2.265  0.1572 -0.3275  0.5270
 5715TIP3    H138560   1.011   6.505   2.235 -1.2475 -3.0536  0.2621
 5715TIP3    H238561   1.066   6.415   2.343  0.9445 -3.1511 -0.8680
 5716TIP3   OH238562   0.381   6.003   2.201  0.1052 -0.0060  0.3207
 5716TIP3    H138563   0.344   5.951   2.130  1.6042  0.4092 -0.8306
 5716TIP3    H238564   0.419   6.079   2.157  0.4799  0.6013  1.6527
 5717TIP3   OH238565   4.312   3.082   0.331  0.4386 -0.0617  0.0086
 5717TIP3    H138566   4.272   3.169   0.330  0.7239  0.0736 -1.2984
 5717TIP3    H238567   4.395   3.094   0.378 -0.6974 -0.2185  2.1810
 5718TIP3   OH238568   0.006   5.742  12.555 -0.4481 -0.3408  0.9005
 5718TIP3    H138569   0.060   5.816  12.526 -0.9257 -0.1510  0.4843
 5718TIP3    H238570  -0.004   5.757  12.649  1.4822 -1.2077  1.2913
 5719TIP3   OH238571   4.807   4.452  10.859 -0.1729 -0.6275  0.0630
 5719TIP3    H138572   4.764   4.411  10.784  1.0301  0.6291 -1.3702
 5719TIP3    H238573   4.854   4.381  10.902 -0.7120 -1.3248 -0.4825
 5720TIP3   OH238574   5.044   4.773   2.400  0.2499  0.0080  0.3708
 5720TIP3    H138575   5.067   4.782   2.308 -1.6941  0.0229 -0.1444
 5720TIP3    H238576   5.007   4.858   2.424  0.6242 -0.0337  1.1414
 5721TIP3   OH238577   2.963   5.300  17.306 -0.1225  0.4316 -0.1557
 5721TIP3    H138578   2.898   5.367  17.324  1.8259  2.2514  0.5528
 5721TIP3    H238579   2.996   5.274  17.392  0.3447 -0.1777 -0.5087
 5722TIP3   OH238580   3.098   6.470  13.866 -0.1560  0.0637 -0.3957
 5722TIP3    H138581   3.016   6.518  13.877  0.2982  0.9974 -0.9539
 5722TIP3    H238582   3.085   6.418  13.787 -0.9504 -1.4303  0.6522
 5723TIP3   OH238583   1.194   4.549   3.671  0.1927 -0.2082 -0.1161
 5723TIP3    H138584   1.172   4.596   3.751 -0.4335 -0.5420 -0.0894
 5723TIP3    H238585   1.123   4.567   3.610  1.0772  0.7341 -0.9136
 5724TIP3   OH238586   5.505   3.519  17.166  0.1473 -0.1630  0.6136
 5724TIP3    H138587   5.450   3.596  17.179 -0.3513 -0.4550  0.2760
 5724TIP3    H238588   5.466   3.474  17.091  1.9614  0.6338 -0.9055
 5725TIP3   OH238589   3.690   0.308   3.232  0.1024  0.5484 -0.1528
 5725TIP3    H138590   3.615   0.364   3.212 -0.2751  0.0675 -0.0818
 5725TIP3    H238591   3.762   0.348   3.183 -0.6353 -0.1899 -1.9160
 5726TIP3   OH238592   4.382   1.329   2.870  0.4689 -0.1011 -0.1540
 5726TIP3    H138593   4.457   1.299   2.922  0.6714  0.1816 -0.2842
 5726TIP3    H238594   4.318   1.356   2.935  0.2186 -0.9631 -0.0280
 5727TIP3   OH238595   4.669   1.753   4.935  0.4249 -0.1650 -0.0902
 5727TIP3    H138596   4.719   1.834   4.928  1.5024 -0.7966  0.1339
 5727TIP3    H238597   4.701   1.699   4.864 -0.6194 -0.2432 -0.5238
 5728TIP3   OH238598   5.465   6.076  12.258 -0.2405 -0.2319  0.1266
 5728TIP3    H138599   5.423   6.146  12.207  1.1354  1.3725  1.0844
 5728TIP3    H238600   5.400   6.006  12.261 -2.1281  1.4252  0.0453
 5729TIP3   OH238601   2.852   1.150  15.682 -0.6023  0.0725  0.3860
 5729TIP3    H138602   2.832   1.207  15.608  0.4354 -1.0165 -0.7834
 5729TIP3    H238603   2.883   1.068  15.642  0.6892 -0.2938  2.0221
 5730TIP3   OH238604   3.566   1.657  11.500  0.2542 -0.4113 -0.1470
 5730TIP3    H138605   3.528   1.621  11.420  0.6273  0.6729 -0.8442
 5730TIP3    H238606   3.660   1.661  11.483  0.4240 -0.8439  0.6334
 5731TIP3   OH238607   4.877   1.309   5.334  0.2248 -0.2414 -0.2241
 5731TIP3    H138608   4.836   1.340   5.415  1.2788 -2.6157  1.3182
 5731TIP3    H238609   4.903   1.389   5.288 -0.8929  1.1860  1.4958
 5732TIP3   OH238610   3.793   5.780  15.940 -0.5264 -0.1538  0.3039
 5732TIP3    H138611   3.771   5.721  16.012 -0.1009 -1.8916 -0.9133
 5732TIP3    H238612   3.876   5.747  15.907 -0.3670  1.0386 -0.5398
 5733TIP3   OH238613   6.419   1.998  12.612 -0.2733  0.1957  0.0876
 5733TIP3    H138614   6.376   2.074  12.573  1.7810  1.2103 -0.3567
 5733TIP3    H238615   6.467   1.957  12.541  2.1579  1.0824  1.1098
 5734TIP3   OH238616   1.186   2.531  13.882 -0.3380  0.4524  0.9896
 5734TIP3    H138617   1.092   2.514  13.877 -0.0848 -0.6470 -0.8131
 5734TIP3    H238618   1.223   2.450  13.915  0.2138 -0.2067 -1.0896
 5735TIP3   OH238619   2.548   5.718  12.545 -0.8810  0.0508 -0.1508
 5735TIP3    H138620   2.631   5.714  12.498 -0.0665 -0.4646  1.2991
 5735TIP3    H238621   2.544   5.638  12.596 -1.2515  1.0551  1.4676
 5736TIP3   OH238622   4.247   4.574   4.295 -0.0149  0.5556  0.4445
 5736TIP3    H138623   4.173   4.518   4.270 -0.0307  1.3077 -1.3671
 5736TIP3    H238624   4.225   4.605   4.383 -0.6537 -1.1813  0.9295
 5737TIP3   OH238625   3.156   5.482   4.230 -0.1752 -0.0810  0.1583
 5737TIP3    H138626   3.187   5.546   4.294  0.2244 -0.6809  0.5788
 5737TIP3    H238627   3.167   5.526   4.145  0.3726  0.3013  0.4194
 5738TIP3   OH238628   1.419   5.974  16.479 -0.0671  0.2263 -0.5299
 5738TIP3    H138629   1.372   5.964  16.396 -1.6569 -0.6696  0.4271
 5738TIP3    H238630   1.510   5.951  16.458 -0.7689 -1.7444 -1.6632
 5739TIP3   OH238631   6.628   3.946  14.422  0.4633  0.2452  0.1398
 5739TIP3    H138632   6.678   3.927  14.343 -1.1002  1.8089 -1.2762
 5739TIP3    H238633   6.568   3.872  14.431  0.9340 -0.1426  0.1210
 5740TIP3   OH238634   1.178   1.196  11.975 -1.0864  0.0451  0.1590
 5740TIP3    H138635   1.203   1.288  11.984 -1.5131  0.2843 -0.9696
 5740TIP3    H238636   1.088   1.193  12.007 -1.9382  0.5289 -2.0135
 5741TIP3   OH238637   0.658   3.229  15.514  0.7164 -0.1268 -0.2981
 5741TIP3    H138638   0.739   3.260  15.555  0.4539 -1.3864  1.2909
 5741TIP3    H238639   0.606   3.195  15.587 -0.1993 -1.5802 -1.5614
 5742TIP3   OH238640   5.579   1.862  13.388 -0.4076 -0.0372  0.3482
 5742TIP3    H138641   5.560   1.806  13.313 -0.2014  0.3187  0.0263
 5742TIP3    H238642   5.622   1.804  13.451 -2.6697 -0.9237  1.1987
 5743TIP3   OH238643   5.418   4.727   0.023  0.0217  0.5017  0.2543
 5743TIP3    H138644   5.508   4.735   0.054 -0.1851  3.4399  0.4352
 5743TIP3    H238645   5.376   4.666   0.083  1.8751 -1.0415  0.0768
 5744TIP3   OH238646   1.329   6.192  16.133  0.2872 -0.0214 -0.5677
 5744TIP3    H138647   1.337   6.115  16.077  2.3509  1.3396 -2.3122
 5744TIP3    H238648   1.415   6.233  16.131 -0.1067  1.2086  2.0709
 5745TIP3   OH238649   6.727   2.877  12.617 -0.0642 -0.0068  0.2262
 5745TIP3    H138650   6.677   2.796  12.619 -2.2889  1.2700  1.4403
 5745TIP3    H238651   6.750   2.890  12.525  0.5779 -2.1020  0.0555
 5746TIP3   OH238652   6.469   6.712  17.290 -1.0428  0.7002 -0.1137
 5746TIP3    H138653   6.388   6.764  17.289 -1.3047  0.3049  0.0685
 5746TIP3    H238654   6.512   6.736  17.372 -0.1545  2.1378 -0.9778
 5747TIP3   OH238655   3.556   0.937   4.607 -0.5655  0.2343  0.0974
 5747TIP3    H138656   3.522   1.021   4.637 -0.6172 -0.0752  0.9231
 5747TIP3    H238657   3.590   0.955   4.519 -1.6231  0.8518 -0.2060
 5748TIP3   OH238658   6.176   3.827   2.050  0.8530 -0.5270  0.0128
 5748TIP3    H138659   6.169   3.877   2.132  1.6461  0.3279 -0.4284
 5748TIP3    H238660   6.234   3.879   1.995 -0.2337 -0.7280 -1.3782
 5749TIP3   OH238661   3.093   0.309  14.590  0.8126  0.0208  0.1722
 5749TIP3    H138662   3.051   0.369  14.652  0.0866 -0.6938  0.3907
 5749TIP3    H238663   3.132   0.366  14.524  0.2835  0.7353  0.4659
 5750TIP3   OH238664   1.674   3.782  11.848 -0.5510  0.1920 -0.0497
 5750TIP3    H138665   1.763   3.803  11.820 -0.8452  1.4569 -0.0860
 5750TIP3    H238666   1.647   3.711  11.789  0.1300  0.3545 -0.5802
 5751TIP3   OH238667   4.921   2.112  11.614 -0.1979  0.5764  0.0485
 5751TIP3    H138668   4.953   2.027  11.643  0.5333  0.5178 -0.8839
 5751TIP3    H238669   4.851   2.134  11.675 -0.1897 -0.5538  0.4756
 5752TIP3   OH238670   0.426   2.019  16.369 -0.3345 -0.0691  0.0622
 5752TIP3    H138671   0.381   2.099  16.344 -0.4654 -0.5096 -1.1718
 5752TIP3    H238672   0.395   1.953  16.307 -0.1090 -1.0461  0.9507
 5753TIP3   OH238673   1.137   2.000  14.188  0.4925 -0.2472  0.1842
 5753TIP3    H138674   1.070   2.061  14.216  1.6894  1.4314 -0.4532
 5753TIP3    H238675   1.216   2.029  14.234  1.1512 -1.1589 -0.3452
 5754TIP3   OH238676   5.158   3.195  16.217  0.1565  0.5410 -0.0208
 5754TIP3    H138677   5.217   3.263  16.248  0.5623  0.4018 -0.4748
 5754TIP3    H238678   5.087   3.193  16.281  0.1952  1.3196  0.0453
 5755TIP3   OH238679   0.095   3.505  12.179 -0.5452 -0.2126 -0.1769
 5755TIP3    H138680   0.074   3.535  12.090  0.6137 -0.1727 -0.4560
 5755TIP3    H238681   0.040   3.559  12.236 -0.1013  0.9275 -0.7981
 5756TIP3   OH238682   4.527   3.574   1.084 -0.9017  0.4791 -0.0876
 5756TIP3    H138683   4.524   3.482   1.109 -0.8449  0.5658  0.2433
 5756TIP3    H238684   4.484   3.621   1.156  1.4728  0.9744  1.1241
 5757TIP3   OH238685   3.325   3.108   4.053  0.2903 -0.0355  0.3319
 5757TIP3    H138686   3.356   3.172   3.989  0.1352  0.6020  0.8849
 5757TIP3    H238687   3.362   3.137   4.136 -0.0016 -0.5202  0.6370
 5758TIP3   OH238688   0.891   3.626   3.866  0.2596 -0.0142 -0.3493
 5758TIP3    H138689   0.820   3.612   3.803 -0.2993  1.2842 -0.0300
 5758TIP3    H238690   0.971   3.611   3.814 -0.2141 -0.1834 -1.0496
 5759TIP3   OH238691   5.205   1.082  11.072  0.1787 -0.1086 -0.1413
 5759TIP3    H138692   5.300   1.090  11.061  0.3454 -2.5209 -1.0859
 5759TIP3    H238693   5.194   1.039  11.157 -0.0060 -0.8021 -0.5129
 5760TIP3   OH238694   3.580   4.192  13.641 -0.2311 -0.4633  0.4118
 5760TIP3    H138695   3.608   4.128  13.706  1.9777 -0.2051 -0.1896
 5760TIP3    H238696   3.567   4.273  13.690 -0.7903 -0.8063  0.8403
 5761TIP3   OH238697   4.837   4.090   2.774  0.7574 -0.8295 -0.7221
 5761TIP3    H138698   4.854   4.164   2.832 -0.5754 -0.4172 -0.8296
 5761TIP3    H238699   4.744   4.071   2.785  0.9402 -2.0828 -1.1788
 5762TIP3   OH238700   3.448   6.107  13.647 -0.2910  0.1823 -0.2889
 5762TIP3    H138701   3.495   6.074  13.570 -0.3390  0.4502 -0.4360
 5762TIP3    H238702   3.495   6.071  13.722  0.6173  1.0493 -0.4197
 5763TIP3   OH238703   5.990   0.934   6.914 -0.1001  0.4481  0.0178
 5763TIP3    H138704   6.006   0.985   6.993 -1.5125  1.3343 -0.2320
 5763TIP3    H238705   5.954   0.997   6.851  2.9299  0.2923 -2.1259
 5764TIP3   OH238706   1.424   6.692  12.032  0.0715  0.2741  0.1594
 5764TIP3    H138707   1.441   6.599  12.013  0.5521  0.3062  0.4360
 5764TIP3    H238708   1.466   6.739  11.960 -0.5234  0.2632 -0.2029
 5765TIP3   OH238709   2.963   1.513   0.813  0.1840  0.0660 -0.1206
 5765TIP3    H138710   3.028   1.571   0.773  0.4486 -0.4306 -0.4171
 5765TIP3    H238711   2.897   1.573   0.849  1.0771  0.5957  0.6673
 5766TIP3   OH238712   0.084   2.054  11.608  0.7439 -0.5040 -0.1218
 5766TIP3    H138713   0.014   2.013  11.659  0.8051  0.8560  1.1492
 5766TIP3    H238714   0.049   2.062  11.520 -0.9607  0.6900  0.6237
 5767TIP3   OH238715   1.017   0.411   3.433 -0.8948 -0.3662 -0.2156
 5767TIP3    H138716   0.947   0.435   3.372 -0.0578  0.1058 -1.0165
 5767TIP3    H238717   1.037   0.319   3.413 -0.1176  0.0017 -1.1808
 5768TIP3   OH238718   5.953   1.764   0.884  0.6531 -0.1501  0.9539
 5768TIP3    H138719   5.893   1.689   0.876 -0.2837  0.7463 -1.6455
 5768TIP3    H238720   5.922   1.811   0.961 -0.3162 -1.1264  1.1906
 5769TIP3   OH238721   0.732   0.905   2.735  0.3551  0.7765  0.1962
 5769TIP3    H138722   0.795   0.977   2.734  0.8104  0.3850  0.4294
 5769TIP3    H238723   0.660   0.937   2.790  1.0133  0.6708  1.1362
 5770TIP3   OH238724   5.340   3.674  13.837 -0.2546  0.0309  0.9835
 5770TIP3    H138725   5.435   3.677  13.852 -0.4796 -0.3881  2.6186
 5770TIP3    H238726   5.318   3.762  13.806  0.3777  0.7966  2.6007
 5771TIP3   OH238727   4.045   5.506   3.457 -0.4026  0.7231  0.5261
 5771TIP3    H138728   4.132   5.517   3.496  0.4820 -0.8198 -0.9252
 5771TIP3    H238729   4.003   5.438   3.510 -0.1521  0.4030  0.3149
 5772TIP3   OH238730   0.718   2.078  11.424  0.1351 -0.5969 -0.0587
 5772TIP3    H138731   0.662   2.111  11.354 -0.5736  1.0006  1.2133
 5772TIP3    H238732   0.754   2.156  11.466  0.3633 -1.5005  1.5119
 5773TIP3   OH238733   4.268   2.075   2.205  0.4159 -0.4372 -0.4616
 5773TIP3    H138734   4.254   2.028   2.287 -0.6596 -0.3399 -0.5780
 5773TIP3    H238735   4.255   2.167   2.227  2.2961 -0.1784 -0.2849
 5774TIP3   OH238736   0.355   3.449   3.579 -0.2130  0.0791  0.0780
 5774TIP3    H138737   0.426   3.481   3.523  0.0193  0.9268  0.8305
 5774TIP3    H238738   0.315   3.379   3.529  2.1183 -1.5099  0.2405
 5775TIP3   OH238739   1.774   0.306  17.004  0.0053 -0.3155  0.2035
 5775TIP3    H138740   1.827   0.244  17.054  0.6040 -0.2816 -0.3700
 5775TIP3    H238741   1.834   0.341  16.939 -0.7313 -0.2899 -0.4779
 5776TIP3   OH238742   4.827   4.402   3.946  0.6530  0.5148  0.3063
 5776TIP3    H138743   4.780   4.349   4.011  1.7031 -0.8988 -0.0425
 5776TIP3    H238744   4.798   4.492   3.963 -1.0544 -0.1315  1.0306
 5777TIP3   OH238745   0.191   1.873  16.552 -0.1085  0.3756  0.4421
 5777TIP3    H138746   0.270   1.874  16.498  0.3584  0.5910  1.1178
 5777TIP3    H238747   0.214   1.924  16.630 -0.8741  0.3392  0.7066
 5778TIP3   OH238748   2.464   4.389   3.528  0.2876  0.3493  0.6046
 5778TIP3    H138749   2.520   4.340   3.467 -1.5096  0.6538 -1.3953
 5778TIP3    H238750   2.447   4.327   3.599  0.2746 -0.9958 -0.5301
 5779TIP3   OH238751   3.431   4.348   2.850 -0.2640  0.0535  0.0199
 5779TIP3    H138752   3.469   4.422   2.803 -0.5892  0.4033  0.2998
 5779TIP3    H238753   3.344   4.338   2.811 -0.9798  1.0591  1.2891
 5780TIP3   OH238754   3.820   2.707  15.398 -0.2933  0.8012  0.7811
 5780TIP3    H138755   3.907   2.685  15.365  0.4486 -0.9884  3.5478
 5780TIP3    H238756   3.835   2.778  15.460 -1.1510  1.8313 -0.1437
 5781TIP3   OH238757   0.982   0.575   5.892  0.0067  0.3604  0.2841
 5781TIP3    H138758   0.928   0.571   5.813 -0.3934  0.0616  0.5712
 5781TIP3    H238759   1.037   0.497   5.888  2.4284  1.9903 -1.4151
 5782TIP3   OH238760   4.158   6.739   2.254 -0.2248  0.6678  0.0652
 5782TIP3    H138761   4.131   6.755   2.344 -0.2172  1.2983 -0.0398
 5782TIP3    H238762   4.082   6.697   2.214 -0.2332  0.3991  0.3623
 5783TIP3   OH238763   4.302   2.818  11.240 -0.4326  0.2182 -0.0144
 5783TIP3    H138764   4.284   2.777  11.324 -1.2195  0.2022 -0.1781
 5783TIP3    H238765   4.235   2.782  11.181  0.2184  0.0880 -0.6896
 5784TIP3   OH238766   3.029   2.313   2.809 -0.2418  0.5195  0.2149
 5784TIP3    H138767   3.041   2.242   2.745 -0.9962  0.2937  0.3195
 5784TIP3    H238768   2.950   2.288   2.857 -0.1558  1.1232  0.6676
 5785TIP3   OH238769   6.066   6.583   6.039  0.0620 -0.1468 -0.8514
 5785TIP3    H138770   6.129   6.535   6.092  0.1713  0.7863 -0.1009
 5785TIP3    H238771   6.090   6.675   6.051 -1.1529  0.2003 -0.9026
 5786TIP3   OH238772   0.264   1.341  15.877  0.0443 -0.0953  0.2303
 5786TIP3    H138773   0.283   1.252  15.846  0.0933  0.2709 -0.8275
 5786TIP3    H238774   0.252   1.392  15.797  0.9113  1.0497  0.8010
 5787TIP3   OH238775   6.687   2.754   3.672 -0.1504 -0.2904  0.3253
 5787TIP3    H138776   6.609   2.700   3.656 -0.5746 -0.3823  2.3478
 5787TIP3    H238777   6.705   2.741   3.765  1.5699  0.7085  0.1666
 5788TIP3   OH238778   2.942   3.227   2.644  0.1398  0.3013 -0.3423
 5788TIP3    H138779   2.875   3.221   2.713  0.5089  0.2337  0.0142
 5788TIP3    H238780   3.011   3.280   2.683  0.1733  0.6099 -0.8130
 5789TIP3   OH238781   0.903   0.425  13.973 -0.6568 -0.4596  0.0707
 5789TIP3    H138782   0.937   0.498  13.921  0.0098 -0.9132 -0.1480
 5789TIP3    H238783   0.818   0.405  13.933 -1.3377  0.8727  0.8001
 5790TIP3   OH238784   1.888   5.865   0.280  0.2411 -0.0269 -0.3451
 5790TIP3    H138785   1.865   5.943   0.330 -2.4227 -1.6196  1.1663
 5790TIP3    H238786   1.969   5.833   0.320  0.2864  0.8849  0.3020
 5791TIP3   OH238787   2.664   3.725  12.333 -0.3127 -0.3705  0.7413
 5791TIP3    H138788   2.730   3.718  12.402 -0.4689 -1.0142  0.8356
 5791TIP3    H238789   2.621   3.808  12.350  0.7530  0.2690  0.4248
 5792TIP3   OH238790   2.446   5.110  17.083  0.0414  0.0626 -0.2721
 5792TIP3    H138791   2.460   5.152  16.998 -2.1437  2.0684  0.2530
 5792TIP3    H238792   2.393   5.172  17.132  2.8267 -0.0839  3.3700
 5793TIP3   OH238793   5.957   1.749  14.544  0.7203  0.0466 -0.4326
 5793TIP3    H138794   6.043   1.708  14.535 -0.1292 -2.0405  0.4176
 5793TIP3    H238795   5.957   1.785  14.632 -0.2468 -2.5260  0.7001
 5794TIP3   OH238796   6.668   3.539  16.739 -0.0333  0.4113 -0.1713
 5794TIP3    H138797   6.657   3.453  16.780  0.4767 -0.2163 -1.3061
 5794TIP3    H238798   6.581   3.579  16.744  0.6922  2.1371  5.1799
 5795TIP3   OH238799   2.154   2.826  12.755  0.1025 -0.3046 -0.5316
 5795TIP3    H138800   2.203   2.797  12.832  1.3133 -0.9265 -1.5068
 5795TIP3    H238801   2.221   2.847  12.690 -0.7491  2.8096 -0.5879
 5796TIP3   OH238802   4.963   4.477  15.287  0.3841  0.2114  0.4829
 5796TIP3    H138803   4.919   4.520  15.213 -1.3323 -0.7504  0.8868
 5796TIP3    H238804   5.029   4.422  15.246  0.5204  0.8679 -0.2202
 5797TIP3   OH238805   0.037   2.044  11.315  0.8646 -0.2120  0.0816
 5797TIP3    H138806   0.124   2.030  11.278 -0.1293 -0.8861 -2.1587
 5797TIP3    H238807   0.021   2.137  11.303  0.1442 -0.5760 -2.3592
 5798TIP3   OH238808   5.745   2.424   1.007 -0.3358  0.3876 -0.6776
 5798TIP3    H138809   5.725   2.478   0.930 -0.5350  0.6729 -0.4290
 5798TIP3    H238810   5.768   2.487   1.075 -0.5332  0.1590 -0.3934
 5799TIP3   OH238811   5.073   6.033  16.093 -0.1828  0.1715  0.3650
 5799TIP3    H138812   4.978   6.016  16.093 -0.8538  2.2317 -4.0774
 5799TIP3    H238813   5.080   6.128  16.108  1.2694 -0.0307  1.1289
 5800TIP3   OH238814   6.136   6.394   2.547 -0.9920  0.3693  0.2270
 5800TIP3    H138815   6.220   6.437   2.531 -1.3955  1.5311  1.0446
 5800TIP3    H238816   6.125   6.332   2.475  1.2137 -0.8349  0.8522
 5801TIP3   OH238817   6.254   0.212  14.424 -0.1249  0.1000 -0.5383
 5801TIP3    H138818   6.187   0.146  14.408  2.3758 -2.0770 -3.1544
 5801TIP3    H238819   6.284   0.195  14.513 -2.4969  0.7747  0.4953
 5802TIP3   OH238820   5.609   2.503  16.229 -0.2625 -0.2809  0.3027
 5802TIP3    H138821   5.633   2.447  16.155  1.4823  0.0612  0.5527
 5802TIP3    H238822   5.612   2.444  16.305 -1.3953 -0.4857  0.2008
 5803TIP3   OH238823   6.594   3.515   2.085 -0.1998  0.5218  0.1260
 5803TIP3    H138824   6.526   3.447   2.080 -0.2848  0.6453 -0.5030
 5803TIP3    H238825   6.672   3.473   2.049 -1.2092  1.9156 -4.3026
 5804TIP3   OH238826   2.392   3.787  16.309 -0.5853 -0.1029 -0.5371
 5804TIP3    H138827   2.333   3.818  16.241  0.4044  0.2143 -1.2764
 5804TIP3    H238828   2.478   3.823  16.286  0.5140 -2.7971 -1.0775
 5805TIP3   OH238829   6.210   2.455  15.577  0.1310 -0.3764  0.2837
 5805TIP3    H138830   6.255   2.474  15.495  0.4247  0.5017  0.6346
 5805TIP3    H238831   6.260   2.501  15.644 -0.4679 -0.5548  0.8758
 5806TIP3   OH238832   6.397   6.247  13.972 -0.2214  0.0736  0.7381
 5806TIP3    H138833   6.422   6.158  13.996  0.2746 -0.0803 -0.2557
 5806TIP3    H238834   6.372   6.289  14.054 -1.2444 -1.2161  1.1163
 5807TIP3   OH238835   3.547   3.605   4.426 -0.2361  0.1763  0.3210
 5807TIP3    H138836   3.476   3.592   4.489  0.3836 -0.9299  0.8022
 5807TIP3    H238837   3.523   3.686   4.381 -1.1394  0.5225  1.3683
 5808TIP3   OH238838   1.315   2.702   4.899 -0.0308  0.1694 -0.0672
 5808TIP3    H138839   1.334   2.610   4.881 -0.5994 -0.0825  0.5840
 5808TIP3    H238840   1.312   2.743   4.813  0.3541 -0.3957 -0.3548
 5809TIP3   OH238841   3.008   3.696  15.883  0.0533  0.5662  0.1839
 5809TIP3    H138842   3.064   3.773  15.869  0.7562 -0.0013 -0.2455
 5809TIP3    H238843   3.067   3.622  15.869 -1.2104 -0.0896 -2.0978
 5810TIP3   OH238844   1.998   6.098  11.888  0.5033 -0.1053  0.5733
 5810TIP3    H138845   1.965   6.015  11.854  0.2838  0.0097  0.5031
 5810TIP3    H238846   2.054   6.073  11.961 -1.0206 -0.2344  1.7610
 5811TIP3   OH238847   0.638   4.383   4.427 -0.5025 -0.3802  0.4328
 5811TIP3    H138848   0.580   4.371   4.352  2.2071 -0.1801 -1.8620
 5811TIP3    H238849   0.708   4.440   4.394 -0.1513  1.3187  3.7086
 5812TIP3   OH238850   3.750   6.357   0.408  0.4287  0.4320  0.1403
 5812TIP3    H138851   3.671   6.357   0.352  0.6008 -1.6905 -0.1944
 5812TIP3    H238852   3.775   6.265   0.413  1.1928  0.7142  2.6981
 5813TIP3   OH238853   1.456   2.361   1.747 -0.3740 -0.1782 -0.1289
 5813TIP3    H138854   1.538   2.380   1.792  0.3692  2.4101 -2.3226
 5813TIP3    H238855   1.389   2.404   1.801  0.3287  1.6769 -0.6635
 5814TIP3   OH238856   3.269   5.370  12.635 -0.6757 -0.0460 -0.2625
 5814TIP3    H138857   3.208   5.443  12.623 -1.1584 -0.5828 -1.1462
 5814TIP3    H238858   3.255   5.343  12.726 -0.2933  1.1170  0.1673
 5815TIP3   OH238859   0.179   2.949   4.462  0.1538  0.3710 -0.0757
 5815TIP3    H138860   0.236   2.873   4.476  0.5810  0.6309 -0.3624
 5815TIP3    H238861   0.150   2.974   4.549 -0.9280 -0.8203 -0.0705
 5816TIP3   OH238862   3.859   6.137  17.139  0.1502 -0.3087 -0.2575
 5816TIP3    H138863   3.882   6.230  17.144 -1.4978  0.1134 -0.1898
 5816TIP3    H238864   3.902   6.107  17.059  0.6234  0.5277 -0.3333
 5817TIP3   OH238865   1.377   5.873  16.855 -0.4307 -0.1901  0.7053
 5817TIP3    H138866   1.369   5.853  16.762  1.0451  2.2842 -0.0660
 5817TIP3    H238867   1.288   5.894  16.882 -0.5380  1.7865 -0.9284
 5818TIP3   OH238868   2.296   0.123  12.263  0.3671 -0.2310  0.3489
 5818TIP3    H138869   2.383   0.164  12.264 -0.3296  1.5523 -2.0498
 5818TIP3    H238870   2.274   0.118  12.170 -2.3731  0.0166  0.9129
 5819TIP3   OH238871   3.178   1.037  11.609 -0.2199 -0.0302  0.0199
 5819TIP3    H138872   3.128   1.118  11.603  0.7929  0.4810 -2.9046
 5819TIP3    H238873   3.265   1.064  11.641  0.4254  0.2717 -1.8588
 5820TIP3   OH238874   3.753   6.228   4.562 -0.1431  0.3327 -0.0186
 5820TIP3    H138875   3.713   6.174   4.630  0.4353 -0.8002 -0.5389
 5820TIP3    H238876   3.765   6.313   4.602 -1.8137  0.3229  0.5890
 5821TIP3   OH238877   0.253   6.484   5.000  0.6090  0.2813  0.0306
 5821TIP3    H138878   0.320   6.552   5.000 -0.0075  0.8984  0.2227
 5821TIP3    H238879   0.194   6.507   5.072 -0.1891  0.1378 -0.5588
 5822TIP3   OH238880   1.873   5.910   2.931 -0.0611 -0.2116  0.4197
 5822TIP3    H138881   1.816   5.935   3.004 -0.9974 -0.1680 -0.3134
 5822TIP3    H238882   1.815   5.868   2.868  0.8837 -1.0404  0.0614
 5823TIP3   OH238883   2.832   4.427  13.879  0.1544  0.3952  0.0982
 5823TIP3    H138884   2.803   4.467  13.797 -0.8528 -0.1521  0.1787
 5823TIP3    H238885   2.753   4.419  13.931  0.8348  1.0477  1.2807
 5824TIP3   OH238886   3.973   2.925   1.231  0.2476  0.0989 -0.2204
 5824TIP3    H138887   4.017   2.975   1.300 -1.6310 -0.0505  1.1657
 5824TIP3    H238888   3.893   2.974   1.214 -1.7243 -2.4003  1.2543
 5825TIP3   OH238889   4.200   2.898   2.505  0.3066 -0.0781 -0.4585
 5825TIP3    H138890   4.114   2.884   2.545  0.7138 -1.3200  0.0567
 5825TIP3    H238891   4.261   2.852   2.564  1.4005  1.2736 -0.4941
 5826TIP3   OH238892   3.712   0.810   6.243  0.2103 -0.3371  0.0516
 5826TIP3    H138893   3.710   0.869   6.318 -0.7608  1.7553 -1.5124
 5826TIP3    H238894   3.751   0.729   6.277 -0.4263  0.4128  2.8331
 5827TIP3   OH238895   4.872   4.869   6.356  0.0719  0.0420  0.0334
 5827TIP3    H138896   4.817   4.835   6.427  1.4958 -0.5288  0.8975
 5827TIP3    H238897   4.922   4.940   6.396  1.6184 -0.9342 -0.1029
 5828TIP3   OH238898   5.247   3.954  10.935  0.4719  0.2166  0.5805
 5828TIP3    H138899   5.191   3.965  10.858  1.0441  0.7942  0.2337
 5828TIP3    H238900   5.193   3.906  10.997 -0.7848  1.6205  0.6383
 5829TIP3   OH238901   1.389   4.884  15.527  0.1145  0.0498 -0.0216
 5829TIP3    H138902   1.460   4.831  15.491  2.4383  1.4746  2.0868
 5829TIP3    H238903   1.433   4.957  15.570 -2.7714  1.9456 -0.0164
 5830TIP3   OH238904   5.564   4.576  16.053 -0.1871  0.0836  0.0778
 5830TIP3    H138905   5.600   4.552  15.968 -3.3232 -0.8386 -1.1267
 5830TIP3    H238906   5.476   4.538  16.054  0.3945 -1.7954  4.6219
 5831TIP3   OH238907   2.931   3.531  16.094 -0.1797  0.1095  0.3997
 5831TIP3    H138908   2.950   3.618  16.059  1.0605  0.5437  1.9956
 5831TIP3    H238909   2.890   3.548  16.179 -0.9242 -0.8799  0.2558
 5832TIP3   OH238910   0.568   3.277   1.099  0.0997  0.1101 -0.1077
 5832TIP3    H138911   0.606   3.201   1.054 -0.6963 -0.1713 -0.3163
 5832TIP3    H238912   0.583   3.260   1.192 -0.2374 -0.4033 -0.1411
 5833TIP3   OH238913   1.374   4.145  17.094  0.0891  0.7954 -0.2199
 5833TIP3    H138914   1.279   4.148  17.108  0.1440  0.1594  0.3205
 5833TIP3    H238915   1.401   4.060  17.129  0.8213  0.8560 -0.6225
 5834TIP3   OH238916   2.662   0.079   3.667  0.3886  0.4474  0.3298
 5834TIP3    H138917   2.738   0.130   3.640  0.5378  0.3720  0.6126
 5834TIP3    H238918   2.613   0.065   3.586  0.7394  0.3822  0.1273
 5835TIP3   OH238919   5.700   2.462  12.507  1.2526 -0.2892 -0.4026
 5835TIP3    H138920   5.733   2.434  12.592 -0.7662 -1.1705  0.1471
 5835TIP3    H238921   5.724   2.391  12.448  2.1943  0.0820 -0.4883
 5836TIP3   OH238922   4.143   0.642  16.495 -0.8579  0.7403  0.2055
 5836TIP3    H138923   4.175   0.580  16.560 -1.0235 -0.6151 -0.9364
 5836TIP3    H238924   4.064   0.601  16.460 -0.1494  0.8080 -1.6443
 5837TIP3   OH238925   0.641   0.802   1.912 -0.1712 -0.2647 -0.1727
 5837TIP3    H138926   0.633   0.777   2.004  2.1286 -2.5678 -0.5069
 5837TIP3    H238927   0.644   0.719   1.864  1.4854  0.7942 -2.0418
 5838TIP3   OH238928   3.624   4.261   4.006 -0.2321  0.3919 -0.0549
 5838TIP3    H138929   3.549   4.315   3.981 -0.3936  0.7029  1.0567
 5838TIP3    H238930   3.699   4.302   3.965 -0.8688 -1.2039 -3.1557
 5839TIP3   OH238931   4.098   6.705  11.010 -0.6375  0.1498 -0.4447
 5839TIP3    H138932   4.177   6.673  10.965 -0.1232  0.8840 -0.0884
 5839TIP3    H238933   4.034   6.716  10.940  0.4528  2.1965 -1.2015
 5840TIP3   OH238934   4.179   3.068  11.242 -0.4680 -0.0780 -0.4100
 5840TIP3    H138935   4.097   3.045  11.285  0.1576 -1.9322 -0.1090
 5840TIP3    H238936   4.237   2.995  11.260  0.5406  0.1013 -2.5478
 5841TIP3   OH238937   0.363   5.829  11.283  0.1913 -0.4526 -0.3798
 5841TIP3    H138938   0.426   5.841  11.212  1.2044  1.6191  0.7838
 5841TIP3    H238939   0.277   5.834  11.240  0.7599  1.5333 -1.4092
 5842TIP3   OH238940   4.719   6.660  15.227  0.0661 -0.2387  0.5817
 5842TIP3    H138941   4.743   6.691  15.314 -0.0901  2.3946 -0.2296
 5842TIP3    H238942   4.801   6.630  15.188 -0.0471 -2.6178  1.9808
 5843TIP3   OH238943   0.953   1.275   3.008 -0.6256  0.0589  0.3172
 5843TIP3    H138944   0.995   1.350   2.965 -0.5820 -0.4697 -0.5735
 5843TIP3    H238945   0.861   1.281   2.981 -0.4278 -0.7679 -0.5606
 5844TIP3   OH238946   3.206   1.065  16.023  0.2192 -0.7719 -0.2314
 5844TIP3    H138947   3.266   1.064  15.949  0.8823 -2.8775  0.2735
 5844TIP3    H238948   3.134   1.122  15.995  0.7262 -1.0501 -2.2355
 5845TIP3   OH238949   3.281   5.000  14.976  0.6057  0.2460 -0.4820
 5845TIP3    H138950   3.214   5.066  14.996  0.0940 -0.4602  0.2070
 5845TIP3    H238951   3.232   4.918  14.973  1.4308 -0.2724 -0.0361
 5846TIP3   OH238952   3.813   4.965  10.715 -0.0476 -0.1696  0.1042
 5846TIP3    H138953   3.888   4.984  10.660 -0.8874 -1.2488 -1.4768
 5846TIP3    H238954   3.764   4.897  10.668 -2.0676  0.5593  1.0085
 5847TIP3   OH238955   2.007   2.263   4.166 -0.6978 -0.7165 -0.4117
 5847TIP3    H138956   2.024   2.245   4.258 -1.7191  1.0720  0.1832
 5847TIP3    H238957   2.093   2.271   4.126 -0.2205 -0.1078  0.7109
 5848TIP3   OH238958   0.523   4.981  13.240 -0.5955  0.1588 -0.1672
 5848TIP3    H138959   0.470   4.999  13.318  1.1927  3.6706  0.4333
 5848TIP3    H238960   0.549   4.890  13.250 -3.0049 -0.4548  1.6557
 5849TIP3   OH238961   2.059   2.726  17.169  0.2087 -0.3958  0.3873
 5849TIP3    H138962   2.087   2.816  17.151  0.4873 -0.6268 -0.4038
 5849TIP3    H238963   2.120   2.672  17.119 -0.1294 -1.0101  0.6312
 5850TIP3   OH238964   3.052   3.522  16.405 -0.0387  0.0562  0.3438
 5850TIP3    H138965   3.058   3.576  16.326  0.3711 -1.0746 -0.4187
 5850TIP3    H238966   3.126   3.549  16.458  0.6712 -0.3377 -0.4241
 5851TIP3   OH238967   5.882   3.823   1.638  0.0744  0.5136 -0.2117
 5851TIP3    H138968   5.797   3.787   1.611 -1.1165  1.6618  1.7344
 5851TIP3    H238969   5.876   3.916   1.615  1.2268  0.4089 -0.9642
 5852TIP3   OH238970   6.127   2.975  14.951  0.6635  0.1712 -0.1384
 5852TIP3    H138971   6.118   3.055  15.002  0.0343 -0.0182  0.0650
 5852TIP3    H238972   6.113   2.904  15.015  2.3442 -0.1390 -0.0833
 5853TIP3   OH238973   0.656   3.928   1.454 -0.5724  0.3046  0.4282
 5853TIP3    H138974   0.730   3.913   1.513 -0.6837  3.8763  1.7313
 5853TIP3    H238975   0.588   3.964   1.511 -2.4193 -0.4635 -1.1819
 5854TIP3   OH238976   3.199   5.443  16.012  0.3721 -0.0759  0.0480
 5854TIP3    H138977   3.194   5.509  15.943 -1.7784 -0.8091 -0.5766
 5854TIP3    H238978   3.240   5.488  16.085  1.9922  0.9612 -1.4098
 5855TIP3   OH238979   0.009   4.178  12.964 -0.0647  0.3665 -0.4898
 5855TIP3    H138980   0.076   4.246  12.973 -0.1405  0.3771 -0.0049
 5855TIP3    H238981  -0.045   4.187  13.042 -0.7120  0.4393 -0.9378
 5856TIP3   OH238982   6.413   3.914   4.137 -0.2083  0.1968  0.2748
 5856TIP3    H138983   6.364   3.954   4.208 -0.2629 -0.1145  0.4166
 5856TIP3    H238984   6.504   3.936   4.155 -0.4525  2.9163 -1.3389
 5857TIP3   OH238985   2.728   0.142  13.691 -0.2329 -0.2260  0.5750
 5857TIP3    H138986   2.789   0.073  13.664 -0.1082  0.4068 -0.8949
 5857TIP3    H238987   2.645   0.097  13.705 -0.8156 -0.4921 -2.7603
 5858TIP3   OH238988   1.827   2.475  13.109  0.1704  0.0699 -0.5617
 5858TIP3    H138989   1.796   2.396  13.065 -0.2762  0.3891 -0.8279
 5858TIP3    H238990   1.750   2.509  13.154  0.0545  1.0269 -1.4516
 5859TIP3   OH238991   2.194   2.528  16.808 -0.4554  0.6137  0.5911
 5859TIP3    H138992   2.226   2.613  16.780 -1.8268  1.1538  0.6104
 5859TIP3    H238993   2.172   2.540  16.901 -0.8582  0.3076  0.5407
 5860TIP3   OH238994   3.414   4.868  14.620  0.3997 -0.6894  0.3005
 5860TIP3    H138995   3.408   4.876  14.525  0.7808 -1.2651  0.2241
 5860TIP3    H238996   3.478   4.798  14.634 -0.5278 -1.4323  0.9680
 5861TIP3   OH238997   2.391   4.264  12.160  0.6729 -0.8376  0.0374
 5861TIP3    H138998   2.346   4.326  12.102  1.4740 -0.2062  0.0700
 5861TIP3    H238999   2.477   4.304  12.175  0.3297 -0.7514  2.0501
 5862TIP3   OH239000   2.455   1.288  17.037  0.7871 -0.4951  0.4183
 5862TIP3    H139001   2.361   1.301  17.045  0.3300  0.4713 -4.0115
 5862TIP3    H239002   2.464   1.208  16.986  2.5739 -2.0216  2.9418
 5863TIP3   OH239003   1.730   0.571   0.448 -0.5814  0.1573  0.0265
 5863TIP3    H139004   1.777   0.527   0.520  1.2970  0.2392 -1.0934
 5863TIP3    H239005   1.720   0.661   0.478 -0.7691 -0.0458  0.6085
 5864TIP3   OH239006   5.287   1.151  13.729  0.0750 -0.3652  0.1228
 5864TIP3    H139007   5.229   1.222  13.702  0.0965 -0.8794 -1.3608
 5864TIP3    H239008   5.347   1.192  13.790 -1.6596  0.2447  1.5119
 5865TIP3   OH239009   0.525   2.995   5.898  0.1534 -1.0659  0.4865
 5865TIP3    H139010   0.439   2.964   5.925 -0.1743  1.7900  3.3060
 5865TIP3    H239011   0.581   2.980   5.975  0.6860  2.1758  0.8678
 5866TIP3   OH239012   6.389   0.659  17.099  0.0119  0.1886  0.3389
 5866TIP3    H139013   6.403   0.718  17.173  0.5315  2.1147 -1.2022
 5866TIP3    H239014   6.364   0.717  17.027 -0.4840 -1.6159 -1.0038
 5867TIP3   OH239015   6.246   2.094   3.047 -0.2586 -1.0896 -0.0029
 5867TIP3    H139016   6.165   2.145   3.049 -0.4326 -1.1129 -2.9027
 5867TIP3    H239017   6.217   2.004   3.031  0.2878 -1.2893  0.1126
 5868TIP3   OH239018   4.816   0.364  13.548  0.4286 -0.0382  0.5365
 5868TIP3    H139019   4.733   0.324  13.571  1.1560 -1.1713  1.2993
 5868TIP3    H239020   4.857   0.302  13.488  0.3929  0.8900 -0.4769
 5869TIP3   OH239021   5.644   2.967  15.444  0.1734 -0.2743  0.3486
 5869TIP3    H139022   5.709   2.899  15.459 -0.8742 -2.1190 -2.6147
 5869TIP3    H239023   5.696   3.046  15.428  1.5544 -1.0590  0.7382
 5870TIP3   OH239024   0.278   0.016  16.548 -0.3802  0.0782 -0.3955
 5870TIP3    H139025   0.198  -0.036  16.555 -0.5431  0.1842 -1.3510
 5870TIP3    H239026   0.293   0.025  16.454  1.4925 -1.0363 -0.2552
 5871TIP3   OH239027   3.011   6.086  16.383 -0.2644  0.0773 -0.1013
 5871TIP3    H139028   2.952   6.157  16.359 -0.7018 -0.0670  0.5110
 5871TIP3    H239029   3.096   6.113  16.349 -0.9242 -0.3691 -2.2418
 5872TIP3   OH239030   4.610   2.532  12.771  0.0523 -0.3418  0.2380
 5872TIP3    H139031   4.656   2.464  12.820 -0.4511 -0.8803 -0.0229
 5872TIP3    H239032   4.635   2.516  12.680  2.5358  1.8157  0.3946
 5873TIP3   OH239033   0.450   5.864  12.783 -0.3969 -0.5616  0.3504
 5873TIP3    H139034   0.422   5.779  12.752  0.6665 -0.2417 -1.6254
 5873TIP3    H239035   0.390   5.926  12.743 -0.9590 -0.3306  1.5080
 5874TIP3   OH239036   5.718   5.179   1.371 -0.2007 -0.2175  0.4763
 5874TIP3    H139037   5.759   5.245   1.315  1.6056 -1.2803  0.4683
 5874TIP3    H239038   5.692   5.228   1.449  0.7703  0.5941  0.3266
 5875TIP3   OH239039   4.880   5.484   4.071  0.4364  0.9875  0.4547
 5875TIP3    H139040   4.838   5.439   3.998  2.3200  2.4883 -1.7191
 5875TIP3    H239041   4.854   5.435   4.149 -0.9227 -1.2637 -1.3158
 5876TIP3   OH239042   3.545   5.470  15.718 -0.3354 -0.0634  0.0822
 5876TIP3    H139043   3.459   5.438  15.690 -0.1857  0.7269 -1.3895
 5876TIP3    H239044   3.602   5.453  15.644  0.2775  1.3804  0.1909
 5877TIP3   OH239045   2.420   0.701  14.541  0.1002  0.0399 -0.1981
 5877TIP3    H139046   2.372   0.707  14.458  1.9454  0.7261 -1.2731
 5877TIP3    H239047   2.389   0.619  14.580 -0.8549 -0.2858 -1.5278
 5878TIP3   OH239048   2.797   0.949  13.379  0.3349 -0.7091 -0.0702
 5878TIP3    H139049   2.860   1.015  13.350 -0.4767  0.3006  0.3891
 5878TIP3    H239050   2.740   0.935  13.304 -1.7967  1.9402  0.9044
 5879TIP3   OH239051   0.534   2.155   1.425 -0.1070  0.6222  0.3023
 5879TIP3    H139052   0.487   2.076   1.398  0.0109  0.9370 -0.8743
 5879TIP3    H239053   0.589   2.127   1.498  0.5880 -0.5814 -0.6683
 5880TIP3   OH239054   1.178   1.131  15.963 -0.2935 -0.3065 -0.0739
 5880TIP3    H139055   1.156   1.224  15.962 -1.9921 -0.5587 -3.6756
 5880TIP3    H239056   1.134   1.096  16.040 -0.3493  1.6930  0.8601
 5881TIP3   OH239057   0.611   0.651  14.327  0.3249 -0.0817  0.4311
 5881TIP3    H139058   0.634   0.696  14.408 -0.9221 -0.7161  1.1647
 5881TIP3    H239059   0.605   0.559  14.351  1.5378 -0.5133 -0.7678
 5882TIP3   OH239060   5.703   5.374   4.806  0.3350  0.1819 -0.7639
 5882TIP3    H139061   5.689   5.459   4.846  0.3735 -0.9060  1.7644
 5882TIP3    H239062   5.798   5.363   4.808  0.2470 -0.5950  0.5814
 5883TIP3   OH239063   5.597   6.315   5.704 -0.0957 -0.0582 -0.1287
 5883TIP3    H139064   5.688   6.313   5.735  0.2642 -0.2240 -1.1326
 5883TIP3    H239065   5.572   6.223   5.698  0.7539 -0.1946 -2.7789
 5884TIP3   OH239066   0.652   2.035  12.569 -0.3536 -0.0370  0.5830
 5884TIP3    H139067   0.635   2.109  12.511 -1.2285 -0.6191  0.0853
 5884TIP3    H239068   0.574   1.981  12.563  0.6407 -1.4920  0.2082
 5885TIP3   OH239069   5.142   3.739  14.377  0.0628  0.4137  0.1957
 5885TIP3    H139070   5.056   3.776  14.358  0.6033  1.0184 -1.2449
 5885TIP3    H239071   5.143   3.655  14.331  0.0629  0.1572  0.6550
 5886TIP3   OH239072   5.122   1.430  11.593 -0.2688  0.0161  0.4975
 5886TIP3    H139073   5.175   1.437  11.672  0.3500 -0.0227  0.0927
 5886TIP3    H239074   5.155   1.499  11.535  0.1122 -0.7306 -0.1979
 5887TIP3   OH239075   2.240   4.503   5.278 -0.0888  0.2060  0.0176
 5887TIP3    H139076   2.197   4.587   5.294 -1.7356 -0.7085  0.5999
 5887TIP3    H239077   2.183   4.438   5.320  0.5539 -1.3110 -1.3323
 5888TIP3   OH239078   0.554   5.477   2.242  0.2237  0.1875 -0.2840
 5888TIP3    H139079   0.631   5.420   2.234  1.2143  1.5726 -0.9566
 5888TIP3    H239080   0.521   5.484   2.152 -0.2712  0.1565 -0.1033
 5889TIP3   OH239081   6.337   1.165   4.857  0.4739  0.2319  0.0172
 5889TIP3    H139082   6.331   1.260   4.866 -0.0184  0.0505  1.9154
 5889TIP3    H239083   6.260   1.132   4.902  0.0869 -1.0487 -1.5232
 5890TIP3   OH239084   4.568   1.822   0.992  0.4459  0.0617  0.0923
 5890TIP3    H139085   4.652   1.865   0.972 -0.0902  0.3577 -1.6860
 5890TIP3    H239086   4.508   1.854   0.925 -0.8660 -0.8744  0.7733
 5891TIP3   OH239087   6.744   2.100   4.444  0.7842 -0.4553 -0.0058
 5891TIP3    H139088   6.708   2.186   4.419  0.4195 -0.5629  0.1436
 5891TIP3    H239089   6.816   2.086   4.382  1.9866  0.7369  1.0514
 5892TIP3   OH239090   5.777   0.360   2.789 -0.2495  0.4697 -0.1728
 5892TIP3    H139091   5.760   0.332   2.879 -2.0279 -0.7286 -0.8322
 5892TIP3    H239092   5.821   0.445   2.798  1.7278 -0.6639  1.8296
 5893TIP3   OH239093   2.028   0.568   4.571  0.0442  0.0143 -0.3925
 5893TIP3    H139094   2.034   0.619   4.490  2.5988 -1.1448 -1.0321
 5893TIP3    H239095   2.083   0.615   4.633 -2.6758  1.4530  1.1250
 5894TIP3   OH239096   3.862   6.179   2.079 -0.0887  0.1606 -0.0982
 5894TIP3    H139097   3.778   6.146   2.114  0.0132 -1.1583 -1.0059
 5894TIP3    H239098   3.923   6.171   2.153 -0.1945 -1.2889 -0.1291
 5895TIP3   OH239099   0.080   5.206   4.372  0.0089  0.2287  0.5795
 5895TIP3    H139100   0.003   5.151   4.359  0.4428 -0.1062 -0.6578
 5895TIP3    H239101   0.121   5.172   4.452 -1.2304  0.5593  1.3733
 5896TIP3   OH239102   0.330   0.349  12.219  0.0816 -0.0092  0.1390
 5896TIP3    H139103   0.261   0.379  12.278  1.7264  1.5690  1.3613
 5896TIP3    H239104   0.328   0.412  12.147 -0.6095 -0.7566 -0.5079
 5897TIP3   OH239105   4.454   5.452  12.187 -0.1165  0.3356 -0.7289
 5897TIP3    H139106   4.449   5.490  12.275 -1.6241  0.8209 -0.9868
 5897TIP3    H239107   4.395   5.506  12.134 -1.6721 -1.7774 -1.3232
 5898TIP3   OH239108   3.212   4.554   5.520 -0.1431 -0.2857  0.0238
 5898TIP3    H139109   3.163   4.635   5.511  0.0549 -0.2583 -0.8783
 5898TIP3    H239110   3.293   4.579   5.564 -0.4482 -0.1443  0.5084
 5899TIP3   OH239111   4.006   6.133   1.696 -0.0292  0.9482 -0.1634
 5899TIP3    H139112   4.019   6.221   1.730  0.1170  0.8289  0.0858
 5899TIP3    H239113   4.094   6.103   1.672 -0.3550  2.0392 -3.1710
 5900TIP3   OH239114   4.457   3.343  13.360 -0.0669 -0.5933 -0.2500
 5900TIP3    H139115   4.482   3.364  13.450 -0.9226 -2.9905  0.6219
 5900TIP3    H239116   4.375   3.389  13.346  1.1207  1.5483 -0.6450
 5901TIP3   OH239117   4.842   4.907  11.858 -0.5545  0.5718 -0.0325
 5901TIP3    H139118   4.825   4.859  11.939  1.7974 -0.2683  0.0403
 5901TIP3    H239119   4.824   4.998  11.880 -1.9131  0.1283  0.8071
 5902TIP3   OH239120   5.208   0.472   3.964 -0.0552 -0.1274  0.6348
 5902TIP3    H139121   5.206   0.387   3.921  1.0186  0.0471  0.1836
 5902TIP3    H239122   5.218   0.535   3.892 -1.5403  0.4562  0.9018
 5903TIP3   OH239123   5.728   2.704  15.560  0.1594 -0.0233 -0.4888
 5903TIP3    H139124   5.676   2.688  15.638  0.2367 -0.2969 -0.4922
 5903TIP3    H239125   5.809   2.654  15.575  0.4693  0.4908 -0.4291
 5904TIP3   OH239126   2.344   1.312  10.621 -0.3119 -0.0818 -0.0765
 5904TIP3    H139127   2.268   1.259  10.599 -0.8531  0.5626  0.2025
 5904TIP3    H239128   2.336   1.328  10.715  0.3342 -0.2666  0.0143
 5905TIP3   OH239129   2.450   6.128   2.392 -0.4181  0.5703  0.6627
 5905TIP3    H139130   2.507   6.058   2.360  0.2437  1.2626  0.2789
 5905TIP3    H239131   2.503   6.208   2.383 -0.3211  0.8671  3.1784
 5906TIP3   OH239132   3.480   6.700   2.305  0.6577  0.4176 -0.9658
 5906TIP3    H139133   3.384   6.697   2.300  0.6687 -0.2953 -0.8931
 5906TIP3    H239134   3.507   6.723   2.217  0.4138  0.9702 -0.9055
 5907TIP3   OH239135   4.527   3.976  14.639  0.5501  0.4023 -0.0712
 5907TIP3    H139136   4.521   4.052  14.697 -3.4492  0.3417 -0.1289
 5907TIP3    H239137   4.572   4.009  14.561  1.6440  1.7931  1.0721
 5908TIP3   OH239138   6.243   4.598  17.184 -0.0479 -0.0858 -0.4216
 5908TIP3    H139139   6.330   4.605  17.223 -0.6140 -2.5072  1.4637
 5908TIP3    H239140   6.191   4.667  17.226  0.4699  0.1524 -0.1697
 5909TIP3   OH239141   6.218   2.127  10.938 -0.2949  0.1101 -0.3959
 5909TIP3    H139142   6.295   2.183  10.929  1.6702 -2.3281  0.0508
 5909TIP3    H239143   6.179   2.152  11.022  1.8168 -0.6016  0.8533
 5910TIP3   OH239144   5.883   4.317   5.192  0.1059  0.6261  0.1673
 5910TIP3    H139145   5.907   4.312   5.285  1.2108 -0.3819 -0.1397
 5910TIP3    H239146   5.789   4.298   5.190 -0.8482  4.3985  1.3953
 5911TIP3   OH239147   2.352   2.401  14.139 -0.2357 -0.1659 -0.1699
 5911TIP3    H139148   2.401   2.414  14.221 -0.2019  0.0472 -0.2239
 5911TIP3    H239149   2.270   2.449  14.152 -0.9837 -1.5510  0.4059
 5912TIP3   OH239150   2.384   4.344   0.216  0.1812  0.0581 -0.2533
 5912TIP3    H139151   2.384   4.326   0.122 -1.9619 -0.7664 -0.1458
 5912TIP3    H239152   2.435   4.273   0.254 -1.2301 -1.1542 -0.5710
 5913TIP3   OH239153   4.573   1.293  15.217  0.3285 -0.1000  0.0855
 5913TIP3    H139154   4.568   1.323  15.126  0.6291  0.3346  0.2125
 5913TIP3    H239155   4.574   1.198  15.210  1.8110 -0.0730 -0.4498
 5914TIP3   OH239156   3.209   1.628   2.734 -0.2048  0.3375 -0.0846
 5914TIP3    H139157   3.231   1.545   2.692 -0.2275  1.3211 -2.1526
 5914TIP3    H239158   3.292   1.659   2.770  0.1496  0.1825 -0.7515
 5915TIP3   OH239159   2.317   4.977   1.519 -0.0636 -0.3738  0.0555
 5915TIP3    H139160   2.223   4.982   1.535 -0.7134 -0.9507 -2.9900
 5915TIP3    H239161   2.328   4.893   1.474  2.0957 -0.8075  1.2912
 5916TIP3   OH239162   1.736   1.006   4.396 -0.3145 -0.4388 -0.6600
 5916TIP3    H139163   1.667   1.068   4.372 -0.5619 -0.4931 -0.1238
 5916TIP3    H239164   1.699   0.920   4.373  0.0730 -0.3814 -1.5051
 5917TIP3   OH239165   5.639   5.835   3.144  0.1913 -0.1506 -0.3956
 5917TIP3    H139166   5.580   5.840   3.068  0.8475  2.5089 -0.8315
 5917TIP3    H239167   5.723   5.810   3.106 -0.4495 -3.7804  0.2068
 5918TIP3   OH239168   6.336   4.717  13.539 -0.0532  0.0324 -0.3138
 5918TIP3    H139169   6.359   4.687  13.627 -0.2538  1.1299  0.1317
 5918TIP3    H239170   6.401   4.784  13.518  0.4178 -0.7149 -1.3055
 5919TIP3   OH239171   5.669   1.376  15.206 -0.4316 -0.6577  0.6928
 5919TIP3    H139172   5.735   1.401  15.271 -0.7216 -0.2419  0.8260
 5919TIP3    H239173   5.718   1.369  15.124 -0.7420  3.0058  0.0344
 5920TIP3   OH239174   2.060   0.592  14.152  0.2660 -0.8287 -0.0495
 5920TIP3    H139175   1.966   0.602  14.137  0.3636 -1.9672 -1.6452
 5920TIP3    H239176   2.067   0.515  14.209  0.2229 -0.3460  0.6258
 5921TIP3   OH239177   2.388   6.365  14.537  0.1123  0.3401 -1.0567
 5921TIP3    H139178   2.449   6.403  14.600  0.0847 -1.0137 -0.1717
 5921TIP3    H239179   2.402   6.271  14.544 -1.1235  0.0737 -1.8299
 5922TIP3   OH239180   1.918   1.132  16.769  0.2631 -0.3999 -0.1680
 5922TIP3    H139181   1.860   1.155  16.696  0.9619  0.2821 -0.5352
 5922TIP3    H239182   1.863   1.083  16.830 -0.4994 -0.4205 -0.8535
 5923TIP3   OH239183   4.517   4.146   1.717  0.2474 -0.1071 -0.1036
 5923TIP3    H139184   4.447   4.092   1.680  0.3729  0.9184 -1.9381
 5923TIP3    H239185   4.516   4.226   1.665 -0.3150  1.9926  2.8390
 5924TIP3   OH239186   0.912   1.335  15.430  0.2107  0.1320 -0.1093
 5924TIP3    H139187   0.908   1.317  15.524 -0.8016  1.6164  0.1537
 5924TIP3    H239188   0.847   1.277  15.392 -3.3225  3.1711  0.7774
 5925TIP3   OH239189   3.018   6.116   3.401  0.3206 -0.0739  0.5617
 5925TIP3    H139190   3.106   6.125   3.436  0.6581 -0.4515 -0.1577
 5925TIP3    H239191   2.963   6.170   3.457  1.1854  1.0436  0.3497
 5926TIP3   OH239192   1.121   5.592  14.119  0.0532  0.2253  0.0090
 5926TIP3    H139193   1.201   5.582  14.171  1.5780 -1.9957 -2.4644
 5926TIP3    H239194   1.123   5.683  14.090  0.8651  0.6103  1.1775
 5927TIP3   OH239195   6.255   2.425   0.793 -0.8810 -0.3971 -0.3587
 5927TIP3    H139196   6.197   2.393   0.725 -2.5109 -0.5248  1.0342
 5927TIP3    H239197   6.262   2.353   0.856 -2.7942  1.0520  1.6807
 5928TIP3   OH239198   0.174   5.556  12.238 -0.0627 -0.0434  0.0918
 5928TIP3    H139199   0.269   5.545  12.234  0.2904  2.6238 -0.1217
 5928TIP3    H239200   0.159   5.646  12.212 -2.7218 -0.5254 -0.2936
 5929TIP3   OH239201   6.717   2.078  15.402  0.0626  0.6378 -0.6548
 5929TIP3    H139202   6.773   2.075  15.325 -0.0689 -0.3282 -0.7198
 5929TIP3    H239203   6.758   2.018  15.464 -1.3074 -0.6884 -0.9915
 5930TIP3   OH239204   0.439   2.804   4.500  0.0371  0.1260 -0.2592
 5930TIP3    H139205   0.471   2.888   4.533  2.6798 -0.3368 -1.3758
 5930TIP3    H239206   0.477   2.739   4.559 -1.9678 -0.3437  0.5799
 5931TIP3   OH239207   1.054   5.200   5.684  0.4183  0.1508 -0.2985
 5931TIP3    H139208   0.970   5.227   5.722  1.0973  0.0864  1.3103
 5931TIP3    H239209   1.072   5.266   5.617  0.1177  1.4093  0.8238
 5932TIP3   OH239210   0.075   3.049   0.835 -0.6764  0.1025 -0.9034
 5932TIP3    H139211   0.112   3.057   0.923  0.1760  0.7979 -1.3110
 5932TIP3    H239212   0.035   2.962   0.834  0.4503 -0.4465 -0.2537
 5933TIP3   OH239213   5.143   2.813  13.975 -0.1640 -0.0616 -0.2391
 5933TIP3    H139214   5.198   2.793  14.050  1.2552  0.5736 -1.0784
 5933TIP3    H239215   5.171   2.900  13.946 -1.3383  0.1161 -0.9260
 5934TIP3   OH239216   1.530   3.339   6.364  0.3912  0.0635  0.2605
 5934TIP3    H139217   1.604   3.280   6.382  1.1350  1.4221  1.8940
 5934TIP3    H239218   1.567   3.427   6.370 -0.9268  0.7683 -1.0910
 5935TIP3   OH239219   2.271   1.237   2.101 -0.1601  0.2961 -0.1390
 5935TIP3    H139220   2.222   1.236   2.183 -0.1208 -1.4212 -0.1052
 5935TIP3    H239221   2.325   1.158   2.104  1.3836  1.2609 -0.9231
 5936TIP3   OH239222   0.196   3.299   4.747 -0.3476 -0.3059 -0.1989
 5936TIP3    H139223   0.146   3.222   4.773  0.2677 -0.5199  0.3678
 5936TIP3    H239224   0.131   3.370   4.746 -0.7670 -0.6796 -0.0110
 5937TIP3   OH239225   2.736   4.019   4.462 -0.1167  0.3578  0.2556
 5937TIP3    H139226   2.757   4.093   4.406  0.6850  0.2405  0.3919
 5937TIP3    H239227   2.664   4.050   4.517 -0.2301  0.8072 -0.1393
 5938TIP3   OH239228   2.111   2.867   2.621 -0.1566  0.2144  0.5225
 5938TIP3    H139229   2.089   2.774   2.623 -2.5943  0.7202  1.7800
 5938TIP3    H239230   2.120   2.888   2.528 -0.1163 -1.1435  0.2020
 5939TIP3   OH239231   1.674   4.065  11.351  0.0515 -0.3308 -0.3886
 5939TIP3    H139232   1.653   4.079  11.443 -0.9481 -1.1070 -0.4804
 5939TIP3    H239233   1.639   3.978  11.331  2.3104 -1.1854 -0.9146
 5940TIP3   OH239234   0.882   0.708  17.230 -0.2719 -0.6825  0.0010
 5940TIP3    H139235   0.804   0.688  17.179  0.4769 -1.3094 -0.9350
 5940TIP3    H239236   0.930   0.772  17.177  1.1844 -2.3584 -0.8015
 5941TIP3   OH239237   0.286   4.862   0.194  0.0204 -0.1368  0.7762
 5941TIP3    H139238   0.290   4.852   0.289 -0.1285  1.5608  0.9981
 5941TIP3    H239239   0.237   4.944   0.181 -0.4940 -0.6587 -0.7819
 5942TIP3   OH239240   1.100   6.175  15.557  0.8470 -0.1855  0.0575
 5942TIP3    H139241   1.045   6.238  15.510 -1.0462 -1.2171  0.7517
 5942TIP3    H239242   1.082   6.092  15.514  0.8256 -0.7651  1.1607
 5943TIP3   OH239243   0.286   2.867  12.636  0.1119 -0.1310  0.3948
 5943TIP3    H139244   0.381   2.874  12.644  0.1516  4.5811 -0.8809
 5943TIP3    H239245   0.253   2.897  12.721 -0.2118 -0.3395  0.3431
 5944TIP3   OH239246   1.622   5.742  16.934  0.3194 -0.0208  0.1878
 5944TIP3    H139247   1.545   5.790  16.903 -1.2030 -0.5074  2.8161
 5944TIP3    H239248   1.593   5.651  16.937  0.6461 -0.1081  1.9674
 5945TIP3   OH239249   1.118   3.220   3.756  0.2339  0.0468 -0.9691
 5945TIP3    H139250   1.165   3.264   3.685 -0.3050  0.6123 -0.9806
 5945TIP3    H239251   1.154   3.258   3.836  0.6243 -0.3715 -0.9398
 5946TIP3   OH239252   5.091   2.486   0.657 -0.0028 -0.3106  0.0507
 5946TIP3    H139253   5.009   2.438   0.669  0.0380 -0.8295 -1.4845
 5946TIP3    H239254   5.084   2.561   0.716 -0.6029 -1.5287  1.5887
 5947TIP3   OH239255   1.494   3.227  14.119 -0.0200 -0.0605  0.2987
 5947TIP3    H139256   1.414   3.180  14.139 -0.1736  0.2455  0.4156
 5947TIP3    H239257   1.465   3.314  14.090  0.1528 -0.6599 -1.8806
 5948TIP3   OH239258   1.489   4.481   4.791 -0.0986  0.1897  0.7686
 5948TIP3    H139259   1.437   4.548   4.834  1.6774  2.2496 -0.1159
 5948TIP3    H239260   1.575   4.487   4.832  1.2790  1.3351 -2.0323
 5949TIP3   OH239261   4.447   5.215  12.838  0.5276 -0.3227  0.2926
 5949TIP3    H139262   4.506   5.192  12.909  0.3738 -0.2046  0.4582
 5949TIP3    H239263   4.359   5.197  12.872  0.5163 -1.7144 -0.3884
 5950TIP3   OH239264   6.113   2.119  16.378  0.0364 -0.2168 -0.5005
 5950TIP3    H139265   6.133   2.209  16.405 -0.1942 -0.5019  0.6868
 5950TIP3    H239266   6.090   2.075  16.459 -0.1383 -1.2818 -1.1160
 5951TIP3   OH239267   1.166   3.390  13.867 -0.0869  0.4528 -0.2633
 5951TIP3    H139268   1.118   3.330  13.810  0.0718 -0.3203  0.3893
 5951TIP3    H239269   1.201   3.457  13.809 -1.3091  0.5982 -0.8543
 5952TIP3   OH239270   5.142   0.479  11.294 -0.3422  0.1647 -0.7255
 5952TIP3    H139271   5.059   0.520  11.272 -0.5627  0.1206  0.0026
 5952TIP3    H239272   5.205   0.551  11.296 -0.6073  0.3884 -0.0744
 5953TIP3   OH239273   6.683   5.311   4.094 -0.5650 -0.5114  0.1511
 5953TIP3    H139274   6.723   5.394   4.068 -0.2480 -0.9828 -0.9114
 5953TIP3    H239275   6.678   5.260   4.013 -1.2782 -1.3162  0.6829
 5954TIP3   OH239276   3.544   6.300  16.091 -0.3406  0.1837  0.0074
 5954TIP3    H139277   3.562   6.290  15.998 -2.1984 -2.3906 -0.1883
 5954TIP3    H239278   3.623   6.268  16.135 -0.4105 -1.0564 -0.7253
 5955TIP3   OH239279   4.122   5.745  14.327  0.1854  0.0915  0.2062
 5955TIP3    H139280   4.055   5.684  14.297 -0.3682  0.7073  0.1612
 5955TIP3    H239281   4.201   5.691  14.337 -0.2193 -0.5719 -0.0846
 5956TIP3   OH239282   4.057   0.536   2.463 -0.0041  0.0979 -0.0782
 5956TIP3    H139283   4.022   0.587   2.391 -0.3172  0.1896  0.1362
 5956TIP3    H239284   4.089   0.600   2.526 -3.0680  0.2171  1.5735
 5957TIP3   OH239285   5.755   4.103  15.599 -0.1081 -0.3253 -0.1555
 5957TIP3    H139286   5.785   4.081  15.687  1.0966 -0.7414 -0.6487
 5957TIP3    H239287   5.733   4.019  15.559 -0.4876 -0.1552 -0.3125
 5958TIP3   OH239288   0.706   2.588  17.124 -0.3018  0.2320 -0.2802
 5958TIP3    H139289   0.714   2.525  17.052  0.6558  0.9545 -0.8334
 5958TIP3    H239290   0.796   2.606  17.149 -0.6207 -0.2602  1.3590
 5959TIP3   OH239291   1.907   1.888   4.746  0.2609  0.3790  0.0740
 5959TIP3    H139292   1.996   1.910   4.775 -0.1981  1.0586  1.0302
 5959TIP3    H239293   1.854   1.895   4.825 -0.8751  1.2680 -0.7302
 5960TIP3   OH239294   4.862   1.644   0.614  0.1260 -0.6920 -0.4818
 5960TIP3    H139295   4.901   1.671   0.697 -0.4107 -1.4130  0.0215
 5960TIP3    H239296   4.804   1.572   0.637 -2.0015  0.7185 -1.0794
 5961TIP3   OH239297   5.195   4.314  11.310 -0.3815 -0.0844  0.0331
 5961TIP3    H139298   5.278   4.286  11.271 -0.4177 -0.3048  0.1126
 5961TIP3    H239299   5.191   4.408  11.293 -1.0066 -0.3801 -1.6520
 5962TIP3   OH239300   5.206   5.114  15.508  0.0988  0.1904 -0.1561
 5962TIP3    H139301   5.265   5.148  15.440  0.4245  1.9145  0.9458
 5962TIP3    H239302   5.263   5.098  15.583 -0.9535  3.4631  1.4962
 5963TIP3   OH239303   4.632   3.463   1.836 -0.3223 -0.0832 -0.5817
 5963TIP3    H139304   4.708   3.436   1.784 -0.8086  1.2441 -2.0544
 5963TIP3    H239305   4.643   3.558   1.847 -1.4218  0.0208 -0.2638
 5964TIP3   OH239306   4.541   4.343  11.012 -0.2563 -0.3579  0.4810
 5964TIP3    H139307   4.473   4.410  11.021 -1.3577 -1.3764 -0.0771
 5964TIP3    H239308   4.549   4.331  10.918  0.7057 -0.2615  0.5443
 5965TIP3   OH239309   1.405   6.108   4.552 -0.0629 -0.1668  0.1363
 5965TIP3    H139310   1.323   6.060   4.546 -0.7506  1.0918 -0.8390
 5965TIP3    H239311   1.381   6.200   4.544  1.3366  0.3102  0.9291
 5966TIP3   OH239312   0.132   5.880   3.370  0.6551  0.2427 -0.0172
 5966TIP3    H139313   0.225   5.903   3.357  0.4987  0.6521 -0.4327
 5966TIP3    H239314   0.129   5.845   3.459  1.6718 -2.1416 -0.8255
 5967TIP3   OH239315   1.994   3.625   4.885  0.7337  0.0871 -0.3076
 5967TIP3    H139316   1.980   3.634   4.790 -0.7595  0.2704 -0.0905
 5967TIP3    H239317   1.934   3.688   4.924  1.0545 -0.2668  0.7820
 5968TIP3   OH239318   5.330   4.574   2.885 -0.7942  0.3600 -0.3013
 5968TIP3    H139319   5.304   4.616   2.803 -1.3694  0.5023 -0.0534
 5968TIP3    H239320   5.412   4.529   2.865 -1.7012 -0.8901 -1.3710
 5969TIP3   OH239321   2.699   6.289   5.318  0.5013 -0.1290 -0.3549
 5969TIP3    H139322   2.626   6.229   5.300  0.9878 -0.7000 -0.4501
 5969TIP3    H239323   2.776   6.244   5.284  0.7811  0.8768 -1.0911
 5970TIP3   OH239324   4.894   0.282  12.074  0.0051 -0.0443  0.9502
 5970TIP3    H139325   4.946   0.204  12.093  1.6370  1.1438  1.5258
 5970TIP3    H239326   4.844   0.299  12.154 -0.8959 -0.8763  0.5820
 5971TIP3   OH239327   2.635   2.663  15.516 -0.2717  0.2434 -0.2710
 5971TIP3    H139328   2.550   2.695  15.546 -0.3186  0.3684 -0.5302
 5971TIP3    H239329   2.697   2.696  15.581 -0.2889  1.0726 -0.6604
 5972TIP3   OH239330   3.741   3.351  15.118 -0.2312 -0.5710 -0.0600
 5972TIP3    H139331   3.687   3.413  15.167 -0.9229 -0.1876 -1.2474
 5972TIP3    H239332   3.812   3.329  15.177  1.2128  2.9273 -0.2330
 5973TIP3   OH239333   4.458   1.172  13.296 -0.1182  0.9834 -0.4043
 5973TIP3    H139334   4.434   1.225  13.372 -0.1756  0.2539  0.1050
 5973TIP3    H239335   4.375   1.132  13.268  0.5845 -3.3557  2.7509
 5974TIP3   OH239336   0.364   6.203   4.432 -0.1896 -0.3258 -0.2254
 5974TIP3    H139337   0.449   6.246   4.435 -0.7633  0.8823 -0.8659
 5974TIP3    H239338   0.366   6.143   4.507  0.8937  0.2991  0.2787
 5975TIP3   OH239339   0.061   6.051   2.271  0.2624  0.5210 -0.2549
 5975TIP3    H139340   0.084   5.959   2.264 -2.9131 -0.2543 -2.2817
 5975TIP3    H239341   0.122   6.096   2.212  0.3207 -0.6002 -1.0747
 5976TIP3   OH239342   1.559   5.452   4.185 -0.2502  0.1312 -0.2709
 5976TIP3    H139343   1.558   5.548   4.183 -2.3956  0.2346  1.3802
 5976TIP3    H239344   1.591   5.430   4.273  1.0156 -0.7279 -0.9133
 5977TIP3   OH239345   6.702   2.156   0.400  0.1643 -0.3344  0.0099
 5977TIP3    H139346   6.658   2.185   0.320  0.9010 -1.0296 -0.6629
 5977TIP3    H239347   6.709   2.061   0.391 -1.7533 -0.7567  1.9475
 5978TIP3   OH239348   6.198   0.397  12.248  0.2578 -0.4669  0.3050
 5978TIP3    H139349   6.287   0.423  12.269  0.6020 -1.5958  0.2963
 5978TIP3    H239350   6.201   0.301  12.245 -1.0050 -0.5250  0.5309
 5979TIP3   OH239351   2.185   2.554  15.087  0.2438 -0.5322  0.2612
 5979TIP3    H139352   2.213   2.482  15.144 -0.6055 -0.4922  0.7495
 5979TIP3    H239353   2.125   2.513  15.025  0.4831 -0.4153 -0.0448
 5980TIP3   OH239354   2.370   4.194   2.818  0.2670  0.1231 -0.1427
 5980TIP3    H139355   2.290   4.224   2.773 -0.8853 -1.8570  0.4952
 5980TIP3    H239356   2.346   4.111   2.857  2.2730  0.1481  1.2705
 5981TIP3   OH239357   1.662   2.727   4.740  0.1876 -0.2694  0.1070
 5981TIP3    H139358   1.657   2.702   4.832 -0.9592 -0.0712  0.1072
 5981TIP3    H239359   1.648   2.822   4.740  2.0794  0.0564 -0.1165
 5982TIP3   OH239360   0.510   0.157   5.104  0.1922 -0.4852 -0.3130
 5982TIP3    H139361   0.542   0.138   5.015  0.8464  0.4745 -0.3067
 5982TIP3    H239362   0.492   0.251   5.102 -1.2903 -0.7318  0.1271
 5983TIP3   OH239363   6.268   1.320  11.106  0.3934 -0.2131  0.1437
 5983TIP3    H139364   6.356   1.286  11.123  1.0578  2.0462  1.6128
 5983TIP3    H239365   6.273   1.413  11.129 -1.1477  1.1640 -4.1078
 5984TIP3   OH239366   5.773   3.047  14.716 -0.3542  0.8895 -0.3909
 5984TIP3    H139367   5.786   3.039  14.810  0.1496  1.8228 -0.3706
 5984TIP3    H239368   5.692   3.098  14.708  0.1519  1.7058 -0.4400
 5985TIP3   OH239369   3.703   0.657   4.577  0.5800 -0.3208 -0.4333
 5985TIP3    H139370   3.607   0.660   4.576  0.5853 -0.1149 -1.3151
 5985TIP3    H239371   3.725   0.573   4.538  0.7573 -0.6893  0.4432
 5986TIP3   OH239372   1.312   3.878  11.968  0.4891  0.4220  0.1125
 5986TIP3    H139373   1.242   3.829  11.924 -0.4884  1.9333 -0.0785
 5986TIP3    H239374   1.383   3.814  11.978 -0.9370 -1.1764  0.4030
 5987TIP3   OH239375   6.658   1.240   2.640 -0.0909 -0.5157  0.2162
 5987TIP3    H139376   6.675   1.180   2.713 -0.9212 -0.8073  0.1816
 5987TIP3    H239377   6.736   1.295   2.636  0.6792 -1.5803  0.2661
 5988TIP3   OH239378   2.404   3.080   5.631 -0.6625  0.2781  0.2459
 5988TIP3    H139379   2.498   3.091   5.649 -0.4167 -1.8439  0.5864
 5988TIP3    H239380   2.367   3.167   5.643  0.9288  0.7660  2.3360
 5989TIP3   OH239381   1.075   1.945   2.154  0.1813  0.8413 -0.3148
 5989TIP3    H139382   1.071   2.026   2.204 -1.6184  0.2182  0.6649
 5989TIP3    H239383   1.143   1.893   2.197 -1.2942  0.3381  1.5567
 5990TIP3   OH239384   2.045   0.585   5.332 -0.4762  0.0205  0.4350
 5990TIP3    H139385   2.105   0.529   5.282 -1.8734 -0.0723 -1.2559
 5990TIP3    H239386   2.010   0.529   5.400  1.3611  0.0997  1.5029
 5991TIP3   OH239387   4.561   5.950  14.467  0.4566 -0.1372 -0.5514
 5991TIP3    H139388   4.507   5.976  14.393 -0.4210 -1.4955 -0.4223
 5991TIP3    H239389   4.629   6.016  14.471  0.4579  0.0357 -2.4861
 5992TIP3   OH239390   3.882   4.976   5.889 -0.2990  0.3080 -0.1348
 5992TIP3    H139391   3.788   4.986   5.905 -0.1424 -0.6607  1.6395
 5992TIP3    H239392   3.918   4.945   5.972  1.8290  1.8860 -0.3564
 5993TIP3   OH239393   0.094   1.414  13.892  0.0490 -0.7497 -0.3326
 5993TIP3    H139394   0.109   1.506  13.912 -1.1437 -0.6318  0.0722
 5993TIP3    H239395   0.181   1.374  13.898  0.3475  0.0549  0.9980
 5994TIP3   OH239396   2.073   0.341  14.272 -0.5620 -0.3976  0.1484
 5994TIP3    H139397   2.004   0.311  14.331 -2.8457 -0.7341 -2.4915
 5994TIP3    H239398   2.057   0.293  14.190  2.6179 -0.1975 -0.7139
 5995TIP3   OH239399   5.176   1.723   3.665  0.6104  0.0291 -0.5465
 5995TIP3    H139400   5.249   1.755   3.718  0.1189 -0.2169  0.3170
 5995TIP3    H239401   5.149   1.642   3.709 -0.5049  0.3854 -0.5300
 5996TIP3   OH239402   5.870   3.483   4.037  0.1105 -0.0898  0.1767
 5996TIP3    H139403   5.797   3.511   4.092 -0.0880 -1.3379  0.5849
 5996TIP3    H239404   5.926   3.433   4.095  0.4472 -0.5325 -0.5147
 5997TIP3   OH239405   5.165   1.914   1.334 -0.0456  0.3983 -0.5354
 5997TIP3    H139406   5.116   1.839   1.299  0.5708  0.6326 -2.0045
 5997TIP3    H239407   5.216   1.878   1.406  0.6912 -0.7578 -1.5921
 5998TIP3   OH239408   4.703   5.171  14.927 -0.3419 -0.4213  0.1510
 5998TIP3    H139409   4.625   5.220  14.901 -1.5694 -2.0587  0.5905
 5998TIP3    H239410   4.713   5.191  15.020 -0.0509  0.0114  0.0306
 5999TIP3   OH239411   1.382   3.051   3.014 -0.1941  0.5346 -0.6777
 5999TIP3    H139412   1.317   3.016   3.075 -0.0560 -0.9497 -1.3298
 5999TIP3    H239413   1.411   3.133   3.054  0.9818 -1.0806  2.0418
 6000TIP3   OH239414   3.424   0.480   3.408  0.2999  0.4194  0.1380
 6000TIP3    H139415   3.340   0.483   3.453  1.8257 -1.6032  3.4458
 6000TIP3    H239416   3.480   0.540   3.457  1.6774 -0.7874  0.1007
 6001TIP3   OH239417   2.942   6.445   5.249  0.0324 -0.3767 -0.1268
 6001TIP3    H139418   2.945   6.430   5.154  1.1009 -0.4400 -0.0946
 6001TIP3    H239419   2.865   6.501   5.262  0.1551  0.0285 -1.0875
 6002TIP3   OH239420   3.883   6.278   0.847 -0.4966 -0.5533  0.0352
 6002TIP3    H139421   3.889   6.328   0.765  0.2384  0.3125  0.6027
 6002TIP3    H239422   3.872   6.187   0.819  0.9464 -0.4142 -1.0393
 6003TIP3   OH239423   1.562   3.391   5.718 -0.0785 -0.0001 -0.1579
 6003TIP3    H139424   1.481   3.373   5.766 -0.3818  1.6488  0.0127
 6003TIP3    H239425   1.532   3.423   5.633  0.4369 -0.9876 -0.7314
 6004TIP3   OH239426   3.449   4.015  15.184 -0.3733 -0.3860  0.1928
 6004TIP3    H139427   3.405   3.944  15.230  1.4378 -0.7914  1.3733
 6004TIP3    H239428   3.461   4.083  15.250  2.5768 -1.1070  0.5449
 6005TIP3   OH239429   1.741   3.195   5.769 -0.1759  0.3268 -1.1554
 6005TIP3    H139430   1.801   3.216   5.841  1.1132 -0.5202 -1.9369
 6005TIP3    H239431   1.689   3.275   5.758 -1.9581 -0.2024  2.1045
 6006TIP3   OH239432   0.657   1.955  13.980 -0.0346 -0.4062  0.0346
 6006TIP3    H139433   0.709   2.030  13.950  0.3089 -0.7518 -0.2366
 6006TIP3    H239434   0.718   1.905  14.034 -0.2396 -0.5448  0.1376
 6007TIP3   OH239435   1.344   2.803   5.740  0.1122 -0.5090  0.0936
 6007TIP3    H139436   1.438   2.822   5.732  0.5185 -2.2368  0.2398
 6007TIP3    H239437   1.329   2.732   5.678 -1.4380  0.6999 -0.9556
 6008TIP3   OH239438   4.379   0.772  13.917 -0.1029  0.5107 -0.0179
 6008TIP3    H139439   4.422   0.762  13.832 -0.6307 -0.3383 -0.1946
 6008TIP3    H239440   4.295   0.727  13.908  1.1974 -2.6339  1.9741
 6009TIP3   OH239441   5.068   2.610   0.240  0.4856 -0.0256 -0.0145
 6009TIP3    H139442   5.112   2.631   0.157 -0.3253 -0.1794 -0.5041
 6009TIP3    H239443   4.991   2.668   0.241  0.0121 -0.6490  0.2029
 6010TIP3   OH239444   2.418   3.365  16.122  0.2250 -0.1404 -0.3973
 6010TIP3    H139445   2.431   3.363  16.217  1.0712  0.0321 -0.4997
 6010TIP3    H239446   2.474   3.437  16.093 -0.3940  0.1118 -0.9783
 6011TIP3   OH239447   3.189   5.328  12.924 -0.3162  0.5166  0.6186
 6011TIP3    H139448   3.099   5.311  12.953  0.0003 -0.0644  1.2859
 6011TIP3    H239449   3.244   5.298  12.996  0.5316 -1.6203 -0.8277
 6012TIP3   OH239450   3.019   5.104  13.544 -0.2927  0.1899  0.2984
 6012TIP3    H139451   3.009   5.075  13.454  0.2167  0.6925  0.0782
 6012TIP3    H239452   2.929   5.108  13.578 -0.4324 -0.8062  0.0834
 6013TIP3   OH239453   6.342   1.871  13.343  0.1595 -0.1579  0.4266
 6013TIP3    H139454   6.304   1.894  13.258 -0.7762 -1.1902  0.5358
 6013TIP3    H239455   6.434   1.895  13.336  0.1229 -0.3348 -0.9251
 6014TIP3   OH239456   2.470   3.759   0.187 -0.0134  0.0109 -0.0330
 6014TIP3    H139457   2.550   3.811   0.182 -1.4542  2.3017 -1.3282
 6014TIP3    H239458   2.425   3.792   0.265 -0.0536 -0.7041  0.2500
 6015TIP3   OH239459   2.963   1.869   3.285  0.5928 -0.4446  0.2965
 6015TIP3    H139460   2.869   1.888   3.278  0.6521 -0.2169  0.1275
 6015TIP3    H239461   2.966   1.784   3.329  0.0934 -2.8304 -3.6734
 6016TIP3   OH239462   6.649   4.692  14.721  0.3938  0.2780 -0.4367
 6016TIP3    H139463   6.569   4.743  14.713 -0.1748 -0.1531  1.9127
 6016TIP3    H239464   6.692   4.726  14.799  2.1811  0.0190 -1.2421
 6017TIP3   OH239465   6.176   0.604  13.179  0.5790 -0.6220 -0.2221
 6017TIP3    H139466   6.131   0.520  13.179 -0.4201 -0.1156  0.6787
 6017TIP3    H239467   6.110   0.667  13.210  1.9804  0.0850  1.5165
 6018TIP3   OH239468   3.189   2.029  14.389  0.1944  0.0691 -0.1218
 6018TIP3    H139469   3.125   2.100  14.391  3.0445  2.8816  0.6157
 6018TIP3    H239470   3.175   1.987  14.304 -2.3227  0.7595 -0.1317
 6019TIP3   OH239471   1.789   3.756   5.119  0.0102  0.1429 -0.2253
 6019TIP3    H139472   1.730   3.731   5.190 -0.3056  1.0110 -0.1778
 6019TIP3    H239473   1.743   3.728   5.039 -0.3729  0.6058 -0.1751
 6020TIP3   OH239474   2.997   3.338   4.793  0.1834 -1.0517  0.1820
 6020TIP3    H139475   3.000   3.255   4.841  1.5126 -0.6113  0.9221
 6020TIP3    H239476   2.921   3.330   4.736  1.9501 -4.0952 -2.0911
 6021TIP3   OH239477   6.141   3.431   5.688 -0.3818  0.0072 -0.0146
 6021TIP3    H139478   6.110   3.499   5.748  1.3814 -0.3229  1.3499
 6021TIP3    H239479   6.114   3.349   5.729 -0.6865 -0.1960 -0.6023
 6022TIP3   OH239480   6.761   4.224  11.610  0.5533  0.0891  0.3829
 6022TIP3    H139481   6.750   4.129  11.601  1.2794 -0.0688  1.0592
 6022TIP3    H239482   6.820   4.234  11.684  1.0295  1.0533 -0.1197
 6023TIP3   OH239483   6.492   6.259   6.214 -0.1955 -0.2333  0.3152
 6023TIP3    H139484   6.573   6.211   6.198 -0.1845 -0.5732  1.3154
 6023TIP3    H239485   6.502   6.294   6.303 -0.5858  0.8511 -0.0477
 6024TIP3   OH239486   3.505   3.958   2.535  0.7826 -0.7251  0.1088
 6024TIP3    H139487   3.425   4.007   2.552 -0.3483 -2.9069  1.4269
 6024TIP3    H239488   3.559   3.971   2.613  0.1517 -2.1149  0.8094
 6025TIP3   OH239489   5.234   0.497  15.106  0.6528  0.3896 -0.8255
 6025TIP3    H139490   5.192   0.495  15.191  1.8059 -0.4234 -0.2504
 6025TIP3    H239491   5.289   0.576  15.107 -0.7412  1.4218 -1.5570
 6026TIP3   OH239492   2.320   6.720  14.502  0.0575  0.0710  0.7136
 6026TIP3    H139493   2.257   6.711  14.430 -0.3476  1.2091  0.9031
 6026TIP3    H239494   2.278   6.676  14.576 -0.8749  1.3934  1.0264
 6027TIP3   OH239495   1.401   6.014  15.412  0.1483  0.2827 -0.7254
 6027TIP3    H139496   1.348   5.952  15.363  0.4543  0.9754 -1.9607
 6027TIP3    H239497   1.441   5.961  15.482 -0.7505 -0.5950 -0.8529
 6028TIP3   OH239498   4.424   3.411  11.598  0.2340 -0.1185  0.1844
 6028TIP3    H139499   4.506   3.384  11.557 -0.5733 -1.5846 -0.5206
 6028TIP3    H239500   4.358   3.403  11.529 -0.9090 -1.3193  1.3508
 6029TIP3   OH239501   5.922   4.956   0.561 -0.0583 -0.1487  0.0840
 6029TIP3    H139502   6.000   4.909   0.590 -1.0271 -1.3346  0.9028
 6029TIP3    H239503   5.872   4.972   0.642 -0.4722  0.9558 -0.3695
 6030TIP3   OH239504   3.772   6.734  13.409  0.3652 -0.3542 -0.0513
 6030TIP3    H139505   3.760   6.810  13.465 -1.6199 -0.6251 -0.0554
 6030TIP3    H239506   3.707   6.744  13.339  1.5856 -0.9369 -1.3289
 6031TIP3   OH239507   4.792   2.650   5.536  0.0141 -0.2612  0.1824
 6031TIP3    H139508   4.795   2.592   5.460 -0.4885 -0.1684  0.0917
 6031TIP3    H239509   4.822   2.595   5.608 -2.4274 -1.3157  0.5065
 6032TIP3   OH239510   2.317   2.073  16.449  0.1456 -0.1235 -0.3266
 6032TIP3    H139511   2.270   2.124  16.514  0.7938  1.1559 -0.8192
 6032TIP3    H239512   2.268   1.992  16.441 -1.4344  0.7884 -0.1523
 6033TIP3   OH239513   0.221   2.875   3.867  0.4773 -0.2904 -0.2973
 6033TIP3    H139514   0.277   2.879   3.945 -0.1133 -0.1410  0.1246
 6033TIP3    H239515   0.213   2.966   3.838 -0.5887 -0.1500  0.3998
 6034TIP3   OH239516   5.787   1.468  14.433  0.0181  0.4706 -0.5692
 6034TIP3    H139517   5.799   1.500  14.522  0.4656  1.0795 -0.8363
 6034TIP3    H239518   5.853   1.400  14.422 -0.1755  0.2507 -0.3706
 6035TIP3   OH239519   2.740   0.721   3.622  0.1763  0.4178  0.7274
 6035TIP3    H139520   2.667   0.782   3.625 -0.2628 -0.1155  1.6041
 6035TIP3    H239521   2.732   0.677   3.537 -0.0288  0.9448  0.4728
 6036TIP3   OH239522   1.897   5.519   2.208  0.2383  0.1381  0.0821
 6036TIP3    H139523   1.810   5.481   2.224  0.1234 -0.0843 -1.0052
 6036TIP3    H239524   1.945   5.504   2.290 -0.8357  0.5435  0.8174
 6037TIP3   OH239525   1.816   6.146  12.852  0.1877 -0.5939 -0.5178
 6037TIP3    H139526   1.837   6.174  12.941 -2.1147 -0.1654 -0.0447
 6037TIP3    H239527   1.840   6.220  12.797 -0.5632  0.0907  0.0534
 6038TIP3   OH239528   6.374   0.644   4.975 -0.0989  0.3269  0.2800
 6038TIP3    H139529   6.321   0.720   4.948  1.1052  0.3858 -2.2734
 6038TIP3    H239530   6.464   0.673   4.962  0.3782 -1.6411 -1.2351
 6039TIP3   OH239531   3.313   5.506  12.329 -0.2972  0.2250  0.4710
 6039TIP3    H139532   3.374   5.579  12.335 -0.2426  0.2016  0.1830
 6039TIP3    H239533   3.323   5.460  12.412 -0.2830  0.5034  0.6269
 6040TIP3   OH239534   1.738   5.155  16.660 -0.1092 -0.8494  0.3287
 6040TIP3    H139535   1.773   5.133  16.747  0.7116 -0.1995  0.1753
 6040TIP3    H239536   1.694   5.239  16.673  0.8247 -0.2840 -0.0668
 6041TIP3   OH239537   1.993   6.391   6.027  0.1902  0.2134 -0.3311
 6041TIP3    H139538   1.913   6.387   6.079  1.0843 -1.2553  0.9999
 6041TIP3    H239539   2.062   6.360   6.086  1.5465  0.2748 -1.8218
 6042TIP3   OH239540   5.525   2.426  14.999  0.3482 -0.1313 -0.5172
 6042TIP3    H139541   5.484   2.479  15.067  0.0982 -0.0717 -0.7138
 6042TIP3    H239542   5.576   2.360  15.047  2.3365  1.5196 -0.2341
 6043TIP3   OH239543   6.146   1.053   1.563  0.3025 -1.2417  0.7576
 6043TIP3    H139544   6.186   0.972   1.532  1.1608 -0.5297 -0.0541
 6043TIP3    H239545   6.214   1.119   1.550 -1.3648  0.1636 -1.4393
 6044TIP3   OH239546   6.308   5.792   0.860 -0.4350  0.3289 -0.4356
 6044TIP3    H139547   6.328   5.760   0.948 -1.4338  0.7609 -0.0292
 6044TIP3    H239548   6.328   5.886   0.863 -0.7677  0.4068 -0.5705
 6045TIP3   OH239549   3.742   0.619   4.260  0.3083  0.0357 -0.2135
 6045TIP3    H139550   3.815   0.677   4.282  0.8643 -1.2148  1.3499
 6045TIP3    H239551   3.698   0.663   4.187  2.3772  1.0091 -0.9367
 6046TIP3   OH239552   4.800   6.259  13.959 -0.4612 -0.6807  0.0494
 6046TIP3    H139553   4.774   6.336  13.908 -0.6707 -0.5792  0.3073
 6046TIP3    H239554   4.781   6.185  13.902  1.0650 -0.4734 -0.7617
 6047TIP3   OH239555   1.005   3.794  13.775 -0.8542  0.3027  0.3443
 6047TIP3    H139556   0.996   3.873  13.723 -1.1863 -0.2503 -0.4503
 6047TIP3    H239557   1.097   3.795  13.804 -0.3119  0.0125 -1.2608
 6048TIP3   OH239558   4.705   0.846   0.014 -0.4413 -0.4068  0.1151
 6048TIP3    H139559   4.628   0.871   0.065 -0.1633 -1.4145  1.0636
 6048TIP3    H239560   4.778   0.890   0.059 -0.4062  0.1947 -0.5221
 6049TIP3   OH239561   3.826   3.326   1.420 -0.0856 -0.7710  0.1225
 6049TIP3    H139562   3.913   3.294   1.395 -0.5318 -0.4302 -2.0519
 6049TIP3    H239563   3.837   3.358   1.510  2.5515  1.1493 -0.7533
 6050TIP3   OH239564   4.863   2.360  14.357  0.6653  0.1783  0.2832
 6050TIP3    H139565   4.831   2.298  14.291  0.0639 -0.8683  1.5272
 6050TIP3    H239566   4.956   2.340  14.364  0.5499 -0.3489  0.4082
 6051TIP3   OH239567   6.681   1.909   5.120  0.6502  0.2416 -0.9262
 6051TIP3    H139568   6.635   1.921   5.203  2.7892  2.0246  0.1272
 6051TIP3    H239569   6.637   1.969   5.059  0.2718  0.3749 -0.5254
 6052TIP3   OH239570   5.707   1.568  12.684  0.2185 -0.2971 -0.3660
 6052TIP3    H139571   5.755   1.619  12.748  3.7807 -0.1823 -2.8675
 6052TIP3    H239572   5.713   1.478  12.716  0.0503 -0.0029  0.5163
 6053TIP3   OH239573   3.125   4.345   2.969 -0.2120 -0.1365 -0.2096
 6053TIP3    H139574   3.074   4.309   2.896 -1.9582 -0.0277  0.8839
 6053TIP3    H239575   3.132   4.438   2.949  0.6577 -0.3559 -0.9775
 6054TIP3   OH239576   6.152   1.661   1.377  0.2976 -1.0578  0.1126
 6054TIP3    H139577   6.121   1.641   1.466  1.2788 -1.0274  0.4719
 6054TIP3    H239578   6.167   1.575   1.337  1.0401 -1.0735  0.4101
 6055TIP3   OH239579   6.226   4.902   4.970  0.8433  0.1819  0.7833
 6055TIP3    H139580   6.171   4.839   4.923 -0.0225 -0.5725  2.6762
 6055TIP3    H239581   6.305   4.910   4.917  0.0341 -0.7979 -0.6331
 6056TIP3   OH239582   1.895   0.126  12.940  0.1515 -0.0114 -0.3444
 6056TIP3    H139583   1.947   0.206  12.933 -0.7635  0.6924  0.5403
 6056TIP3    H239584   1.824   0.137  12.877 -0.9197  0.6546  0.9311
 6057TIP3   OH239585   1.081   3.936   2.301  0.5812 -0.5550  0.2040
 6057TIP3    H139586   1.044   3.860   2.346  0.5249 -1.2616 -0.9968
 6057TIP3    H239587   1.151   3.900   2.247 -0.1791  0.0467 -1.2525
 6058TIP3   OH239588   4.476   1.273   5.009 -0.1735  0.1210  0.5055
 6058TIP3    H139589   4.562   1.291   5.048 -0.4977  2.3961  0.2944
 6058TIP3    H239590   4.416   1.274   5.084 -0.5738  2.9348  0.2485
 6059TIP3   OH239591   3.596   4.091  13.162  0.3957  0.0770  0.1042
 6059TIP3    H139592   3.577   4.153  13.232  0.9646 -0.1157  0.4409
 6059TIP3    H239593   3.692   4.091  13.155  0.3853 -0.4732 -0.1485
 6060TIP3   OH239594   4.306   0.635   0.150  0.2513 -0.2466  0.6327
 6060TIP3    H139595   4.273   0.589   0.073 -1.3197  0.8769  0.5696
 6060TIP3    H239596   4.397   0.607   0.158 -0.3017 -2.4377 -0.0444
 6061TIP3   OH239597   2.664   6.220   0.961  0.0191 -0.3456  0.2789
 6061TIP3    H139598   2.749   6.226   0.917 -0.0991  1.6458  0.2218
 6061TIP3    H239599   2.685   6.201   1.052  0.5220 -0.1395  0.2097
 6062TIP3   OH239600   0.811   5.013   3.983  0.2994 -0.6424 -0.0525
 6062TIP3    H139601   0.795   5.095   3.935  0.0604 -0.5228  0.2288
 6062TIP3    H239602   0.749   4.951   3.945 -0.8080 -0.1967  0.9899
 6063TIP3   OH239603   0.612   6.081  14.913 -0.6415  0.3043  0.6719
 6063TIP3    H139604   0.662   6.079  14.832 -0.4737  0.6454  0.7647
 6063TIP3    H239605   0.676   6.065  14.982 -0.1486  3.1689  1.0158
 6064TIP3   OH239606   3.048   3.447   0.617  0.2240 -0.0291  0.1755
 6064TIP3    H139607   2.996   3.512   0.663  0.1725  0.7253 -0.9069
 6064TIP3    H239608   2.997   3.366   0.623 -2.1285  1.0776 -2.4726
 6065TIP3   OH239609   2.052   6.520   4.260 -0.0875 -0.2500 -0.0112
 6065TIP3    H139610   1.960   6.537   4.239 -1.0420 -2.3998  1.9771
 6065TIP3    H239611   2.101   6.570   4.195 -2.5811  2.5622  0.0296
 6066TIP3   OH239612   4.343   5.595  12.453 -0.1745  0.5673  0.3287
 6066TIP3    H139613   4.254   5.584  12.420 -0.3051  0.3062  0.7662
 6066TIP3    H239614   4.359   5.516  12.505  0.4762  0.3945 -0.1224
 6067TIP3   OH239615   5.542   3.046   5.952 -0.1228  0.3530  0.1710
 6067TIP3    H139616   5.564   2.964   5.996  0.1100  0.3341  0.0212
 6067TIP3    H239617   5.618   3.066   5.899 -0.3755  0.4110 -0.1730
 6068TIP3   OH239618   0.776   6.067   5.803 -0.2937 -0.6761 -0.4201
 6068TIP3    H139619   0.762   6.088   5.895  0.9337  0.5533 -0.4816
 6068TIP3    H239620   0.691   6.035   5.772 -1.7413  2.2182  0.2449
 6069TIP3   OH239621   5.228   5.467   5.236 -0.2217  0.0270  0.3949
 6069TIP3    H139622   5.270   5.382   5.246 -0.9919 -0.1512  2.5953
 6069TIP3    H239623   5.170   5.456   5.160 -0.2688 -1.4025  0.6131
 6070TIP3   OH239624   5.590   0.943  13.753 -0.1368 -0.0831  0.3065
 6070TIP3    H139625   5.586   1.032  13.789 -2.2100  0.3330 -0.8055
 6070TIP3    H239626   5.525   0.894  13.803 -0.0090 -0.6124 -0.0398
 6071TIP3   OH239627   1.833   2.813   4.293  0.7243  0.0606  0.3732
 6071TIP3    H139628   1.838   2.867   4.214  0.7593  1.1262  1.0777
 6071TIP3    H239629   1.880   2.733   4.271 -0.2705 -0.1573 -1.0666
 6072TIP3   OH239630   2.840   3.065  13.023 -0.0184 -0.0419  0.3065
 6072TIP3    H139631   2.866   3.087  12.933  0.9499 -2.1468  0.0213
 6072TIP3    H239632   2.886   3.130  13.077 -0.2023  0.9322 -0.6641
 6073TIP3   OH239633   5.627   1.767   0.123  0.9501  0.1956 -0.3655
 6073TIP3    H139634   5.615   1.787   0.031 -2.0759  3.8202  0.5938
 6073TIP3    H239635   5.715   1.798   0.144  0.6211  2.0231 -1.5024
 6074TIP3   OH239636   4.555   0.485   0.033  0.1357  0.2131 -0.5458
 6074TIP3    H139637   4.620   0.500  -0.036  0.3662 -0.3696 -0.4594
 6074TIP3    H239638   4.605   0.488   0.114  0.1495 -0.7621 -0.5105
 6075TIP3   OH239639   5.857   2.196  14.528 -0.1858  0.2196 -0.5390
 6075TIP3    H139640   5.764   2.189  14.509 -0.2178  0.3548 -0.4371
 6075TIP3    H239641   5.896   2.226  14.445 -0.0405 -1.1506 -0.9799
 6076TIP3   OH239642   6.075   6.195  12.384 -0.0706 -0.8500  0.4339
 6076TIP3    H139643   6.089   6.100  12.380  3.0266 -0.5020  0.9025
 6076TIP3    H239644   6.097   6.218  12.474  1.0651  0.5341 -0.1668
 6077TIP3   OH239645   1.801   3.857   6.123 -0.1432  0.0018  0.2588
 6077TIP3    H139646   1.775   3.939   6.164 -2.0266 -0.9848  1.1993
 6077TIP3    H239647   1.881   3.831   6.168 -0.8101  0.1916  1.6017
 6078TIP3   OH239648   2.103   4.481   6.778  0.1194  0.1114  0.5185
 6078TIP3    H139649   2.164   4.421   6.737  0.2163 -0.1970  1.0982
 6078TIP3    H239650   2.156   4.527   6.844  0.4173  1.9123 -0.9072
 6079TIP3   OH239651   1.591   1.519  15.771  0.0886  0.5111 -0.6319
 6079TIP3    H139652   1.646   1.526  15.693  2.4759  2.1189  1.0651
 6079TIP3    H239653   1.606   1.601  15.819 -2.0759  0.0229  1.0617
 6080TIP3   OH239654   0.566   2.387  15.797  0.0021  0.4028 -0.9261
 6080TIP3    H139655   0.659   2.374  15.813 -0.0348 -0.1653 -1.1232
 6080TIP3    H239656   0.539   2.307  15.752 -0.8591 -0.0222  0.3051
 6081TIP3   OH239657   0.364   2.428   0.879 -0.1980 -0.6498  0.5831
 6081TIP3    H139658   0.271   2.440   0.897  0.2417  0.8808  2.0651
 6081TIP3    H239659   0.406   2.436   0.964  1.7295  3.4378 -0.5154
 6082TIP3   OH239660   0.190   6.220   5.854 -0.0048  0.3028  0.1525
 6082TIP3    H139661   0.181   6.127   5.876 -2.9299  0.5108  0.1974
 6082TIP3    H239662   0.179   6.265   5.938  1.1278  0.7331  0.0859
 6083TIP3   OH239663   0.412   3.428   2.807  0.1579 -0.0492  0.9871
 6083TIP3    H139664   0.395   3.516   2.841 -1.3597 -1.3940  4.1514
 6083TIP3    H239665   0.496   3.402   2.845  0.8651  0.1590 -0.3644
 6084TIP3   OH239666   1.439   0.598   3.483 -0.0915  0.5875 -0.1024
 6084TIP3    H139667   1.449   0.688   3.514 -1.3695  0.3961  0.9330
 6084TIP3    H239668   1.347   0.576   3.501 -0.1864 -0.4425 -1.6547
 6085TIP3   OH239669   0.203   2.624   3.056  0.4274 -0.5065  0.3828
 6085TIP3    H139670   0.285   2.607   3.102  0.4826 -0.7989  0.1852
 6085TIP3    H239671   0.225   2.694   2.994  1.0158 -1.7565 -0.9062
 6086TIP3   OH239672   6.145   4.749  12.280 -0.4022 -0.1520 -0.2773
 6086TIP3    H139673   6.100   4.666  12.265  0.0295 -0.6769  1.2499
 6086TIP3    H239674   6.121   4.774  12.369  1.6456 -0.0201  0.2739
 6087TIP3   OH239675   1.139   5.685  11.896  0.2751  0.2980 -1.0859
 6087TIP3    H139676   1.070   5.712  11.957 -0.7224 -1.6521 -1.2799
 6087TIP3    H239677   1.173   5.767  11.861 -1.3442  1.3508 -0.3101
 6088TIP3   OH239678   1.155   6.030  12.434 -0.3222  0.2927  0.2543
 6088TIP3    H139679   1.199   6.036  12.349 -0.2595 -0.1248  0.2552
 6088TIP3    H239680   1.212   5.974  12.486  0.1431  1.3284  0.8917
 6089TIP3   OH239681   1.148   0.090   5.239 -0.4165 -0.0951  0.4950
 6089TIP3    H139682   1.203   0.036   5.181 -0.4354 -0.1720  0.5480
 6089TIP3    H239683   1.138   0.173   5.192 -0.7653 -0.3018  0.1969
 6090TIP3   OH239684   3.234   3.935  16.578 -0.1216  0.1157 -0.4000
 6090TIP3    H139685   3.300   3.881  16.535 -0.2723 -1.5958  1.3921
 6090TIP3    H239686   3.151   3.899  16.547 -0.2201 -0.3612  0.4019
 6091TIP3   OH239687   4.091   1.723  11.570 -0.6792 -0.8958 -0.2732
 6091TIP3    H139688   4.157   1.666  11.529 -1.7167  0.0751 -3.5892
 6091TIP3    H239689   4.007   1.686  11.543 -1.4343  0.1506  0.5546
 6092TIP3   OH239690   3.053   6.770  14.951 -0.1626  0.2638  0.0305
 6092TIP3    H139691   2.968   6.815  14.949 -0.2928 -0.0079 -1.4899
 6092TIP3    H239692   3.115   6.838  14.978 -0.4381  1.2979 -1.7346
 6093TIP3   OH239693   4.741   4.704   6.551 -0.1673 -0.3623  0.5511
 6093TIP3    H139694   4.804   4.674   6.616  0.8343  1.0170  0.2549
 6093TIP3    H239695   4.742   4.636   6.483  1.7605  0.0849  0.0748
 6094TIP3   OH239696   0.526   5.366   1.953  0.1627 -0.4299  0.1683
 6094TIP3    H139697   0.526   5.292   2.014 -0.9888 -0.1412  0.5459
 6094TIP3    H239698   0.490   5.330   1.872 -1.9975  0.0526  0.8461
 6095TIP3   OH239699   0.041   2.608   1.500  0.0211  0.4141 -0.2420
 6095TIP3    H139700   0.089   2.690   1.489  0.8652 -0.3713 -3.2442
 6095TIP3    H239701   0.086   2.546   1.444 -1.9569 -1.5380  0.1946
 6096TIP3   OH239702   0.648   4.027   2.712 -0.1230 -0.4791  0.2299
 6096TIP3    H139703   0.640   3.932   2.705 -1.3748 -0.4369  0.7181
 6096TIP3    H239704   0.600   4.049   2.792 -0.1608  0.5948 -0.0662
 6097TIP3   OH239705   2.368   2.281   4.252  0.0129 -0.7335 -0.1676
 6097TIP3    H139706   2.380   2.230   4.332  0.2488  0.5236  0.6333
 6097TIP3    H239707   2.380   2.218   4.181 -0.0533 -1.8491  0.7745
 6098TIP3   OH239708   5.086   4.894  17.329  0.4633 -0.4316 -0.1534
 6098TIP3    H139709   5.131   4.918  17.410  0.4051 -0.8204 -0.0003
 6098TIP3    H239710   5.002   4.857  17.359 -0.3478  1.0711 -0.4658
 6099TIP3   OH239711   5.181   4.409   1.113 -0.0063  0.4200 -0.3275
 6099TIP3    H139712   5.192   4.505   1.111 -2.7343  0.8087  0.0834
 6099TIP3    H239713   5.238   4.381   1.185 -0.9337  2.0562  1.1227
 6100TIP3   OH239714   2.803   6.574   0.765  0.3673  0.6811  0.2390
 6100TIP3    H139715   2.758   6.495   0.735 -0.0300  1.5679 -1.6214
 6100TIP3    H239716   2.797   6.570   0.860 -0.0638 -1.2758  0.1739
 6101TIP3   OH239717   3.009   6.521   2.561 -0.1428 -0.6382 -1.3258
 6101TIP3    H139718   2.986   6.603   2.517 -3.6499 -2.2298 -2.8423
 6101TIP3    H239719   3.096   6.498   2.528 -0.7722  0.4964 -3.9879
 6102TIP3   OH239720   1.865   4.431   1.754 -0.0924 -0.1585  0.4719
 6102TIP3    H139721   1.925   4.501   1.782 -1.0145  0.4977  0.8662
 6102TIP3    H239722   1.778   4.472   1.757 -0.7921 -1.6636  1.8366
 6103TIP3   OH239723   1.398   0.915   6.255  0.8118  0.0573  0.0951
 6103TIP3    H139724   1.333   0.901   6.324 -0.7935  1.8338 -0.9465
 6103TIP3    H239725   1.381   0.845   6.191  0.8498 -0.2999  0.4731
 6104TIP3   OH239726   3.399   4.651  11.233  0.7137  0.0513 -0.4393
 6104TIP3    H139727   3.320   4.612  11.196  0.2845  0.1610  0.3343
 6104TIP3    H239728   3.470   4.621  11.176  0.6033 -2.9652  0.7995
 6105TIP3   OH239729   4.015   3.288   4.752  0.0358  0.2994 -0.4837
 6105TIP3    H139730   4.037   3.206   4.706 -1.8809 -1.0509  0.8918
 6105TIP3    H239731   4.087   3.300   4.814 -0.6746 -1.6131  0.8287
 6106TIP3   OH239732   2.149   1.198  15.538  0.1912  0.5537  0.8031
 6106TIP3    H139733   2.222   1.160  15.488  1.2360  1.3737  1.6349
 6106TIP3    H239734   2.117   1.269  15.482  0.5212  0.6593  0.7450
 6107TIP3   OH239735   2.637   4.585   0.087  0.0985 -0.2320  0.2624
 6107TIP3    H139736   2.600   4.605   0.173 -0.2117 -2.2717  0.6561
 6107TIP3    H239737   2.566   4.541   0.040 -0.2010  2.0310 -1.6001
 6108TIP3   OH239738   5.235   0.751  14.189 -0.1337 -0.4119 -0.1995
 6108TIP3    H139739   5.173   0.769  14.117 -0.1031 -0.1912 -0.1714
 6108TIP3    H239740   5.180   0.750  14.267 -0.0372  0.2446 -0.1181
 6109TIP3   OH239741   2.572   0.315  16.726  0.3246 -0.0872 -0.3165
 6109TIP3    H139742   2.649   0.367  16.703 -1.0743  2.0803 -0.3666
 6109TIP3    H239743   2.573   0.242  16.664  1.8848  0.3459 -0.8459
 6110TIP3   OH239744   3.615   6.173  11.949  0.6578 -0.3108  0.0614
 6110TIP3    H139745   3.683   6.130  12.001 -0.4811  0.0793  1.9608
 6110TIP3    H239746   3.649   6.261  11.932  2.2978 -1.3157 -2.4691
 6111TIP3   OH239747   1.357   5.108  11.207  0.6249  0.5582  0.0914
 6111TIP3    H139748   1.299   5.118  11.131 -0.6689  1.6137  1.1422
 6111TIP3    H239749   1.409   5.189  11.207  1.4221  0.0492 -0.2985
 6112TIP3   OH239750   2.505   0.926  14.672 -0.4737  0.7457  0.1114
 6112TIP3    H139751   2.520   0.848  14.618 -1.4663 -1.0583  2.2912
 6112TIP3    H239752   2.460   0.987  14.613 -1.6879 -1.1887 -1.0911
 6113TIP3   OH239753   3.789   3.379  12.412  0.2926 -0.5717 -0.0248
 6113TIP3    H139754   3.795   3.442  12.484  0.3109 -1.4651  0.7790
 6113TIP3    H239755   3.696   3.368  12.396  0.2528  1.9657 -2.3034
 6114TIP3   OH239756   1.785   2.474   5.884 -0.4043  0.1790  0.4265
 6114TIP3    H139757   1.776   2.527   5.804 -0.1112 -1.0154 -0.4294
 6114TIP3    H239758   1.771   2.384   5.855 -1.7306 -0.1722  2.0018
 6115TIP3   OH239759   4.654   6.341  12.917 -0.3190 -0.0194  0.1113
 6115TIP3    H139760   4.627   6.427  12.885  0.5214  0.2361  0.0606
 6115TIP3    H239761   4.668   6.289  12.838  0.3368  0.1709  0.0924
 6116TIP3   OH239762   5.344   4.418  12.525 -0.1764 -0.8646 -0.3706
 6116TIP3    H139763   5.248   4.414  12.529 -0.2382  0.4721  0.2942
 6116TIP3    H239764   5.374   4.360  12.595 -0.5924  0.4861  0.9867
 6117TIP3   OH239765   1.469   5.180   4.364 -0.4500 -0.7903  0.0521
 6117TIP3    H139766   1.433   5.172   4.452 -1.2645  1.2623 -0.0294
 6117TIP3    H239767   1.563   5.168   4.375 -0.7751 -3.3257  0.7283
 6118TIP3   OH239768   5.074   0.048   1.402 -0.5140  0.1558 -0.0747
 6118TIP3    H139769   4.995   0.085   1.361 -1.3934 -1.3859  0.1534
 6118TIP3    H239770   5.082  -0.039   1.363 -0.2716 -0.6076  1.5997
 6119TIP3   OH239771   1.806   1.575   3.333  0.0220  0.2281 -0.2346
 6119TIP3    H139772   1.780   1.594   3.243  0.4989  1.2320 -0.1731
 6119TIP3    H239773   1.898   1.549   3.327  0.3080  1.1232  0.0355
 6120TIP3   OH239774   2.554   2.990   4.645 -0.0186 -0.3469 -0.0769
 6120TIP3    H139775   2.610   2.948   4.579  1.3135  1.0026  0.1448
 6120TIP3    H239776   2.548   3.081   4.617 -1.2686 -0.2465  0.4822
 6121TIP3   OH239777   3.709   1.458   2.886 -0.5368  0.2063  0.5781
 6121TIP3    H139778   3.633   1.506   2.920  0.7588  1.7443  1.4071
 6121TIP3    H239779   3.785   1.506   2.919  0.8503 -2.0296  0.8888
 6122TIP3   OH239780   4.043   0.032  12.645 -0.2285 -0.0252 -0.2259
 6122TIP3    H139781   4.026   0.101  12.710 -3.4205  0.8104 -1.7675
 6122TIP3    H239782   3.961  -0.016  12.640  0.7320 -1.5902 -1.9394
 6123TIP3   OH239783   5.982   2.957   4.462  0.0969  1.0137  0.0665
 6123TIP3    H139784   5.943   2.966   4.375 -0.3079  1.8024  0.3138
 6123TIP3    H239785   6.043   3.030   4.469  2.2660 -0.6375 -0.5989
 6124TIP3   OH239786   4.756   3.308   5.645  0.1431 -0.4141  0.1607
 6124TIP3    H139787   4.695   3.296   5.572 -1.2562  2.5378  0.6591
 6124TIP3    H239788   4.726   3.247   5.712  1.5016 -3.2335 -1.6274
 6125TIP3   OH239789   4.455   5.563   0.877 -0.3775 -0.8640 -0.1766
 6125TIP3    H139790   4.538   5.548   0.921  0.2764 -0.4477 -1.2336
 6125TIP3    H239791   4.397   5.597   0.946  0.5357 -0.4767  0.4104
 6126TIP3   OH239792   3.297   0.661   2.243  0.4183 -0.0479  0.6441
 6126TIP3    H139793   3.281   0.683   2.151  0.3170  0.8257  0.8589
 6126TIP3    H239794   3.222   0.608   2.268 -0.4350  1.1516  0.6902
 6127TIP3   OH239795   2.270   6.577  14.764 -1.0010  0.1121 -0.0469
 6127TIP3    H139796   2.288   6.573  14.858 -0.9975  0.7145 -0.0157
 6127TIP3    H239797   2.298   6.492  14.731  3.2354  1.3372 -0.2252
 6128TIP3   OH239798   0.758   0.949  14.423 -0.8474  0.1483  0.5809
 6128TIP3    H139799   0.822   0.886  14.391 -2.2350 -1.6710  1.2304
 6128TIP3    H239800   0.724   0.991  14.344 -1.4469 -1.4930 -0.0750
 6129TIP3   OH239801   1.008   6.247   3.754  0.5247  0.2338 -0.9222
 6129TIP3    H139802   0.965   6.278   3.833  0.1196 -0.3803 -0.8969
 6129TIP3    H239803   0.994   6.317   3.690 -1.7177 -0.5281 -1.3279
 6130TIP3   OH239804   2.588   3.977   3.648 -0.7475 -0.0379  0.0068
 6130TIP3    H139805   2.566   3.966   3.741 -0.1217 -1.0660  0.0500
 6130TIP3    H239806   2.681   4.001   3.648  0.0146 -2.6250 -0.4058
 6131TIP3   OH239807   5.535   6.501   2.908  0.2151  0.2570  0.2933
 6131TIP3    H139808   5.585   6.469   2.833 -2.8203 -2.1271 -0.9514
 6131TIP3    H239809   5.597   6.501   2.980  2.7797  0.7326 -1.7651
 6132TIP3   OH239810   4.329   3.719  11.941  0.3818 -0.8020  0.5457
 6132TIP3    H139811   4.373   3.645  11.898 -0.7337 -1.0538 -0.1988
 6132TIP3    H239812   4.261   3.678  11.994 -1.3605 -0.2833 -1.1696
 6133TIP3   OH239813   3.780   0.877  15.572 -0.4693  0.2903  0.0811
 6133TIP3    H139814   3.742   0.860  15.486 -0.4221 -0.0770  0.1322
 6133TIP3    H239815   3.763   0.797  15.622 -0.7200  0.5995  0.4926
 6134TIP3   OH239816   0.774   5.016  12.824 -0.5055 -1.1869  0.0714
 6134TIP3    H139817   0.838   5.086  12.822 -1.3186 -0.4152 -2.1216
 6134TIP3    H239818   0.788   4.972  12.908  1.4659  0.2277  0.5393
 6135TIP3   OH239819   5.327   4.879   4.001  0.3890 -0.4052  0.4162
 6135TIP3    H139820   5.295   4.968   3.992  0.4594 -0.5329 -1.4514
 6135TIP3    H239821   5.318   4.860   4.094 -0.4399  1.2350  0.7109
 6136TIP3   OH239822   3.275   4.318   1.086 -0.0353  0.2096 -0.2473
 6136TIP3    H139823   3.247   4.292   1.174 -0.0309 -2.1533 -0.8614
 6136TIP3    H239824   3.209   4.379   1.056 -0.6440  0.1784  0.9885
 6137TIP3   OH239825   2.188   0.843  16.345 -0.5908 -0.7672 -0.0512
 6137TIP3    H139826   2.157   0.894  16.270 -0.3018 -0.5789 -0.0455
 6137TIP3    H239827   2.206   0.756  16.309 -0.7024 -0.7518 -0.1463
 6138TIP3   OH239828   1.956   4.068  14.469  0.0598  0.3347  0.1436
 6138TIP3    H139829   1.929   3.989  14.515  2.0520 -0.8764 -0.6189
 6138TIP3    H239830   1.892   4.077  14.398 -0.2790 -0.4995  0.3322
 6139TIP3   OH239831   0.011   3.201  15.948  0.3827  0.4618 -0.1407
 6139TIP3    H139832  -0.020   3.284  15.911 -0.7237 -0.1596 -0.6823
 6139TIP3    H239833   0.056   3.158  15.875  2.5134  1.2957  0.6046
 6140TIP3   OH239834   1.873   5.209   4.869  0.6005 -0.2681  0.6442
 6140TIP3    H139835   1.796   5.193   4.813 -0.9190  1.4212  2.1139
 6140TIP3    H239836   1.914   5.123   4.879 -1.7580 -1.4762  0.7086
 6141TIP3   OH239837   5.463   3.117   6.413  0.9207 -0.4550  0.4688
 6141TIP3    H139838   5.536   3.176   6.432  1.5068 -0.9007 -0.3378
 6141TIP3    H239839   5.497   3.029   6.431  0.8959 -0.7437 -0.7839
 6142TIP3   OH239840   6.468   6.345  15.266  0.2777  0.0431 -0.0057
 6142TIP3    H139841   6.413   6.324  15.191 -0.3972 -3.4831  1.2983
 6142TIP3    H239842   6.544   6.288  15.257  0.9279  0.6701  1.2103
 6143TIP3   OH239843   3.244   0.466  16.658 -0.3884 -0.4460 -0.2483
 6143TIP3    H139844   3.165   0.478  16.606 -0.9076  1.0767  0.8004
 6143TIP3    H239845   3.243   0.540  16.719  1.1172 -1.1790  0.7168
 6144TIP3   OH239846   1.959   3.637   1.824 -0.5895  0.2271 -0.1789
 6144TIP3    H139847   1.906   3.641   1.903  1.4923 -0.7977  1.3665
 6144TIP3    H239848   1.971   3.729   1.798 -1.1026  0.5974  0.8537
 6145TIP3   OH239849   5.969   0.593  13.613 -0.2931 -0.3377 -0.6409
 6145TIP3    H139850   5.911   0.661  13.579  0.7374 -0.5260 -2.9881
 6145TIP3    H239851   6.002   0.549  13.535  1.0451 -1.8833  0.7236
 6146TIP3   OH239852   5.155   4.267  15.985 -0.1717  0.0960  0.2129
 6146TIP3    H139853   5.069   4.230  16.002 -0.9479  2.4132  1.8688
 6146TIP3    H239854   5.161   4.270  15.889 -1.0858 -1.8057  0.0519
 6147TIP3   OH239855   2.451   3.144  17.035  0.5436  0.2819 -0.2121
 6147TIP3    H139856   2.484   3.216  17.088  1.0380  0.2058 -0.4081
 6147TIP3    H239857   2.452   3.068  17.095  3.9303 -0.5033 -1.0509
 6148TIP3   OH239858   0.216   2.597   3.774 -0.4749 -0.0321 -0.1399
 6148TIP3    H139859   0.197   2.637   3.690  1.4682  1.7953  0.2045
 6148TIP3    H239860   0.231   2.671   3.833  0.8719 -1.2544  1.1311
 6149TIP3   OH239861   3.015   2.230  16.063  0.0175 -0.5120 -0.0030
 6149TIP3    H139862   3.096   2.278  16.085  0.0119 -0.7599  0.5767
 6149TIP3    H239863   2.975   2.282  15.994 -1.1685  1.6421  2.1553
 6150TIP3   OH239864   5.628   5.663   4.850 -0.0082 -0.2797 -0.0796
 6150TIP3    H139865   5.667   5.721   4.916  0.3411  1.1577 -1.4765
 6150TIP3    H239866   5.535   5.683   4.853 -0.1244 -0.8895  0.5937
 6151TIP3   OH239867   3.064   5.255  16.247 -0.0648  0.2660  0.9339
 6151TIP3    H139868   3.008   5.247  16.170  0.7698  0.4220  0.2872
 6151TIP3    H239869   3.107   5.170  16.254  0.0406  0.3312  1.0816
 6152TIP3   OH239870   4.329   3.056  11.898 -0.6898 -0.4535 -0.0279
 6152TIP3    H139871   4.259   3.115  11.868 -0.3160  0.6656  1.2041
 6152TIP3    H239872   4.283   2.985  11.942 -1.1104 -0.4951 -0.5247
 6153TIP3   OH239873   4.660   0.154   3.880  0.1898 -0.1509 -0.0792
 6153TIP3    H139874   4.625   0.067   3.864  0.5123 -0.0920 -1.2024
 6153TIP3    H239875   4.614   0.185   3.958  1.5774 -2.1144  1.5934
 6154TIP3   OH239876   1.279   6.262   6.663 -0.5341  0.7346 -0.6198
 6154TIP3    H139877   1.255   6.196   6.728 -0.0516 -1.1202 -2.2185
 6154TIP3    H239878   1.266   6.345   6.707 -1.3992 -0.4116  1.4253
 6155TIP3   OH239879   2.472   5.167   5.015 -0.2338 -0.7120  0.4787
 6155TIP3    H139880   2.462   5.259   5.038 -1.8960 -0.5293 -0.7800
 6155TIP3    H239881   2.387   5.128   5.037  0.3506 -1.9031  0.7391
 6156TIP3   OH239882   3.833   3.730  16.331 -0.2347  0.0800  0.1186
 6156TIP3    H139883   3.828   3.635  16.320 -0.8133  0.3256 -2.1586
 6156TIP3    H239884   3.920   3.754  16.298 -0.0141  0.3540  0.8641
 6157TIP3   OH239885   1.518   0.610   1.875 -0.3647 -0.0108  0.0410
 6157TIP3    H139886   1.426   0.588   1.862 -0.6310  0.4017  1.1114
 6157TIP3    H239887   1.551   0.542   1.933  0.5131 -1.2088 -1.7610
 6158TIP3   OH239888   6.160   0.647  12.852 -0.2213 -0.3438  0.3159
 6158TIP3    H139889   6.213   0.661  12.931  1.0553  1.5518 -0.7677
 6158TIP3    H239890   6.092   0.714  12.857  0.6478  0.6753 -0.7419
 6159TIP3   OH239891   3.289   0.326   3.231  0.3442 -0.1598  0.6151
 6159TIP3    H139892   3.354   0.374   3.281  1.2052  1.5094 -1.9266
 6159TIP3    H239893   3.241   0.393   3.182  0.1720 -1.6667 -1.4511
 6160TIP3   OH239894   2.035   6.200   3.565 -0.1998  0.3779 -0.1304
 6160TIP3    H139895   1.965   6.218   3.502 -1.4339  0.1983  1.1181
 6160TIP3    H239896   1.991   6.203   3.650  1.3503  0.3395  0.7117
 6161TIP3   OH239897   0.385   4.477  12.063 -0.7299 -0.1795  0.4113
 6161TIP3    H139898   0.294   4.449  12.068 -0.8040 -0.2080 -0.9070
 6161TIP3    H239899   0.380   4.570  12.039 -0.4229 -0.6086 -1.4817
 6162TIP3   OH239900   1.093   6.475  13.476 -0.2098 -0.0386  0.2217
 6162TIP3    H139901   1.011   6.476  13.526 -0.0552  0.6815  0.4797
 6162TIP3    H239902   1.099   6.562  13.438  1.1858  0.4793  1.4909
 6163TIP3   OH239903   6.133   3.180  16.199 -0.2065  0.0868  0.0405
 6163TIP3    H139904   6.075   3.152  16.270 -2.4134  2.6088 -0.6064
 6163TIP3    H239905   6.085   3.158  16.119  1.2724 -0.7298 -0.6775
 6164TIP3   OH239906   0.954   2.018  16.560 -0.1631  0.0266  0.2636
 6164TIP3    H139907   0.999   2.087  16.610 -0.3184 -0.7096  1.4373
 6164TIP3    H239908   0.868   2.010  16.602  0.3706 -1.8565  1.0674
 6165TIP3   OH239909   3.225   0.317  15.060  0.7415 -0.1194  0.3461
 6165TIP3    H139910   3.228   0.225  15.086 -2.6244 -0.8776 -1.3791
 6165TIP3    H239911   3.250   0.316  14.967 -1.2502  0.3334 -0.2350
 6166TIP3   OH239912   5.453   6.551  16.140 -0.2919  0.1349 -0.6007
 6166TIP3    H139913   5.362   6.540  16.168 -0.3094  0.1544 -0.6509
 6166TIP3    H239914   5.475   6.467  16.099  0.2958 -0.5687  1.0398
 6167TIP3   OH239915   6.155   0.711  13.807  0.3297 -0.0146  0.0355
 6167TIP3    H139916   6.230   0.751  13.763  0.6827  0.5281  1.1218
 6167TIP3    H239917   6.096   0.687  13.735  0.0471  2.5330 -0.6928
 6168TIP3   OH239918   1.342   6.312   5.514 -0.4490  0.5151 -0.0887
 6168TIP3    H139919   1.250   6.322   5.489 -0.4664  1.3960  0.3007
 6168TIP3    H239920   1.355   6.217   5.519 -0.8041  0.3239 -2.0498
 6169TIP3   OH239921   1.529   3.547   4.373  0.1097 -0.0427 -0.3834
 6169TIP3    H139922   1.442   3.547   4.332 -0.6390 -1.7283  1.0556
 6169TIP3    H239923   1.581   3.486   4.321  0.0498  0.0066 -0.5016
 6170TIP3   OH239924   6.348   6.480  12.685  0.4651  0.6824  0.2960
 6170TIP3    H139925   6.404   6.441  12.618 -1.1329  0.6940 -1.1050
 6170TIP3    H239926   6.320   6.563  12.648 -0.2725  0.7943  1.0672
 6171TIP3   OH239927   3.241   2.309  12.947 -0.5529  0.0397 -0.6856
 6171TIP3    H139928   3.242   2.214  12.958  1.6912 -0.1798 -2.1700
 6171TIP3    H239929   3.210   2.322  12.857  3.2362  0.3511 -2.1167
 6172TIP3   OH239930   0.497   0.106   3.139  0.6879  0.4487 -0.3412
 6172TIP3    H139931   0.413   0.129   3.180  0.6812  1.0417 -0.6753
 6172TIP3    H239932   0.475   0.037   3.076  0.9163 -1.5201  1.6280
 6173TIP3   OH239933   4.946   4.209  13.280 -0.2906  0.7593 -0.5764
 6173TIP3    H139934   5.034   4.246  13.272  0.5045 -0.4488  1.7682
 6173TIP3    H239935   4.936   4.191  13.373 -2.7460  0.1499 -0.9010
 6174TIP3   OH239936   3.533   3.634  10.526 -0.1987 -0.7941  0.1815
 6174TIP3    H139937   3.441   3.654  10.508 -0.1645 -0.8383 -0.0436
 6174TIP3    H239938   3.537   3.538  10.524 -0.3536 -0.8347  1.2036
 6175TIP3   OH239939   3.057   6.158  15.458 -0.2511 -0.4474 -0.2824
 6175TIP3    H139940   3.072   6.130  15.368  0.4665  0.1816 -0.3759
 6175TIP3    H239941   2.964   6.177  15.462 -0.4829 -1.4531 -0.6025
 6176TIP3   OH239942   4.796   3.079  13.074  0.4302 -0.2906  0.5405
 6176TIP3    H139943   4.774   3.045  12.988  1.2774 -1.2176  0.6778
 6176TIP3    H239944   4.713   3.079  13.122  0.0660 -0.3120 -0.0837
 6177TIP3   OH239945   6.125   3.694  16.574 -0.0535  0.1238 -0.1997
 6177TIP3    H139946   6.178   3.637  16.518 -0.0177  1.3563 -1.4835
 6177TIP3    H239947   6.054   3.724  16.517 -1.4012 -0.4495  1.1168
 6178TIP3   OH239948   2.123   6.528   0.005 -0.2868 -0.5509  0.7485
 6178TIP3    H139949   2.178   6.507  -0.070 -0.4499  0.7985  0.2317
 6178TIP3    H239950   2.034   6.531  -0.030 -0.1501  2.4820  0.3909
 6179TIP3   OH239951   5.869   5.895  16.094  0.0098 -0.0475 -0.1775
 6179TIP3    H139952   5.829   5.976  16.062 -0.3845 -0.4145 -0.6076
 6179TIP3    H239953   5.875   5.908  16.189 -1.1924 -0.0133 -0.0921
 6180TIP3   OH239954   2.102   4.476  12.555 -0.4394 -0.5483 -1.3961
 6180TIP3    H139955   2.079   4.557  12.600 -2.3795 -0.1878 -2.9015
 6180TIP3    H239956   2.130   4.417  12.625  2.1403  1.6748 -0.3608
 6181TIP3   OH239957   5.945   4.865   2.621 -0.3414 -0.2028  0.1007
 6181TIP3    H139958   5.886   4.791   2.611  0.0373 -0.3960 -0.7519
 6181TIP3    H239959   5.951   4.878   2.716  0.6424 -2.1162  0.3466
 6182TIP3   OH239960   2.215   4.170   2.206 -0.4748 -0.5116  0.0522
 6182TIP3    H139961   2.170   4.088   2.228 -0.5366 -0.5827 -0.3279
 6182TIP3    H239962   2.148   4.222   2.161 -0.1185 -0.7055 -0.7158
 6183TIP3   OH239963   6.173   5.216   6.275 -0.1547  0.2000  0.0471
 6183TIP3    H139964   6.196   5.186   6.362  2.2654  1.9508  0.0845
 6183TIP3    H239965   6.138   5.138   6.231 -1.2697 -0.7454  2.4704
 6184TIP3   OH239966   4.035   6.766   1.467 -0.3207 -0.0363 -0.6451
 6184TIP3    H139967   4.042   6.765   1.372  1.2166  2.8422 -0.6548
 6184TIP3    H239968   3.965   6.828   1.486 -1.3047 -1.3204  0.1623
 6185TIP3   OH239969   1.756   0.586   5.141 -0.0272  0.2528 -0.7138
 6185TIP3    H139970   1.771   0.491   5.138  1.3657  0.3535  1.1112
 6185TIP3    H239971   1.687   0.597   5.206  0.3960  0.5407 -0.3128
 6186TIP3   OH239972   5.008   3.091  10.451 -0.1997  0.3122 -0.1247
 6186TIP3    H139973   5.009   3.168  10.393 -2.4164 -0.3713 -1.1955
 6186TIP3    H239974   4.938   3.111  10.514  0.5003 -0.0311  0.7630
 6187TIP3   OH239975   4.278   0.475  16.675 -0.3438  0.2963 -0.0165
 6187TIP3    H139976   4.278   0.379  16.682  0.3157  0.3042  0.2159
 6187TIP3    H239977   4.364   0.496  16.638 -0.5731  0.7883 -0.2724
 6188TIP3   OH239978   5.767   5.115  16.677 -0.4798 -0.0292 -0.6043
 6188TIP3    H139979   5.811   5.053  16.619 -0.6385 -1.7808  1.0942
 6188TIP3    H239980   5.751   5.067  16.757 -1.5832  1.9044  0.4076
 6189TIP3   OH239981   0.298   0.981  14.602  0.2787 -0.0534 -0.3615
 6189TIP3    H139982   0.292   0.922  14.677  1.7194 -0.5035 -0.5739
 6189TIP3    H239983   0.207   0.997  14.577 -0.5675  2.6189  3.3938
 6190TIP3   OH239984   2.041   6.152  15.736 -0.7554 -0.2834  0.1567
 6190TIP3    H139985   1.992   6.135  15.656 -0.3122  0.4495 -0.2850
 6190TIP3    H239986   2.123   6.103  15.726 -0.4527  0.2671 -0.1035
 6191TIP3   OH239987   3.224   2.263  12.421  1.3797 -0.4965 -0.3092
 6191TIP3    H139988   3.280   2.222  12.355  2.3538  0.4292 -0.0903
 6191TIP3    H239989   3.212   2.353  12.391 -1.5212 -1.1275 -1.2719
 6192TIP3   OH239990   3.078   1.403   0.099 -0.2611 -0.0583 -0.3497
 6192TIP3    H139991   2.986   1.404   0.126 -0.0435 -0.3644  0.4333
 6192TIP3    H239992   3.099   1.495   0.082 -0.0238  0.3749  1.9419
 6193TIP3   OH239993   5.834   0.415  13.834  0.4014 -0.2316 -0.4382
 6193TIP3    H139994   5.876   0.471  13.769  0.4405  0.1122 -0.1142
 6193TIP3    H239995   5.870   0.443  13.918  2.0460 -2.1406 -0.4341
 6194TIP3   OH239996   0.700   2.856  17.205  0.5851  0.0128  0.6793
 6194TIP3    H139997   0.721   2.790  17.139  1.2923  0.2624  0.6485
 6194TIP3    H239998   0.606   2.844  17.222  0.1654  0.5494 -1.0322
 6195TIP3   OH239999   1.851   4.331  13.033 -0.2686 -0.0580 -0.0360
 6195TIP3    H140000   1.813   4.257  12.986 -0.2381  0.1583 -0.4106
 6195TIP3    H240001   1.926   4.294  13.080 -1.4513 -0.6629  1.4346
 6196TIP3   OH240002   0.513   0.188  12.532 -0.2210 -0.5239 -0.3938
 6196TIP3    H140003   0.533   0.256  12.595 -0.8336 -0.6234 -0.0840
 6196TIP3    H240004   0.432   0.148  12.564 -0.2737 -0.9012 -0.9721
 6197TIP3   OH240005   5.530   5.176   2.414 -0.0283 -0.4957  0.8340
 6197TIP3    H140006   5.588   5.243   2.377 -1.4233  1.0473  1.2992
 6197TIP3    H240007   5.581   5.138   2.485  0.8834 -0.0748  0.4274
 6198TIP3   OH240008   1.628   3.135   4.469 -0.4770  0.2291  0.2129
 6198TIP3    H140009   1.719   3.157   4.486  0.1068 -2.4797  1.2349
 6198TIP3    H240010   1.591   3.212   4.426  1.6331  2.3399  1.9050
 6199TIP3   OH240011   5.723   2.122   5.744  0.0688  0.2537  0.4167
 6199TIP3    H140012   5.770   2.044   5.772  0.4026 -0.3369 -1.6375
 6199TIP3    H240013   5.640   2.119   5.792 -0.2121 -1.7330 -0.1014
 6200TIP3   OH240014   4.249   1.365   1.118 -0.6978  0.1649  0.7720
 6200TIP3    H140015   4.247   1.270   1.106 -1.2825  0.2484  0.1629
 6200TIP3    H240016   4.175   1.397   1.066  1.0672  1.2142 -1.2028
 6201TIP3   OH240017   6.271   6.530  11.232  0.0330  0.2794  0.5901
 6201TIP3    H140018   6.259   6.624  11.219  0.1876  0.3846  1.1923
 6201TIP3    H240019   6.306   6.522  11.321 -0.3516 -0.3762  0.6909
 6202TIP3   OH240020   0.168   5.822  13.060  0.6499  0.3598 -0.9810
 6202TIP3    H140021   0.097   5.779  13.012 -1.6855  0.6841  1.8623
 6202TIP3    H240022   0.161   5.914  13.038 -0.5650  0.5400  0.0281
 6203TIP3   OH240023   3.389   3.047  13.191 -0.2064 -0.5846 -0.1956
 6203TIP3    H140024   3.392   3.047  13.286  0.7655 -0.9121 -0.2193
 6203TIP3    H240025   3.401   3.138  13.166 -0.3972 -0.5084 -0.0116
 6204TIP3   OH240026   3.027   5.541   0.341  0.0228 -0.6511  0.4892
 6204TIP3    H140027   3.079   5.472   0.301  1.6807  1.3219 -0.9488
 6204TIP3    H240028   2.983   5.584   0.267 -1.6181 -0.6162  1.4309
 6205TIP3   OH240029   0.521   3.426  15.834  0.1755  0.0194  0.2621
 6205TIP3    H140030   0.616   3.415  15.837  0.0827 -0.9076  0.2528
 6205TIP3    H240031   0.501   3.439  15.742  0.3820  1.2439  0.3736
 6206TIP3   OH240032   2.161   1.176   5.209 -0.0133 -0.2884 -0.1237
 6206TIP3    H140033   2.167   1.189   5.114  0.1378 -0.0609 -0.0819
 6206TIP3    H240034   2.183   1.261   5.247  1.1248 -0.6919  0.1487
 6207TIP3   OH240035   2.973   4.911  14.693  0.0328  0.1267  0.6222
 6207TIP3    H140036   2.989   4.972  14.621 -1.7206  1.4828  1.2988
 6207TIP3    H240037   2.888   4.872  14.672  0.4716 -1.0276  0.9289
 6208TIP3   OH240038   2.841   2.330  14.601 -0.2816  0.1740  0.2398
 6208TIP3    H140039   2.767   2.318  14.543 -0.0081 -0.6114  0.0435
 6208TIP3    H240040   2.807   2.310  14.689 -0.4910  0.5845  0.2564
 6209TIP3   OH240041   0.693   5.716   6.604  0.6503  0.0571  0.4686
 6209TIP3    H140042   0.746   5.688   6.530  0.1324  1.2668 -0.4074
 6209TIP3    H240043   0.698   5.812   6.602 -0.0374  0.1378  1.5009
 6210TIP3   OH240044   6.014   4.691   1.806  0.1031  0.0978 -0.4874
 6210TIP3    H140045   6.103   4.656   1.807 -1.6560 -5.2946  0.1907
 6210TIP3    H240046   5.994   4.702   1.713  0.8882 -0.4326 -0.7361
 6211TIP3   OH240047   6.429   1.230   2.449  0.4091  0.3007  0.3757
 6211TIP3    H140048   6.450   1.226   2.355 -1.0504  3.6837 -0.2668
 6211TIP3    H240049   6.511   1.254   2.492  0.3883  2.2450 -0.5724
 6212TIP3   OH240050   0.387   2.367  11.912  0.1325 -0.5368 -0.1643
 6212TIP3    H140051   0.453   2.376  11.981 -0.1933  0.9553 -0.0165
 6212TIP3    H240052   0.429   2.405  11.835 -0.4479  0.1881 -0.1319
 6213TIP3   OH240053   3.484   2.760   1.238  0.0219  0.0081 -0.4733
 6213TIP3    H140054   3.467   2.853   1.221 -2.5345 -0.4988 -1.1271
 6213TIP3    H240055   3.408   2.731   1.288  0.6522 -1.7972 -0.5086
 6214TIP3   OH240056   0.920   4.929  17.030  0.5802  0.7056  0.4427
 6214TIP3    H140057   0.909   4.881  17.112 -0.3539 -0.0307 -0.0825
 6214TIP3    H240058   0.997   4.984  17.044  0.0786  1.0543  2.0202
 6215TIP3   OH240059   1.016   5.576   0.097  0.3457 -0.0005  0.1057
 6215TIP3    H140060   0.928   5.602   0.126  0.1939  1.2981 -1.3991
 6215TIP3    H240061   1.075   5.627   0.151  0.2337 -1.3230  1.5453
 6216TIP3   OH240062   6.462   2.075   3.401 -0.1553  0.6211  0.4225
 6216TIP3    H140063   6.455   1.984   3.433 -0.1621  0.7412  0.7739
 6216TIP3    H240064   6.383   2.089   3.351 -0.5282  0.6753  1.0125
 6217TIP3   OH240065   4.372   0.651  16.290 -0.3346 -0.4162  0.2848
 6217TIP3    H140066   4.335   0.638  16.203  1.2701 -0.4142 -0.4493
 6217TIP3    H240067   4.297   0.664  16.348 -1.4599 -1.2360 -0.9560
 6218TIP3   OH240068   5.907   3.015  16.232  0.6103  0.3969 -0.9694
 6218TIP3    H140069   5.845   3.006  16.160  0.0842  0.3477 -0.5097
 6218TIP3    H240070   5.856   3.048  16.305  1.1813  0.6320 -0.6653
 6219TIP3   OH240071   2.826   0.445   5.906 -0.1033 -0.0006 -0.2680
 6219TIP3    H140072   2.874   0.368   5.876  0.7983  0.1615  0.6591
 6219TIP3    H240073   2.858   0.459   5.995 -0.6748  1.1110 -0.2195
 6220TIP3   OH240074   1.163   0.994   5.153 -0.0170 -0.1502 -0.2393
 6220TIP3    H140075   1.134   0.905   5.134  1.6185 -0.5170 -1.2119
 6220TIP3    H240076   1.175   0.995   5.248 -1.6945 -0.4101  0.0077
 6221TIP3   OH240077   0.271   5.560   2.353  0.3785  0.3332 -0.8738
 6221TIP3    H140078   0.275   5.489   2.289  1.0325  1.9062 -2.6729
 6221TIP3    H240079   0.356   5.556   2.397 -0.0324 -0.6890 -0.1335
 6222TIP3   OH240080   1.526   2.076   1.937  0.0196  0.5662 -0.1973
 6222TIP3    H140081   1.458   2.110   1.996 -1.4667  0.7163 -1.9021
 6222TIP3    H240082   1.480   2.060   1.854  1.5216 -1.7614 -0.6914
 6223TIP3   OH240083   6.527   4.978  12.447  0.4481  0.3862  0.3472
 6223TIP3    H140084   6.508   5.002  12.537  3.1404 -1.1399  1.4355
 6223TIP3    H240085   6.622   4.986  12.439  0.2831  0.6531 -2.4315
 6224TIP3   OH240086   0.581   4.381   6.155 -0.0935  0.3707  0.2885
 6224TIP3    H140087   0.488   4.404   6.161 -0.0733  0.2109  1.4723
 6224TIP3    H240088   0.587   4.294   6.194  0.5967  0.5101  0.5050
 6225TIP3   OH240089   6.266   4.261  14.710  0.2536  0.6580  0.3959
 6225TIP3    H140090   6.231   4.344  14.679  1.2388  0.6130 -0.8860
 6225TIP3    H240091   6.357   4.279  14.733  0.3711  0.0150  0.4621
 6226TIP3   OH240092   2.447   0.584  13.590 -0.1434 -0.3989 -0.1880
 6226TIP3    H140093   2.474   0.650  13.654  1.6737 -1.3751  0.1190
 6226TIP3    H240094   2.406   0.515  13.643  0.9050 -0.9778 -0.1133
 6227TIP3   OH240095   4.566   1.304   3.413  0.1548  0.1555 -0.2172
 6227TIP3    H140096   4.648   1.310   3.365 -0.1622 -0.0811 -0.8031
 6227TIP3    H240097   4.511   1.246   3.360 -0.0098 -0.5806  0.7156
 6228TIP3   OH240098   1.306   5.361  12.489  0.7589 -0.0890  0.4430
 6228TIP3    H140099   1.295   5.456  12.481  1.3343  0.0261  0.9225
 6228TIP3    H240100   1.241   5.334  12.554  0.6105 -0.0171  0.3233
 6229TIP3   OH240101   1.597   2.967  12.951 -0.0919 -0.1830  0.0632
 6229TIP3    H140102   1.635   2.938  12.869 -0.9580 -1.6327  0.1278
 6229TIP3    H240103   1.531   3.032  12.926  0.4840  0.2788 -0.2681
 6230TIP3   OH240104   3.514   1.239  17.157  0.2692 -0.0518 -0.0829
 6230TIP3    H140105   3.433   1.211  17.114  1.0385  0.5026 -1.9800
 6230TIP3    H240106   3.563   1.158  17.172 -0.4278 -0.3488  0.7296
 6231TIP3   OH240107   0.269   0.935   2.214  0.0233  0.2207 -0.2620
 6231TIP3    H140108   0.277   1.014   2.160 -0.3904  0.6584  0.3073
 6231TIP3    H240109   0.185   0.945   2.258 -0.1382 -0.6550 -0.3570
 6232TIP3   OH240110   6.616   1.715  13.075  0.0249  0.2427  0.2479
 6232TIP3    H140111   6.633   1.635  13.124  1.5040 -0.1247 -0.8270
 6232TIP3    H240112   6.578   1.775  13.140  1.6505 -0.3226  1.7997
 6233TIP3   OH240113   3.705   2.967  10.709 -0.0702  0.2306 -0.2247
 6233TIP3    H140114   3.717   3.036  10.644  1.1139  1.9756  1.7123
 6233TIP3    H240115   3.656   3.008  10.780  0.5944 -0.9149  0.9602
 6234TIP3   OH240116   1.807   0.938  16.944 -0.5474  0.3231 -0.7549
 6234TIP3    H140117   1.747   0.979  17.007  1.6673 -0.6132  2.1993
 6234TIP3    H240118   1.797   0.844  16.958  1.5001  0.1377 -0.1723
 6235TIP3   OH240119   3.030   0.194  12.274 -0.4683  0.1814  0.2437
 6235TIP3    H140120   3.044   0.188  12.179  1.6879  1.6131  0.3942
 6235TIP3    H240121   2.996   0.108  12.299 -1.4611 -0.1019 -1.8625
 6236TIP3   OH240122   2.836   5.864  16.242  0.4822 -0.1493  0.0104
 6236TIP3    H140123   2.878   5.945  16.272 -0.6733  0.7158 -0.6525
 6236TIP3    H240124   2.822   5.814  16.323  0.0920  0.8506  0.5874
 6237TIP3   OH240125   3.035   2.781  17.292  0.2774  0.4545  0.6478
 6237TIP3    H140126   3.116   2.747  17.330 -0.1614 -1.1749  0.1957
 6237TIP3    H240127   3.019   2.725  17.216 -2.1935 -0.4702  1.7342
 6238TIP3   OH240128   0.722   5.945  17.139 -0.1273 -0.3096 -0.6016
 6238TIP3    H140129   0.733   5.884  17.066 -0.4174 -1.3020  0.1682
 6238TIP3    H240130   0.651   5.908  17.191  1.5715 -0.9030  1.4436
 6239TIP3   OH240131   5.076   1.427   5.051 -0.2233  0.4868 -0.3880
 6239TIP3    H140132   5.025   1.508   5.051 -0.4698  0.3501  1.0517
 6239TIP3    H240133   5.150   1.445   5.109 -0.2680 -0.3124 -0.0769
 6240TIP3   OH240134   0.689   2.237   3.820  0.6521 -0.7197  0.3938
 6240TIP3    H140135   0.752   2.173   3.787  0.0718 -0.3782 -1.5440
 6240TIP3    H240136   0.652   2.196   3.898 -0.1269 -3.0920 -1.0852
 6241TIP3   OH240137   1.737   0.780  16.507  0.2458 -0.3685 -0.3177
 6241TIP3    H140138   1.737   0.863  16.461  0.0386 -0.0633  0.2274
 6241TIP3    H240139   1.693   0.798  16.590 -0.2143 -1.1195 -0.3792
 6242TIP3   OH240140   0.894   2.057  13.454  0.2886  0.2247  0.3740
 6242TIP3    H140141   0.877   2.009  13.373  1.6211 -1.6799  1.1534
 6242TIP3    H240142   0.829   2.128  13.454 -1.0404 -0.9139 -1.3737
 6243TIP3   OH240143   6.596   4.673  11.607 -0.4008  0.3682 -0.4432
 6243TIP3    H140144   6.598   4.671  11.511 -0.3178 -1.0973 -0.4300
 6243TIP3    H240145   6.538   4.601  11.632 -0.9967  1.1796  0.6111
 6244TIP3   OH240146   3.973   5.881  12.021 -0.5036  0.0500  0.1731
 6244TIP3    H140147   3.959   5.787  12.004  0.2824  0.1296 -1.1026
 6244TIP3    H240148   3.888   5.912  12.052 -1.3643 -0.7128 -1.2734
 6245TIP3   OH240149   0.431   6.294  12.771  0.5371 -0.4178  0.2503
 6245TIP3    H140150   0.389   6.207  12.774 -1.6682  0.5630  0.1550
 6245TIP3    H240151   0.385   6.344  12.839  2.7956  0.2865  1.3419
 6246TIP3   OH240152   3.347   4.404   6.460  0.1272  0.1587  0.0495
 6246TIP3    H140153   3.388   4.319   6.473  1.6279  0.5616 -1.5915
 6246TIP3    H240154   3.327   4.435   6.549 -1.5532 -2.3297  0.6521
 6247TIP3   OH240155   5.198   6.604  16.502 -0.1052 -0.6520 -0.1621
 6247TIP3    H140156   5.279   6.553  16.503 -0.1198 -0.6711  0.2881
 6247TIP3    H240157   5.201   6.655  16.583 -0.7758 -1.0214  0.1104
 6248TIP3   OH240158   3.084   1.484  13.185  0.0686  0.1432 -0.5932
 6248TIP3    H140159   3.076   1.419  13.116 -0.1307  1.2812 -1.6856
 6248TIP3    H240160   3.178   1.501  13.191  0.4786 -2.2679  1.7162
 6249TIP3   OH240161   6.393   1.041   0.371  0.1388 -0.0308  0.0389
 6249TIP3    H140162   6.398   1.135   0.384 -0.3664  0.0397 -0.2693
 6249TIP3    H240163   6.459   1.022   0.304  0.8243 -0.0182  0.6975
 6250TIP3   OH240164   5.831   3.702  16.946 -0.4317 -0.0489 -0.2347
 6250TIP3    H140165   5.742   3.738  16.944  0.0967  1.3336 -2.0374
 6250TIP3    H240166   5.875   3.752  17.015 -0.9756 -0.6023  0.5294
 6251TIP3   OH240167   2.230   1.430  13.933  0.1403 -0.3632 -0.0835
 6251TIP3    H140168   2.323   1.407  13.926  0.5482  1.3762 -1.0945
 6251TIP3    H240169   2.231   1.518  13.970 -0.9828  0.3936 -1.7369
 6252TIP3   OH240170   2.538   0.753  13.795 -0.0421  0.0956 -0.3987
 6252TIP3    H140171   2.612   0.711  13.839  1.1394  0.4797 -1.9339
 6252TIP3    H240172   2.545   0.846  13.819 -0.3537  0.0536 -0.1292
 6253TIP3   OH240173   5.106   4.154  15.450 -0.2272  0.8791  0.2021
 6253TIP3    H140174   5.109   4.084  15.515 -0.5128 -0.6486 -1.3635
 6253TIP3    H240175   5.169   4.218  15.482 -0.8516  0.5325  2.3370
 6254TIP3   OH240176   1.920   3.435  11.489  0.3890  0.1771 -0.6743
 6254TIP3    H140177   1.957   3.426  11.401  0.3248  0.9410 -0.7789
 6254TIP3    H240178   1.919   3.529  11.506  1.1991  0.0041  0.4845
 6255TIP3   OH240179   3.709   6.758  15.733 -0.4958  0.5033  0.1050
 6255TIP3    H140180   3.803   6.771  15.720 -0.6273 -0.5392 -2.2459
 6255TIP3    H240181   3.703   6.683  15.792  0.0882  1.7375  1.8418
 6256TIP3   OH240182   3.624   4.811   5.542  0.1387 -0.6632 -0.3307
 6256TIP3    H140183   3.699   4.813   5.601  0.9124 -0.3967 -1.3121
 6256TIP3    H240184   3.602   4.718   5.535 -0.0439 -0.6897  0.4602
 6257TIP3   OH240185   3.169   6.218  16.198  0.0773 -0.3481  0.3708
 6257TIP3    H140186   3.147   6.240  16.108 -1.3987  0.4096  0.8786
 6257TIP3    H240187   3.238   6.279  16.222  0.8207 -0.8750 -0.3823
 6258TIP3   OH240188   4.246   1.409   3.096  0.4616 -0.4199  0.5037
 6258TIP3    H140189   4.159   1.417   3.135  0.2677  1.6198 -0.2129
 6258TIP3    H240190   4.304   1.452   3.158  0.3127  1.8237 -0.8139
 6259TIP3   OH240191   5.846   5.039   3.064 -0.0718  0.0299  0.2761
 6259TIP3    H140192   5.919   5.042   3.126 -0.4739  0.4640  0.7326
 6259TIP3    H240193   5.875   4.978   2.996  1.3812  1.4022 -0.3999
 6260TIP3   OH240194   3.728   3.451   1.902 -0.2242  0.0058  0.6605
 6260TIP3    H140195   3.671   3.522   1.934 -2.2982 -0.8899 -0.8445
 6260TIP3    H240196   3.773   3.420   1.981 -2.6089  0.0867  2.1736
 6261TIP3   OH240197   2.042   0.517  15.907  1.1090  0.0618  0.2952
 6261TIP3    H140198   2.041   0.609  15.881 -1.0536 -0.4250 -1.7490
 6261TIP3    H240199   2.124   0.506  15.954  1.0326  3.2220  1.4287
 6262TIP3   OH240200   0.433   1.228  16.983 -0.1420  0.2310  0.6849
 6262TIP3    H140201   0.442   1.233  17.078  3.6502 -1.6571  0.6022
 6262TIP3    H240202   0.479   1.305  16.951  2.1257 -1.1205  0.4485
 6263TIP3   OH240203   0.792   0.474   1.371 -0.3085  0.0987 -0.2946
 6263TIP3    H140204   0.768   0.383   1.353  0.0722  0.1737 -1.2383
 6263TIP3    H240205   0.839   0.502   1.293  0.8664  0.6592  0.5927
 6264TIP3   OH240206   1.683   0.986   1.544 -0.5716 -0.1466  0.4739
 6264TIP3    H140207   1.687   0.937   1.626  0.6524 -1.5944 -0.3901
 6264TIP3    H240208   1.730   0.930   1.481 -0.0383  1.6821 -0.8174
 6265TIP3   OH240209   3.569   1.000  12.925  0.2648  0.1352 -0.4402
 6265TIP3    H140210   3.506   1.070  12.941  2.6056  2.6178 -1.1409
 6265TIP3    H240211   3.542   0.928  12.982 -3.3847  0.8263 -1.0782
 6266TIP3   OH240212   3.642   4.073   4.616 -0.2935 -0.5905 -0.2010
 6266TIP3    H140213   3.604   4.088   4.703 -1.6463 -1.2870 -0.6460
 6266TIP3    H240214   3.724   4.027   4.634 -0.1433  0.0130  0.7412
 6267TIP3   OH240215   2.849   3.723   2.743 -0.0036 -0.5574 -0.4231
 6267TIP3    H140216   2.777   3.677   2.787  0.0232 -0.6033 -0.4271
 6267TIP3    H240217   2.883   3.659   2.681  0.5785 -0.8230  0.1569
 6268TIP3   OH240218   0.907   0.777  13.611  0.5050 -0.0673  0.0189
 6268TIP3    H140219   0.866   0.694  13.584 -0.9330  0.7676 -0.4733
 6268TIP3    H240220   0.835   0.827  13.649  1.6572  0.4031  1.6986
 6269TIP3   OH240221   1.140   1.796   4.956 -0.2231 -0.4015  0.3845
 6269TIP3    H140222   1.216   1.807   5.013  0.0712 -0.1760 -0.0439
 6269TIP3    H240223   1.095   1.719   4.990  0.8643 -1.2723 -0.1059
 6270TIP3   OH240224   3.022   2.136  13.092 -0.1632 -0.3447 -0.3864
 6270TIP3    H140225   3.061   2.218  13.061  0.0555  0.0051  0.7916
 6270TIP3    H240226   2.985   2.096  13.013  0.1440  0.6570 -1.0515
 6271TIP3   OH240227   1.160   0.299   4.542  0.1547 -0.6269  0.3232
 6271TIP3    H140228   1.157   0.386   4.583  0.7478 -0.7839  0.7075
 6271TIP3    H240229   1.129   0.314   4.453  2.6052  0.4637 -0.4365
 6272TIP3   OH240230   2.787   1.900   2.575 -0.1432 -0.3072 -0.9668
 6272TIP3    H140231   2.863   1.844   2.592  0.6320  1.0663  0.3474
 6272TIP3    H240232   2.721   1.840   2.538  1.1337 -1.7709 -0.9910
 6273TIP3   OH240233   1.131   6.406   3.358  0.2474 -0.2647 -0.0906
 6273TIP3    H140234   1.213   6.443   3.324  0.2333  2.0928  2.1650
 6273TIP3    H240235   1.067   6.422   3.288  1.2250 -0.1446 -0.9854
 6274TIP3   OH240236   3.884   6.740  14.211 -0.5605  0.0572  0.3100
 6274TIP3    H140237   3.965   6.693  14.194 -1.4303 -1.2618 -0.3522
 6274TIP3    H240238   3.884   6.755  14.305 -0.3415 -1.4249  0.5563
 6275TIP3   OH240239   2.606   0.544  12.387 -0.2195 -0.5517  0.2926
 6275TIP3    H140240   2.669   0.476  12.411 -0.8433 -0.4536  2.3691
 6275TIP3    H240241   2.650   0.627  12.406 -0.5141 -0.4491  0.5367
 6276TIP3   OH240242   1.665   3.933   3.993  0.2745  0.0083  0.1118
 6276TIP3    H140243   1.586   3.958   4.042 -0.9893 -1.5612 -1.0260
 6276TIP3    H240244   1.697   3.855   4.038  0.7416  0.1857  0.0937
 6277TIP3   OH240245   3.951   6.012  16.569  0.4194  0.3556  0.0626
 6277TIP3    H140246   3.931   6.105  16.561 -0.6756  0.0420 -1.1130
 6277TIP3    H240247   3.933   5.975  16.483  0.2584 -1.0512  0.6620
 6278TIP3   OH240248   2.290   3.291  15.496 -0.1598  1.0404 -0.0170
 6278TIP3    H140249   2.381   3.320  15.485  0.4132 -0.8256 -0.5243
 6278TIP3    H240250   2.243   3.333  15.424  0.9054 -0.2491 -1.5203
 6279TIP3   OH240251   6.049   3.149  13.339  0.4287 -1.0467  0.3939
 6279TIP3    H140252   6.094   3.085  13.285  1.1220 -0.5785  0.4082
 6279TIP3    H240253   6.101   3.155  13.419  2.3410  1.9320 -0.8945
 6280TIP3   OH240254   0.505   6.567   2.379 -0.3232  0.8570  0.0282
 6280TIP3    H140255   0.459   6.513   2.443  0.1049  0.8905  0.3679
 6280TIP3    H240256   0.496   6.520   2.296  0.5338 -0.0390  0.4241
 6281TIP3   OH240257   2.457   1.172  11.770  0.1245  0.0637  0.1149
 6281TIP3    H140258   2.528   1.235  11.784  0.0803  0.3057 -0.7071
 6281TIP3    H240259   2.393   1.192  11.839  0.8523 -0.1644  0.8614
 6282TIP3   OH240260   3.050   1.353   1.766 -0.0525  0.3994  0.1122
 6282TIP3    H140261   3.026   1.282   1.825 -1.3225 -0.5715 -1.4724
 6282TIP3    H240262   3.001   1.335   1.686  0.2382  2.6185 -0.6449
 6283TIP3   OH240263   0.566   3.163   1.919  0.0375  0.0699 -0.0473
 6283TIP3    H140264   0.557   3.131   1.829 -1.0861  0.7224 -0.1910
 6283TIP3    H240265   0.609   3.092   1.966  0.9470 -0.1541 -1.1707
 6284TIP3   OH240266   0.607   0.195  11.573 -0.3951  0.0028 -0.3141
 6284TIP3    H140267   0.614   0.289  11.553  0.1082 -0.3359 -1.8439
 6284TIP3    H240268   0.534   0.190  11.635  0.4957  1.5523  0.9770
 6285TIP3   OH240269   1.908   0.226  14.992 -0.4391  0.3407  0.2295
 6285TIP3    H140270   1.877   0.264  14.910  2.2606  0.7669 -0.7202
 6285TIP3    H240271   1.963   0.294  15.031 -0.1415 -0.5533  1.4353
 6286TIP3   OH240272   4.177   6.082   1.249  0.5073  0.4518  0.7205
 6286TIP3    H140273   4.112   6.043   1.191  1.2268  2.4102 -1.5980
 6286TIP3    H240274   4.139   6.165   1.277  2.1678  2.0151 -1.3148
 6287TIP3   OH240275   0.534   1.883   3.041 -0.0559 -0.4959  0.7198
 6287TIP3    H140276   0.612   1.853   2.995  0.4129  0.3684  0.9166
 6287TIP3    H240277   0.461   1.860   2.984  0.4647 -0.0763 -0.1258
 6288TIP3   OH240278   4.004   4.728   5.400  0.1931 -0.3979  0.1696
 6288TIP3    H140279   4.079   4.763   5.449  0.8585  0.3080 -1.2941
 6288TIP3    H240280   3.935   4.794   5.411  1.3920  1.4308 -2.4525
 6289TIP3   OH240281   1.840   5.741  15.419 -0.4730  0.3331 -0.4926
 6289TIP3    H140282   1.861   5.748  15.325  2.6993  0.6349  0.1339
 6289TIP3    H240283   1.823   5.831  15.446 -0.5717  0.3535 -0.6214
 6290TIP3   OH240284   2.913   4.744  13.507  0.0791 -0.0231  0.2525
 6290TIP3    H140285   2.879   4.666  13.553 -2.7554  1.3257  0.6793
 6290TIP3    H240286   2.968   4.787  13.572 -1.4101  0.2483  1.4036
 6291TIP3   OH240287   3.860   0.906  12.526  0.0019 -0.5520 -0.3302
 6291TIP3    H140288   3.775   0.901  12.571 -0.6353 -2.5470 -1.6189
 6291TIP3    H240289   3.919   0.855  12.581  0.1310 -0.0077  0.0456
 6292TIP3   OH240290   0.204   2.553  13.383  0.0621  0.5328  0.0798
 6292TIP3    H140291   0.225   2.604  13.305  0.2716  0.3812  0.0346
 6292TIP3    H240292   0.162   2.474  13.350  0.7652  0.1505  0.0670
 6293TIP3   OH240293   0.681   1.841  11.836  0.3422 -0.2194 -0.8529
 6293TIP3    H140294   0.587   1.841  11.820  0.1495 -3.7706 -0.5013
 6293TIP3    H240295   0.696   1.919  11.890 -2.5682 -0.0473 -0.1287
 6294TIP3   OH240296   4.178   1.407  15.846 -0.2015 -0.5301  0.3358
 6294TIP3    H140297   4.131   1.433  15.766 -1.0213 -3.8959 -0.4605
 6294TIP3    H240298   4.262   1.453  15.840 -1.0923  1.0426 -1.2776
 6295TIP3   OH240299   6.643   3.449   2.698 -0.0921 -0.6223  0.2649
 6295TIP3    H140300   6.548   3.462   2.697  0.0750  0.8324  0.5678
 6295TIP3    H240301   6.679   3.537   2.686  1.2277 -1.3013 -0.9389
 6296TIP3   OH240302   3.238   2.349   5.312 -1.0336 -0.1948  0.2570
 6296TIP3    H140303   3.174   2.317   5.248 -0.2381 -1.0184 -0.1415
 6296TIP3    H240304   3.315   2.369   5.259  0.3056 -2.6780  1.1494
 6297TIP3   OH240305   1.560   6.294  15.509  0.3709 -0.2052 -0.2511
 6297TIP3    H140306   1.619   6.370  15.508  0.1286 -0.0152 -0.2159
 6297TIP3    H240307   1.613   6.223  15.474 -0.1071  0.5170 -2.6367
 6298TIP3   OH240308   5.804   0.187  12.948 -0.0078  0.5406 -0.0855
 6298TIP3    H140309   5.864   0.250  12.909  1.5341 -1.7730 -1.7519
 6298TIP3    H240310   5.733   0.179  12.884 -0.1736  0.5306  0.0969
 6299TIP3   OH240311   1.944   5.991   5.650 -0.4073  0.1352  0.3558
 6299TIP3    H140312   1.984   6.008   5.735  1.3771 -1.2413 -0.1363
 6299TIP3    H240313   1.897   5.908   5.662 -2.7766  1.4465  0.7653
 6300TIP3   OH240314   1.684   2.511  11.939  0.1087  0.2608 -0.1374
 6300TIP3    H140315   1.694   2.418  11.918  1.1958  0.3341 -0.0119
 6300TIP3    H240316   1.609   2.540  11.888 -0.0420 -0.6211 -0.4197
 6301TIP3   OH240317   5.289   5.419  16.457  0.0431  0.3074  0.1965
 6301TIP3    H140318   5.284   5.413  16.362  2.0143  0.8789  0.0129
 6301TIP3    H240319   5.209   5.376  16.488  0.0691 -1.2221 -1.6625
 6302TIP3   OH240320   0.275   0.899   2.951  0.0668 -0.5821  0.5251
 6302TIP3    H140321   0.351   0.894   3.010 -0.8946 -2.6219  1.6871
 6302TIP3    H240322   0.291   0.832   2.885 -0.3020 -0.3642  0.2099
 6303TIP3   OH240323   3.217   2.722  15.915 -0.3765  0.0521 -0.1850
 6303TIP3    H140324   3.300   2.771  15.912 -0.3454  0.0009 -0.1537
 6303TIP3    H240325   3.239   2.635  15.882 -0.5773  0.2642 -0.9087
 6304TIP3   OH240326   4.351   6.055  13.947 -0.4075  0.6289  0.1250
 6304TIP3    H140327   4.377   6.147  13.951  0.3411  0.3776  1.3252
 6304TIP3    H240328   4.417   6.014  13.891  0.8269  0.3382  1.7267
 6305TIP3   OH240329   2.651   3.174   3.836 -0.0793 -0.8683 -0.1214
 6305TIP3    H140330   2.631   3.097   3.783 -0.6316 -1.5995  1.0977
 6305TIP3    H240331   2.676   3.138   3.921 -0.8590  0.3045  0.6308
 6306TIP3   OH240332   1.689   0.059   2.256 -0.3869 -0.9608  0.0725
 6306TIP3    H140333   1.749   0.029   2.324 -0.7239  0.1160  0.8811
 6306TIP3    H240334   1.627   0.115   2.302 -2.1417 -2.1614 -0.6845
 6307TIP3   OH240335   3.963   6.487   1.528  0.0013  0.1338 -0.6606
 6307TIP3    H140336   3.868   6.486   1.542 -0.3619 -1.1521 -2.6637
 6307TIP3    H240337   3.985   6.580   1.520 -0.9798  0.4787  0.3860
 6308TIP3   OH240338   6.479   6.532  16.693  0.0653  0.0434 -0.1039
 6308TIP3    H140339   6.481   6.446  16.652 -1.1791 -0.1828  0.2696
 6308TIP3    H240340   6.393   6.538  16.732  0.0369  1.5630 -0.3225
 6309TIP3   OH240341   0.722   4.526  12.806 -0.4631 -0.0900  0.3841
 6309TIP3    H140342   0.716   4.541  12.900 -1.4175  0.5588  0.2264
 6309TIP3    H240343   0.730   4.613  12.768  1.5449 -0.4190 -0.0528
 6310TIP3   OH240344   4.287   0.540   3.052  0.1782 -0.3690  0.0263
 6310TIP3    H140345   4.230   0.539   2.975 -1.9847 -0.6274  1.5302
 6310TIP3    H240346   4.309   0.632   3.064  1.0832 -0.3967 -1.2461
 6311TIP3   OH240347   1.527   6.656   5.634 -0.1877 -0.2576 -0.5582
 6311TIP3    H140348   1.490   6.623   5.551  0.3871  0.5478 -1.1457
 6311TIP3    H240349   1.497   6.593   5.699 -0.9491 -0.7180 -1.3230
 6312TIP3   OH240350   3.411   5.479   2.844 -0.7421 -0.3581  0.0403
 6312TIP3    H140351   3.463   5.449   2.769 -0.9204 -1.1332  0.2210
 6312TIP3    H240352   3.472   5.533   2.895 -0.6874  0.3894 -0.7839
 6313TIP3   OH240353   1.719   2.154   2.107 -0.3410  0.0697 -0.4890
 6313TIP3    H140354   1.647   2.124   2.052 -1.6843 -0.2692  1.3540
 6313TIP3    H240355   1.785   2.187   2.046 -2.3589  1.0777 -2.2236
 6314TIP3   OH240356   6.465   4.043   4.620  0.0088  0.3172  0.4497
 6314TIP3    H140357   6.420   3.996   4.690 -0.6494  1.6136  0.9445
 6314TIP3    H240358   6.459   3.985   4.545 -0.4158 -0.5574  1.1342
 6315TIP3   OH240359   4.989   3.659  14.755  0.6668  0.3502 -0.0944
 6315TIP3    H140360   4.950   3.724  14.696  1.2056  1.4388  0.7029
 6315TIP3    H240361   5.082   3.682  14.757  1.3399 -1.8595 -1.5363
 6316TIP3   OH240362   4.507   1.624  11.232  0.1089  0.3958  0.1829
 6316TIP3    H140363   4.500   1.563  11.159 -2.6976  1.1185 -0.2940
 6316TIP3    H240364   4.594   1.662  11.224  1.5083 -2.6102 -0.1856
 6317TIP3   OH240365   5.931   4.656  16.911  0.6303 -0.2084  0.1885
 6317TIP3    H140366   5.969   4.575  16.946 -0.1085 -1.0883 -0.9615
 6317TIP3    H240367   5.839   4.634  16.896  0.5111  0.7311 -0.4981
 6318TIP3   OH240368   6.480   3.233   2.155  0.2070 -0.1349  0.1937
 6318TIP3    H140369   6.405   3.275   2.114  0.3286  0.5997  0.7021
 6318TIP3    H240370   6.448   3.146   2.181 -1.2880  1.0339  2.6829
 6319TIP3   OH240371   1.927   6.509  15.170 -0.5342 -0.3149  0.1703
 6319TIP3    H140372   1.862   6.536  15.236  0.4725  1.4058  0.5239
 6319TIP3    H240373   1.928   6.581  15.108  0.2970 -0.8068 -0.3962
 6320TIP3   OH240374   4.646   6.056   1.688  0.2437  0.3593  0.2451
 6320TIP3    H140375   4.646   6.135   1.634  1.4508 -0.2621 -0.7103
 6320TIP3    H240376   4.718   6.069   1.749  1.1606 -0.4456 -0.6347
 6321TIP3   OH240377   5.387   1.489  11.148  0.5249  0.1851 -0.6030
 6321TIP3    H140378   5.414   1.569  11.102  0.3596  0.1959 -0.6826
 6321TIP3    H240379   5.323   1.518  11.212 -0.0383  0.0341 -1.0839
 6322TIP3   OH240380   5.471   6.691  17.249 -0.2794 -0.2097 -0.1726
 6322TIP3    H140381   5.443   6.657  17.335  2.3657  1.0197  1.2823
 6322TIP3    H240382   5.440   6.782  17.248 -0.3502 -0.2369 -0.5508
 6323TIP3   OH240383   6.368   1.945   1.436 -0.1631 -0.0707 -0.2849
 6323TIP3    H140384   6.348   1.909   1.522 -1.3605 -1.2109 -1.0092
 6323TIP3    H240385   6.422   1.879   1.394 -0.2399  0.1248 -0.6970
 6324TIP3   OH240386   3.749   4.166   1.963 -0.6132 -0.5769  0.1666
 6324TIP3    H140387   3.787   4.101   2.024 -1.9304 -1.7096 -0.1751
 6324TIP3    H240388   3.736   4.244   2.017  2.3015 -0.0543  0.2714
 6325TIP3   OH240389   6.015   3.641   2.459  0.3903  0.8302  0.1168
 6325TIP3    H140390   6.106   3.650   2.487  0.6909  0.2047 -0.6372
 6325TIP3    H240391   5.968   3.706   2.511  1.1200  0.5339  1.1966
 6326TIP3   OH240392   3.520   1.640   3.191  0.2046  0.0418 -0.4519
 6326TIP3    H140393   3.574   1.669   3.265 -0.8651  2.4215 -0.5112
 6326TIP3    H240394   3.430   1.645   3.224 -0.2399  0.2790 -1.6438
 6327TIP3   OH240395   0.847   0.656   0.311 -0.3572  0.3755 -0.8357
 6327TIP3    H140396   0.867   0.627   0.400 -0.7494  2.2638 -0.0746
 6327TIP3    H240397   0.753   0.676   0.313  0.1663  3.2160 -0.7646
 6328TIP3   OH240398   1.600   1.019   3.523  0.1199 -0.1169 -0.5374
 6328TIP3    H140399   1.653   1.076   3.468  0.7279  0.7384  0.8640
 6328TIP3    H240400   1.514   1.062   3.527 -0.4490 -1.0345 -2.0844
 6329TIP3   OH240401   5.791   1.142  13.698  0.2645  0.3158  0.5426
 6329TIP3    H140402   5.837   1.215  13.658  0.9130  0.7054  1.9362
 6329TIP3    H240403   5.718   1.182  13.744  0.3020  0.0274  0.8583
 6330TIP3   OH240404   6.235   2.409  15.987 -0.1815  0.5434  0.3310
 6330TIP3    H140405   6.265   2.500  15.979 -3.3497  1.6190 -0.9242
 6330TIP3    H240406   6.154   2.415  16.037 -1.3433 -1.3420 -1.1919
 6331TIP3   OH240407   0.749   2.701   2.552 -0.3953 -0.2824  0.2322
 6331TIP3    H140408   0.745   2.796   2.542 -0.0235 -0.3116 -0.2441
 6331TIP3    H240409   0.659   2.672   2.534 -0.4252 -0.0520  0.0013
 6332TIP3   OH240410   3.671   5.432  15.976 -0.0015 -0.2807 -0.1721
 6332TIP3    H140411   3.665   5.340  16.005  1.8042 -0.8389 -1.4152
 6332TIP3    H240412   3.602   5.440  15.910 -2.4394  0.2865  2.2598
 6333TIP3   OH240413   2.940   3.141   2.958  0.5031  0.2592  0.1885
 6333TIP3    H140414   2.960   3.127   3.050  1.7596 -1.0842 -0.2645
 6333TIP3    H240415   2.991   3.219   2.934  0.8380  0.1125  0.4209
 6334TIP3   OH240416   1.800   6.441  16.257  0.2439 -0.1650 -0.0300
 6334TIP3    H140417   1.765   6.411  16.340 -0.7099 -2.0184 -1.0383
 6334TIP3    H240418   1.797   6.537  16.263 -2.2357 -0.2273  1.0850
 6335TIP3   OH240419   2.835   6.201   5.042  0.5110 -0.1940 -0.3860
 6335TIP3    H140420   2.839   6.152   5.125  1.4890  1.4391  0.5944
 6335TIP3    H240421   2.814   6.135   4.976  2.6731 -2.1441  0.7119
 6336TIP3   OH240422   4.581   0.531  13.824  0.0280 -0.0196 -1.1767
 6336TIP3    H140423   4.574   0.612  13.774 -0.2050 -1.4954 -3.6910
 6336TIP3    H240424   4.505   0.480  13.797 -1.4533 -0.0943  2.4625
 6337TIP3   OH240425   6.616   6.417   1.916  0.4188  0.6062  0.0206
 6337TIP3    H140426   6.648   6.490   1.863  0.0181  1.2980  0.7153
 6337TIP3    H240427   6.566   6.363   1.854  2.0137  0.0504 -0.8483
 6338TIP3   OH240428   3.976   2.488   3.444  0.0881  0.3911  0.7011
 6338TIP3    H140429   3.924   2.427   3.496 -0.0376  0.9027  1.1875
 6338TIP3    H240430   3.935   2.488   3.358 -0.6010  0.6502  1.0283
 6339TIP3   OH240431   5.050   0.732   1.487  0.1302 -0.4276 -0.2260
 6339TIP3    H140432   5.003   0.675   1.425  2.0460 -1.8524 -0.4657
 6339TIP3    H240433   5.010   0.714   1.572 -0.9279 -0.2390 -0.6611
 6340TIP3   OH240434   6.266   5.446   5.302  0.5113 -0.6829 -0.1006
 6340TIP3    H140435   6.234   5.359   5.326  1.5071 -0.4700  2.3536
 6340TIP3    H240436   6.360   5.442   5.319  0.4311  1.1275  1.0861
 6341TIP3   OH240437   0.704   5.534   5.630  0.4776 -0.0263  0.1434
 6341TIP3    H140438   0.694   5.498   5.542 -0.0413 -0.1526  0.2497
 6341TIP3    H240439   0.719   5.627   5.616  1.5875 -0.2322 -0.1251
 6342TIP3   OH240440   2.321   0.807  13.158  0.4756 -0.0900 -0.0143
 6342TIP3    H140441   2.388   0.789  13.224  0.2520 -0.0043  0.2397
 6342TIP3    H240442   2.251   0.852  13.206  0.5926  0.5654 -0.4379
 6343TIP3   OH240443   5.595   0.880  17.214  0.6731 -0.9354 -0.1043
 6343TIP3    H140444   5.608   0.902  17.307 -0.5416 -1.0070  0.1025
 6343TIP3    H240445   5.631   0.792  17.205  0.5341 -1.0497  0.3830
 6344TIP3   OH240446   3.277   5.103  12.178  0.3493 -0.5960 -0.1047
 6344TIP3    H140447   3.211   5.036  12.159  0.6191 -0.9932  0.3354
 6344TIP3    H240448   3.269   5.118  12.272 -0.3366  0.6740 -0.3353
 6345TIP3   OH240449   3.656   0.339   0.650 -0.0684 -0.4793  0.3824
 6345TIP3    H140450   3.615   0.271   0.703 -1.7647  0.4827  0.3829
 6345TIP3    H240451   3.640   0.420   0.699  1.5298 -0.0129  0.1703
 6346TIP3   OH240452   2.497   1.759   4.950 -0.0496  0.5128 -0.7378
 6346TIP3    H140453   2.513   1.685   4.893  0.9311 -0.4279  0.6902
 6346TIP3    H240454   2.428   1.729   5.009 -1.8747  1.8680 -2.0588
 6347TIP3   OH240455   3.773   3.733   4.525  0.0614 -0.3649  0.0159
 6347TIP3    H140456   3.838   3.695   4.585 -1.3991  1.1561  2.7551
 6347TIP3    H240457   3.699   3.673   4.529 -0.0664 -0.2260 -0.2376
 6348TIP3   OH240458   3.775   4.292   2.704  0.1664 -0.0436  0.1077
 6348TIP3    H140459   3.717   4.351   2.656  2.5529  1.6273 -0.9402
 6348TIP3    H240460   3.750   4.302   2.795  0.6040  2.8362 -0.0113
 6349TIP3   OH240461   2.656   2.610  12.237  0.2848 -0.2208  0.1231
 6349TIP3    H140462   2.702   2.605  12.153  1.6976  1.3616  0.7358
 6349TIP3    H240463   2.587   2.675  12.222  1.7618  1.5564  0.6457
 6350TIP3   OH240464   5.790   6.138   0.718  0.4731  0.7710  0.3322
 6350TIP3    H140465   5.790   6.067   0.654  0.3614  0.2880  0.8554
 6350TIP3    H240466   5.763   6.215   0.669 -0.3315  0.2656 -0.0547
 6351TIP3   OH240467   3.092   0.795  10.797  0.3144 -0.4156 -0.1224
 6351TIP3    H140468   3.178   0.807  10.757 -0.1888  0.0059 -1.1018
 6351TIP3    H240469   3.070   0.880  10.834  0.9343 -0.8906  1.4192
 6352TIP3   OH240470   4.765   0.445  17.149  0.4996  0.0316 -0.2046
 6352TIP3    H140471   4.763   0.438  17.054  2.0529  0.9317 -0.3364
 6352TIP3    H240472   4.780   0.356  17.180  3.0943  0.1242 -0.9912
 6353TIP3   OH240473   3.950   6.051   2.892 -0.5823 -0.0491  0.4341
 6353TIP3    H140474   4.010   6.075   2.821 -2.0018  0.7829 -0.5259
 6353TIP3    H240475   3.964   5.957   2.904 -0.2978 -0.2116 -0.9546
 6354TIP3   OH240476   5.829   2.707  14.972  0.3763  0.1215 -0.0494
 6354TIP3    H140477   5.786   2.704  14.887  0.1357 -0.6117  0.0924
 6354TIP3    H240478   5.823   2.618  15.006  1.3729  0.1671  0.2928
 6355TIP3   OH240479   6.141   0.298  15.604  0.5005  0.2836 -0.5945
 6355TIP3    H140480   6.076   0.240  15.562  0.3099 -0.4192  0.6276
 6355TIP3    H240481   6.152   0.370  15.542 -3.4080  1.8089  0.1985
 6356TIP3   OH240482   2.631   0.606  16.235  0.5661 -0.4047 -0.3647
 6356TIP3    H140483   2.586   0.664  16.297  2.0171  1.0052 -0.5797
 6356TIP3    H240484   2.603   0.636  16.149  1.1852 -0.1598 -0.4772
 6357TIP3   OH240485   1.670   3.103   0.414  0.1256  0.7989 -0.6175
 6357TIP3    H140486   1.694   3.053   0.336  0.4043 -0.6799  0.3673
 6357TIP3    H240487   1.745   3.159   0.432  0.2764  0.7522 -1.1147
 6358TIP3   OH240488   4.197   4.787  12.962 -0.4157 -0.3360 -0.8880
 6358TIP3    H140489   4.143   4.709  12.970  0.3772 -0.8378 -0.2817
 6358TIP3    H240490   4.287   4.755  12.965 -0.0761  0.5449 -1.2185
 6359TIP3   OH240491   4.123   1.769   0.506  0.1572 -0.4608  0.4957
 6359TIP3    H140492   4.099   1.807   0.422 -0.7495 -1.4025  0.3165
 6359TIP3    H240493   4.140   1.844   0.562 -0.6565  0.1954 -0.1210
 6360TIP3   OH240494   5.511   1.985   3.964  0.0983 -0.7493 -0.0608
 6360TIP3    H140495   5.458   1.926   3.911 -0.9267 -0.1267  0.2344
 6360TIP3    H240496   5.492   1.960   4.054  0.1085 -0.3552  0.0541
 6361TIP3   OH240497   5.053   4.726   1.196  0.1557 -0.4969 -0.6695
 6361TIP3    H140498   5.147   4.723   1.208  0.1290  0.1314 -0.2432
 6361TIP3    H240499   5.018   4.668   1.265  0.1419  0.8697  0.5062
 6362TIP3   OH240500   3.625   6.619  16.656 -0.0346  0.4125 -0.5695
 6362TIP3    H140501   3.637   6.525  16.648  1.3898  0.5307 -0.1092
 6362TIP3    H240502   3.673   6.643  16.735  0.9340  1.7439 -1.5192
 6363TIP3   OH240503   4.394   1.387  16.232  0.4234 -0.3878  0.1763
 6363TIP3    H140504   4.361   1.322  16.170 -2.0361 -1.0772  2.0605
 6363TIP3    H240505   4.316   1.425  16.272  1.8712  0.8292  2.0654
 6364TIP3   OH240506   2.187   6.580   5.672 -0.5991 -0.6582  0.3474
 6364TIP3    H140507   2.155   6.611   5.757 -1.1035  0.5478 -0.2579
 6364TIP3    H240508   2.277   6.553   5.689 -0.3362  0.5912  1.0534
 6365TIP3   OH240509   1.490   5.266   2.046  0.0494  0.2068 -0.3052
 6365TIP3    H140510   1.564   5.219   2.007  0.3911  0.9187 -0.5311
 6365TIP3    H240511   1.429   5.279   1.973  0.3774  0.9251 -0.4644
 6366TIP3   OH240512   3.255   2.362   4.057  0.4605 -0.3381  0.1361
 6366TIP3    H140513   3.324   2.404   4.006  0.4506 -0.4006  0.0709
 6366TIP3    H240514   3.208   2.307   3.994 -1.2757  1.6394 -0.4115
 6367TIP3   OH240515   2.109   5.821  13.919  0.2769 -0.0970  0.4981
 6367TIP3    H140516   2.081   5.900  13.873  2.0003  0.1213 -0.2300
 6367TIP3    H240517   2.109   5.846  14.011  1.1452  0.8832  0.2467
 6368TIP3   OH240518   3.960   4.177   4.072 -0.5859 -0.2718  0.2967
 6368TIP3    H140519   3.949   4.134   3.986  2.5171 -0.2536 -0.2485
 6368TIP3    H240520   4.020   4.120   4.119  2.3115  2.4335  0.2202
 6369TIP3   OH240521   6.564   0.198   3.273 -0.1071 -0.9050  0.1051
 6369TIP3    H140522   6.473   0.225   3.291 -0.1783 -0.4013 -0.9064
 6369TIP3    H240523   6.617   0.272   3.302  0.1155 -1.7179  1.9096
 6370TIP3   OH240524   5.610   5.554  10.302 -0.2637  0.8030  0.2882
 6370TIP3    H140525   5.548   5.557  10.375 -1.7655 -0.9222 -0.8296
 6370TIP3    H240526   5.575   5.616  10.239 -1.6690 -1.0546 -0.8684
 6371TIP3   OH240527   1.713   3.299   4.779 -0.5901 -0.0209 -0.2771
 6371TIP3    H140528   1.722   3.364   4.848 -1.4634  1.0559 -1.1420
 6371TIP3    H240529   1.629   3.256   4.796  0.0996 -1.1467  0.4414
 6372TIP3   OH240530   5.536   0.220   6.093  0.6182  0.1065  0.6473
 6372TIP3    H140531   5.497   0.305   6.074  0.3575  0.0718  1.0112
 6372TIP3    H240532   5.602   0.238   6.160  1.8988  0.3103 -0.6161
 6373TIP3   OH240533   2.912   1.290  11.304  0.1940 -0.1531 -0.2929
 6373TIP3    H140534   2.954   1.375  11.295 -2.5922  1.7143  2.2765
 6373TIP3    H240535   2.819   1.308  11.296 -0.5289 -2.8951  0.7088
 6374TIP3   OH240536   2.403   6.040  12.282 -0.3869  0.0758 -0.5697
 6374TIP3    H140537   2.416   5.945  12.290  0.5341  0.0667 -1.8653
 6374TIP3    H240538   2.487   6.073  12.251 -0.0129  1.6390  1.8910
 6375TIP3   OH240539   4.122   3.736   4.944  0.0444 -0.5383 -0.8887
 6375TIP3    H140540   4.030   3.711   4.947  0.2787 -1.3804 -0.6463
 6375TIP3    H240541   4.163   3.689   5.016  0.1723  1.9349  0.7842
 6376TIP3   OH240542   3.591   3.179  14.980  0.3372  0.4487  0.4652
 6376TIP3    H140543   3.587   3.102  15.035 -1.3497  0.1710  0.0166
 6376TIP3    H240544   3.665   3.230  15.014  0.4193 -0.5431  1.8317
 6377TIP3   OH240545   6.218   5.187   2.227 -0.0586 -0.3101  0.1116
 6377TIP3    H140546   6.169   5.216   2.149  0.2715  1.0459  0.3850
 6377TIP3    H240547   6.176   5.105   2.252 -0.3907 -0.6093 -1.2974
 6378TIP3   OH240548   2.653   1.098   4.780 -0.1772  0.6029 -0.5086
 6378TIP3    H140549   2.591   1.037   4.819 -0.5936  1.1098 -0.3774
 6378TIP3    H240550   2.718   1.041   4.738  0.2936  0.0417  0.9249
 6379TIP3   OH240551   3.799   4.936   1.939 -0.0096  0.1098  0.4585
 6379TIP3    H140552   3.820   5.008   1.998  0.3802  0.6624 -0.3432
 6379TIP3    H240553   3.871   4.935   1.876 -1.5354  0.9953 -1.3899
 6380TIP3   OH240554   0.716   1.878   5.897 -0.1696  0.3300  0.0740
 6380TIP3    H140555   0.710   1.807   5.961 -1.6995  0.6775  0.3585
 6380TIP3    H240556   0.770   1.945   5.940  1.2001 -0.5882 -0.1582
 6381TIP3   OH240557   2.264   0.449   5.593  0.0703  0.0671  0.0689
 6381TIP3    H140558   2.278   0.517   5.527 -1.8818  0.2590 -0.2123
 6381TIP3    H240559   2.332   0.384   5.576  1.7847  1.7618  0.1333
 6382TIP3   OH240560   0.157   2.749  16.300 -0.0136  0.1815  0.3250
 6382TIP3    H140561   0.145   2.707  16.216  1.1845  0.2128  0.1209
 6382TIP3    H240562   0.135   2.841  16.284 -0.7561  0.0076  0.3030
 6383TIP3   OH240563   4.144   1.733   4.662  0.1471  0.3900 -0.5489
 6383TIP3    H140564   4.214   1.716   4.725 -0.9422 -0.9153  0.3650
 6383TIP3    H240565   4.146   1.828   4.648  0.1858  0.7789  1.7553
 6384TIP3   OH240566   1.282   3.724  12.628 -0.1800  0.1874 -0.2962
 6384TIP3    H140567   1.202   3.776  12.638 -1.1096 -0.8834 -1.6612
 6384TIP3    H240568   1.353   3.785  12.647 -1.3030  1.2559  0.6622
 6385TIP3   OH240569   4.268   6.778  12.456  0.1445 -0.1624 -0.2877
 6385TIP3    H140570   4.179   6.806  12.477 -0.2713 -0.7817 -1.1546
 6385TIP3    H240571   4.307   6.759  12.542  0.7382  3.6788  0.4482
 6386TIP3   OH240572   3.627   3.715  12.921  0.2153  0.4361 -0.3733
 6386TIP3    H140573   3.625   3.652  12.850 -2.4804  0.5059 -0.4501
 6386TIP3    H240574   3.612   3.800  12.879 -1.2234  0.4960  0.2105
 6387TIP3   OH240575   4.860   5.541   2.285  0.0726  0.8390  0.0435
 6387TIP3    H140576   4.815   5.456   2.281  0.7860  0.4110  0.8286
 6387TIP3    H240577   4.793   5.605   2.261 -0.8115  0.1720  0.6756
 6388TIP3   OH240578   6.747   2.286   3.144  0.6451  0.0404 -0.0053
 6388TIP3    H140579   6.748   2.361   3.084  0.1959  0.8450  0.9634
 6388TIP3    H240580   6.839   2.269   3.163  0.8112 -0.4003 -1.1157
 6389TIP3   OH240581   6.601   4.709  14.178  0.3195  0.1810 -0.2130
 6389TIP3    H140582   6.648   4.789  14.153 -0.5708  0.6915 -0.3229
 6389TIP3    H240583   6.557   4.733  14.260  2.9872 -1.3748  1.8187
 6390TIP3   OH240584   6.643   2.305   5.378  0.1796  0.1812  0.5680
 6390TIP3    H140585   6.555   2.284   5.410  0.2005 -1.1594 -0.1675
 6390TIP3    H240586   6.627   2.347   5.293  0.2394 -0.5547  0.1798
 6391TIP3   OH240587   6.305   3.096   1.715  0.0409  0.5070  0.3345
 6391TIP3    H140588   6.247   3.172   1.707 -1.0968 -0.3339  0.4740
 6391TIP3    H240589   6.257   3.034   1.769  0.9782 -0.3077  0.2651
 6392TIP3   OH240590   0.961   2.031  14.860 -0.1489 -0.2584  0.5956
 6392TIP3    H140591   0.896   2.081  14.811  0.7234  0.7851  0.4478
 6392TIP3    H240592   1.025   2.097  14.887  0.9599 -1.2884  0.5373
 6393TIP3   OH240593   2.801   4.787  16.399  0.0668 -0.1520 -0.3343
 6393TIP3    H140594   2.711   4.819  16.405  0.2848  0.2260  1.0874
 6393TIP3    H240595   2.839   4.835  16.325 -0.7845 -0.0545 -0.7180
 6394TIP3   OH240596   2.641   2.769  11.832  0.1850  0.1905  0.0442
 6394TIP3    H140597   2.717   2.805  11.786  0.6666  0.3519  0.9400
 6394TIP3    H240598   2.621   2.833  11.900 -0.0030 -0.4253  0.5766
 6395TIP3   OH240599   3.233   3.406   2.268 -0.1425  0.4370  0.0275
 6395TIP3    H140600   3.229   3.408   2.363 -0.8880 -0.6239  0.0376
 6395TIP3    H240601   3.266   3.492   2.243  0.2841  0.6444  1.2479
 6396TIP3   OH240602   1.083   0.232  17.118  0.1458  0.6328  0.1232
 6396TIP3    H140603   1.060   0.320  17.149 -0.0260  0.9957 -0.9983
 6396TIP3    H240604   1.009   0.206  17.064 -0.1940 -0.5724  1.1311
 6397TIP3   OH240605   0.416   5.619   6.568  0.3443  0.3160  0.3310
 6397TIP3    H140606   0.502   5.597   6.604 -0.2852 -1.1358  1.0200
 6397TIP3    H240607   0.369   5.659   6.641 -0.1258 -0.4372  0.4476
 6398TIP3   OH240608   1.900   3.808  14.579 -0.4260 -0.0017  0.4282
 6398TIP3    H140609   1.815   3.780  14.545 -0.5187  1.2295 -0.4319
 6398TIP3    H240610   1.957   3.732  14.566 -0.7789 -0.0151 -1.3543
 6399TIP3   OH240611   1.359   1.966   4.269  0.4736 -0.1849 -0.4584
 6399TIP3    H140612   1.280   1.922   4.238 -0.5360 -0.5349  2.3204
 6399TIP3    H240613   1.327   2.048   4.307  1.1034 -1.0732  2.2222
 6400TIP3   OH240614   0.848   3.951  16.289 -0.0198 -0.2131 -0.2444
 6400TIP3    H140615   0.825   3.859  16.293  3.3949 -1.3553 -2.4694
 6400TIP3    H240616   0.920   3.961  16.351 -0.3068  0.9746 -0.0648
 6401TIP3   OH240617   0.392   5.756   4.083  0.2390  0.5243 -0.5203
 6401TIP3    H140618   0.408   5.668   4.118  0.9535  1.3155  1.2466
 6401TIP3    H240619   0.312   5.785   4.128 -0.1013  0.7255 -1.2420
 6402TIP3   OH240620   4.251   2.666  16.448 -0.0033 -0.7092 -0.0434
 6402TIP3    H140621   4.210   2.701  16.370 -2.6812 -1.5244  0.8890
 6402TIP3    H240622   4.309   2.596  16.417  3.8138  2.7862 -1.7321
 6403TIP3   OH240623   2.502   2.541  10.782  0.6392 -0.2738  0.4025
 6403TIP3    H140624   2.590   2.574  10.766  0.8684 -0.6107  0.9169
 6403TIP3    H240625   2.452   2.565  10.704  1.4947 -1.1608 -0.4421
 6404TIP3   OH240626   2.980   5.353   2.844 -0.0386 -0.1739  0.0746
 6404TIP3    H140627   2.998   5.446   2.859 -0.5338  0.2520 -1.7220
 6404TIP3    H240628   2.920   5.352   2.769  3.4600 -2.0100 -3.0464
 6405TIP3   OH240629   1.028   3.028   4.847  0.2735 -0.5615  0.0558
 6405TIP3    H140630   0.987   2.966   4.788  0.6082 -1.4162  0.7035
 6405TIP3    H240631   1.030   2.983   4.932  1.0628  0.0997  0.4008
 6406TIP3   OH240632   1.609   2.595  14.882  0.1310  0.6210  0.4865
 6406TIP3    H140633   1.581   2.556  14.799  1.0635 -0.9664  0.8670
 6406TIP3    H240634   1.589   2.528  14.947  3.9569 -0.3950  0.8794
 6407TIP3   OH240635   6.095   4.993   1.466  0.3759 -0.4219 -0.9994
 6407TIP3    H140636   6.073   5.071   1.415  1.8648 -0.2246 -1.3783
 6407TIP3    H240637   6.147   5.027   1.539  0.5949 -1.0108 -0.8791
 6408TIP3   OH240638   5.565   3.250   0.847 -0.1121  0.1377  0.1921
 6408TIP3    H140639   5.632   3.195   0.806 -0.0437  0.1062  0.3458
 6408TIP3    H240640   5.483   3.225   0.804  0.0385  0.4812 -0.3006
 6409TIP3   OH240641   3.510   3.294  13.164 -0.0413 -0.1620  0.7421
 6409TIP3    H140642   3.601   3.268  13.164  1.2480  3.6242  1.6408
 6409TIP3    H240643   3.492   3.322  13.074 -0.5271 -1.3866  0.4417
 6410TIP3   OH240644   4.279   6.027  16.167 -0.1986 -0.3204  0.1701
 6410TIP3    H140645   4.207   5.963  16.172 -1.0232  0.5936  0.3023
 6410TIP3    H240646   4.309   6.021  16.076  0.6981 -1.8914  0.5256
 6411TIP3   OH240647   1.323   3.385   2.015 -0.3021  0.5275  0.1838
 6411TIP3    H140648   1.271   3.358   2.092  1.2846  0.5735  1.3195
 6411TIP3    H240649   1.271   3.454   1.974 -0.6557  1.3457  1.9197
 6412TIP3   OH240650   6.202   6.719   5.767 -0.0207 -0.6898 -0.2423
 6412TIP3    H140651   6.246   6.720   5.852 -2.7776  0.3173  1.2721
 6412TIP3    H240652   6.196   6.811   5.742  3.6028 -1.0261 -3.2857
 6413TIP3   OH240653   6.182   0.852  13.356  0.2905 -0.3947  0.1885
 6413TIP3    H140654   6.253   0.883  13.299  0.3261  0.3070  0.6083
 6413TIP3    H240655   6.225   0.798  13.422  0.4866  0.3487  0.6734
 6414TIP3   OH240656   2.972   6.415  12.527 -0.9195  0.0236  0.3715
 6414TIP3    H140657   2.988   6.509  12.533  2.2116 -0.2550 -1.7086
 6414TIP3    H240658   2.912   6.405  12.453 -1.4271  0.3739  0.7318
 6415TIP3   OH240659   3.500   1.448   4.432 -0.3966  0.0417 -0.0197
 6415TIP3    H140660   3.595   1.439   4.425 -0.4561 -0.3978 -0.3499
 6415TIP3    H240661   3.467   1.410   4.350 -0.8740 -0.1113  0.2418
 6416TIP3   OH240662   2.975   2.104   2.646 -0.3665  0.4278  0.1527
 6416TIP3    H140663   2.891   2.064   2.624  0.7938 -2.0197 -0.0676
 6416TIP3    H240664   3.015   2.045   2.710  0.4745  2.4595  1.6178
 6417TIP3   OH240665   4.121   3.591  13.881  0.4691  0.2757  0.2781
 6417TIP3    H140666   4.062   3.659  13.912 -1.0587 -0.5381 -0.7080
 6417TIP3    H240667   4.120   3.524  13.950  2.9137  1.6736  1.8215
 6418TIP3   OH240668   3.505   6.201   0.313 -0.3968 -0.1263 -0.4523
 6418TIP3    H140669   3.526   6.146   0.389  2.0769  0.5011 -0.6147
 6418TIP3    H240670   3.510   6.141   0.238  3.5986  0.3735 -0.7920
 6419TIP3   OH240671   4.102   5.125   6.367 -0.4506 -0.1155  0.4865
 6419TIP3    H140672   4.117   5.032   6.347  0.0155  0.2888 -1.1761
 6419TIP3    H240673   4.016   5.144   6.328  0.1274  0.4958 -0.5388
 6420TIP3   OH240674   0.180   2.593  16.003 -0.3185  0.3883 -0.3430
 6420TIP3    H140675   0.273   2.570  16.002 -0.6618 -1.1663  0.4903
 6420TIP3    H240676   0.179   2.688  15.991  1.3737  0.4617 -0.1976
 6421TIP3   OH240677   1.582   2.231  17.261  0.4034  0.5806  0.4673
 6421TIP3    H140678   1.580   2.229  17.357  2.2272  3.1038  0.6948
 6421TIP3    H240679   1.669   2.198  17.239  0.4353  1.0937 -0.2125
 6422TIP3   OH240680   4.459   6.641   2.977  0.1506 -0.1607 -0.2704
 6422TIP3    H140681   4.507   6.620   3.057 -0.7572 -1.1482  0.0400
 6422TIP3    H240682   4.394   6.570   2.968 -0.4335  0.4744 -1.3277
 6423TIP3   OH240683   1.731   0.573  15.680 -0.3164 -0.0187 -0.2156
 6423TIP3    H140684   1.680   0.537  15.607 -1.4774 -1.4563  1.2246
 6423TIP3    H240685   1.711   0.515  15.753  2.0958  0.3897  0.8565
 6424TIP3   OH240686   1.120   4.301   4.242  0.4092  0.4199 -0.2992
 6424TIP3    H140687   1.030   4.274   4.222  1.1596 -0.9012 -2.1664
 6424TIP3    H240688   1.148   4.241   4.311 -0.0175  0.6582  0.0936
 6425TIP3   OH240689   3.100   1.884   4.823  0.8190 -0.1625  0.2637
 6425TIP3    H140690   3.063   1.841   4.746 -1.8713 -0.0898  1.4305
 6425TIP3    H240691   3.031   1.943   4.854  2.5023  1.1729  1.7113
 6426TIP3   OH240692   5.603   0.142  16.451 -0.5147 -0.1917 -0.0958
 6426TIP3    H140693   5.621   0.075  16.384  0.5058 -0.6738  0.6303
 6426TIP3    H240694   5.554   0.096  16.519 -0.6177  0.0318 -0.0175
 6427TIP3   OH240695   6.083   0.061  11.831 -0.1607 -0.2495 -0.2358
 6427TIP3    H140696   6.148   0.030  11.769  0.5717  0.6462  0.0674
 6427TIP3    H240697   6.001   0.060  11.782  0.6053  1.7602 -1.7009
 6428TIP3   OH240698   6.003   1.474  10.298  0.3739 -0.2519  0.1867
 6428TIP3    H140699   6.049   1.530  10.361 -2.1376  0.3961  1.5970
 6428TIP3    H240700   6.008   1.387  10.335 -1.6357  0.2260  1.7244
 6429TIP3   OH240701   3.350   5.343   3.271  0.4628  0.1880  0.2706
 6429TIP3    H140702   3.314   5.361   3.184  1.4468 -0.8828 -0.3896
 6429TIP3    H240703   3.315   5.257   3.293  1.1130 -0.0316  0.4435
 6430TIP3   OH240704   3.202   1.699   3.851 -0.0976 -0.2216 -0.6007
 6430TIP3    H140705   3.147   1.661   3.783 -0.3807 -0.8257 -0.0292
 6430TIP3    H240706   3.141   1.735   3.915  0.1393 -1.4523  0.3551
 6431TIP3   OH240707   2.372   3.339   1.399 -0.5112 -0.1260 -0.6714
 6431TIP3    H140708   2.364   3.419   1.450 -1.6784 -0.9856  0.5590
 6431TIP3    H240709   2.365   3.268   1.463 -0.6285 -1.2267 -1.8478
 6432TIP3   OH240710   1.708   2.715   1.922  0.0424 -0.3863 -0.6717
 6432TIP3    H140711   1.750   2.782   1.869 -0.3448 -1.0912 -1.9141
 6432TIP3    H240712   1.630   2.757   1.957  0.0709 -0.0374 -1.0286
 6433TIP3   OH240713   6.303   5.165   5.247 -0.0579 -0.5178  0.1041
 6433TIP3    H140714   6.349   5.186   5.166  3.5706 -1.5856  1.6890
 6433TIP3    H240715   6.305   5.070   5.252 -3.0943 -0.6807  0.0453
 6434TIP3   OH240716   4.356   1.194   3.793 -0.5127  0.6171 -0.5557
 6434TIP3    H140717   4.364   1.278   3.839 -1.2583  0.6314 -0.4425
 6434TIP3    H240718   4.442   1.181   3.752  0.1180  0.6693  0.7020
 6435TIP3   OH240719   1.069   4.729   4.718  0.6999 -0.2038  0.4468
 6435TIP3    H140720   1.111   4.645   4.735  0.6676 -0.1816  0.6449
 6435TIP3    H240721   0.976   4.708   4.710  0.6538 -0.1435  0.8201
 6436TIP3   OH240722   0.371   5.736  12.347  0.3637  0.2168  0.1655
 6436TIP3    H140723   0.412   5.720  12.263  0.3877  2.1973 -0.2471
 6436TIP3    H240724   0.445   5.744  12.409  0.3318 -4.3875  1.1545
 6437TIP3   OH240725   5.022   3.529  12.085 -0.4182 -0.3982  0.2804
 6437TIP3    H140726   5.089   3.565  12.143 -1.2794  0.4251  0.7928
 6437TIP3    H240727   4.953   3.596  12.083 -1.2157 -1.2112 -0.2480
 6438TIP3   OH240728   2.245   4.892  11.583 -0.4223 -0.1683  0.4323
 6438TIP3    H140729   2.209   4.862  11.666 -2.1636 -0.3780 -0.3586
 6438TIP3    H240730   2.331   4.848  11.577 -0.2215 -0.0709  2.1290
 6439TIP3   OH240731   4.678   0.601  11.552  0.5630  0.7150  0.1312
 6439TIP3    H140732   4.708   0.546  11.624 -0.2107  1.6898  1.2483
 6439TIP3    H240733   4.695   0.550  11.473 -1.0330 -1.5737  1.1395
 6440TIP3   OH240734   5.290   2.202  15.399 -0.3996  0.4933 -0.3817
 6440TIP3    H140735   5.381   2.221  15.423 -0.8849  1.2990  0.8769
 6440TIP3    H240736   5.287   2.216  15.304  0.8926 -0.0156 -0.5198
 6441TIP3   OH240737   2.859   1.337   0.616 -0.1505  0.2719  0.3072
 6441TIP3    H140738   2.899   1.389   0.686 -0.8323 -0.9380  1.6713
 6441TIP3    H240739   2.902   1.367   0.536  2.9142 -0.3573  1.5479
 6442TIP3   OH240740   0.838   3.322  14.810  0.0247 -0.5519  0.0467
 6442TIP3    H140741   0.931   3.306  14.822  0.0934 -1.1290 -1.0415
 6442TIP3    H240742   0.814   3.265  14.736 -0.3221  2.4080 -2.3226
 6443TIP3   OH240743   1.474   0.090  12.345  0.5262  0.1453 -0.1816
 6443TIP3    H140744   1.550   0.137  12.311 -0.2554  0.7967 -1.0846
 6443TIP3    H240745   1.507   0.043  12.422  1.1096  3.1243  1.5227
 6444TIP3   OH240746   5.621   6.166   4.533  0.0427 -0.0787  0.2005
 6444TIP3    H140747   5.663   6.251   4.518  0.8355 -0.0379  2.2996
 6444TIP3    H240748   5.527   6.184   4.525  0.2085  0.9649  0.4196
 6445TIP3   OH240749   3.153   4.586   4.606  0.0584 -0.7625 -0.3775
 6445TIP3    H140750   3.086   4.619   4.546  1.2990  0.7791 -1.0067
 6445TIP3    H240751   3.209   4.531   4.552  0.8668  0.1953 -0.5512
 6446TIP3   OH240752   3.730   4.178  11.739  0.2935 -0.3060 -0.2794
 6446TIP3    H140753   3.701   4.249  11.796  0.6948  1.0679 -1.7189
 6446TIP3    H240754   3.723   4.099  11.793  0.1196  0.8556  1.4611
 6447TIP3   OH240755   3.665   0.116  13.179  0.4198  0.0277  0.2002
 6447TIP3    H140756   3.590   0.133  13.122  0.5566 -0.0072  0.0078
 6447TIP3    H240757   3.727   0.187  13.159  0.7525 -0.3659 -0.1895
 6448TIP3   OH240758   1.242   3.718   1.212  0.3623  0.1604 -0.1444
 6448TIP3    H140759   1.172   3.670   1.168  0.5454  0.7429 -1.1035
 6448TIP3    H240760   1.211   3.808   1.216  0.5203  0.1928  0.5877
 6449TIP3   OH240761   6.522   5.177  11.560 -0.7093  0.2198  0.0859
 6449TIP3    H140762   6.612   5.208  11.570  0.0278 -0.9967 -2.2021
 6449TIP3    H240763   6.479   5.243  11.506  0.0113 -1.0948 -2.2214
 6450TIP3   OH240764   5.565   4.204   0.726 -0.2072 -0.0972  1.1219
 6450TIP3    H140765   5.557   4.163   0.812  0.2008 -0.8443  0.8230
 6450TIP3    H240766   5.644   4.164   0.688 -1.0537 -0.6949 -0.0692
 6451TIP3   OH240767   3.105   2.229   3.855 -0.4576 -0.1572 -0.0925
 6451TIP3    H140768   3.145   2.292   3.795 -0.4932 -0.0812 -0.0372
 6451TIP3    H240769   3.087   2.152   3.802 -0.1222 -0.2379 -0.0870
 6452TIP3   OH240770   6.169   6.125  14.678 -0.4160  0.1714 -0.1349
 6452TIP3    H140771   6.246   6.073  14.704  1.2116  2.9554  1.0510
 6452TIP3    H240772   6.199   6.175  14.602 -1.2185  0.9041  0.0222
 6453TIP3   OH240773   4.035   2.764  11.189  0.2114 -0.2403 -0.2502
 6453TIP3    H140774   4.069   2.707  11.258  1.8043 -0.5178 -1.2082
 6453TIP3    H240775   3.988   2.832  11.235  1.7264 -0.0883  1.1782
 6454TIP3   OH240776   1.777   0.585  14.109  0.0652  0.1417 -0.1417
 6454TIP3    H140777   1.686   0.585  14.140  0.0987  1.0808 -0.0142
 6454TIP3    H240778   1.780   0.654  14.044 -0.1066 -2.0690 -2.6686
 6455TIP3   OH240779   2.998   1.294   4.621 -0.2796  0.0686  0.9088
 6455TIP3    H140780   2.991   1.388   4.638 -0.7842  0.0872  0.6057
 6455TIP3    H240781   2.926   1.275   4.561  0.2630 -0.3742  0.3874
 6456TIP3   OH240782   1.034   0.346  16.143 -0.3619  0.4443  0.6092
 6456TIP3    H140783   1.049   0.280  16.210  0.0049 -0.3740 -0.2534
 6456TIP3    H240784   1.109   0.405  16.149 -0.0545  0.0573  0.5621
 6457TIP3   OH240785   6.419   4.838  16.166  0.1268 -0.4312  0.4165
 6457TIP3    H140786   6.498   4.827  16.113 -0.9584  2.4442 -2.1355
 6457TIP3    H240787   6.431   4.923  16.208 -1.4313 -0.1025  0.2423
 6458TIP3   OH240788   2.800   4.196   0.135  0.3869  0.2632  0.1358
 6458TIP3    H140789   2.805   4.214   0.041 -1.2616  1.4680  0.2431
 6458TIP3    H240790   2.818   4.280   0.177 -0.0114 -0.0093  0.8758
 6459TIP3   OH240791   2.463   6.106  11.994 -0.1444 -0.2493  0.1414
 6459TIP3    H140792   2.459   6.086  11.900  0.5384 -0.3023  0.1183
 6459TIP3    H240793   2.537   6.055  12.026  0.0749  0.3278  0.5653
 6460TIP3   OH240794   1.039   5.499  16.953 -0.0393 -0.3097  0.0868
 6460TIP3    H140795   0.987   5.522  17.030 -1.0253 -2.2666  0.0774
 6460TIP3    H240796   1.002   5.416  16.924  0.4822  0.2616 -2.3745
 6461TIP3   OH240797   0.130   1.184  15.287 -0.2876  0.4481  0.4621
 6461TIP3    H140798   0.057   1.242  15.266 -2.1818 -2.1912 -0.8162
 6461TIP3    H240799   0.154   1.206  15.377 -2.8530  1.2363  1.0158
 6462TIP3   OH240800   5.938   4.849  14.074 -0.6531 -0.4932 -0.1695
 6462TIP3    H140801   5.844   4.847  14.093 -0.7237 -0.6344 -0.5249
 6462TIP3    H240802   5.944   4.874  13.982 -0.3571 -0.7904 -0.2358
 6463TIP3   OH240803   1.152   2.339   2.167  0.3506  0.4003  0.0046
 6463TIP3    H140804   1.172   2.421   2.213  1.5269 -0.2374  0.6854
 6463TIP3    H240805   1.099   2.365   2.092  1.7230  1.9246 -0.4714
 6464TIP3   OH240806   3.141   1.052   4.599 -0.2713  0.1802  0.0059
 6464TIP3    H140807   3.211   1.082   4.541 -1.2420  1.3966 -0.5714
 6464TIP3    H240808   3.106   1.132   4.638  0.8949 -0.6129  2.9719
 6465TIP3   OH240809   3.509   4.161   5.782 -0.6343 -0.8589 -0.5891
 6465TIP3    H140810   3.565   4.083   5.781 -0.5284 -0.8903  2.0265
 6465TIP3    H240811   3.420   4.126   5.786 -0.6073 -0.8514  0.1296
 6466TIP3   OH240812   2.098   6.083  10.799 -0.0056 -0.1683 -0.6178
 6466TIP3    H140813   2.055   6.083  10.885  0.3873  0.4331 -0.4162
 6466TIP3    H240814   2.080   6.170  10.763 -2.4763 -1.2720 -2.3477
 6467TIP3   OH240815   6.020   3.732  12.467 -0.1987  0.1049  0.1394
 6467TIP3    H140816   5.938   3.736  12.417  0.9506 -0.7211 -1.9483
 6467TIP3    H240817   6.065   3.814  12.445  0.2578 -0.2032 -0.0803
 6468TIP3   OH240818   1.767   6.319   4.083  0.6243  0.4562  0.3366
 6468TIP3    H140819   1.744   6.231   4.112  1.5904  0.2137  0.4181
 6468TIP3    H240820   1.762   6.372   4.163 -0.2165  0.5373  0.2364
 6469TIP3   OH240821   3.021   0.798   0.472  0.0675 -0.0588 -0.4398
 6469TIP3    H140822   3.019   0.894   0.475  0.9674  0.0013 -1.1719
 6469TIP3    H240823   2.943   0.774   0.423 -1.8682  0.0997  2.3597
 6470TIP3   OH240824   4.751   2.195   1.001 -0.4760  0.0098 -0.2788
 6470TIP3    H140825   4.716   2.130   1.062 -1.7999  0.6791 -0.3031
 6470TIP3    H240826   4.779   2.268   1.057 -0.1880 -0.0377 -0.3567
 6471TIP3   OH240827   6.607   1.586   2.249 -0.6944  0.1965 -1.0727
 6471TIP3    H140828   6.691   1.621   2.279 -0.2507 -1.2432 -0.5293
 6471TIP3    H240829   6.541   1.640   2.293 -0.0707  1.2196 -1.3605
 6472TIP3   OH240830   3.719   1.317  11.986  0.5725 -0.2300 -0.2882
 6472TIP3    H140831   3.643   1.353  11.940  0.4077  1.9513  1.5571
 6472TIP3    H240832   3.794   1.350  11.937  0.3812  1.3086  0.4131
 6473TIP3   OH240833   2.769   6.335   3.255 -0.1366  0.1834  0.5244
 6473TIP3    H140834   2.695   6.295   3.300 -1.0546  1.4075  0.1605
 6473TIP3    H240835   2.841   6.273   3.268 -0.4461  0.2833  3.2868
 6474TIP3   OH240836   1.030   3.892  12.631  0.3530  0.6053  0.7589
 6474TIP3    H140837   1.003   3.935  12.713  0.8764  0.8287  0.8241
 6474TIP3    H240838   1.071   3.963  12.581  2.3889 -0.0397  1.3906
 6475TIP3   OH240839   6.485   1.684  14.920 -0.2442  0.0192  0.0298
 6475TIP3    H140840   6.566   1.646  14.887 -0.0449  0.8136 -0.4181
 6475TIP3    H240841   6.502   1.778  14.924 -0.5281  0.0257  1.6864
 6476TIP3   OH240842   1.589   6.450   2.023 -0.0033 -0.2402  0.2625
 6476TIP3    H140843   1.507   6.479   2.064  0.4774  0.5952  0.6505
 6476TIP3    H240844   1.653   6.452   2.093  0.9274  1.6143 -0.5493
 6477TIP3   OH240845   2.146   4.294  14.246  0.1093  0.0415  0.5433
 6477TIP3    H140846   2.159   4.363  14.311 -1.9573  0.4448  0.5791
 6477TIP3    H240847   2.051   4.290  14.233  0.2383 -2.1742 -0.1441
 6478TIP3   OH240848   1.390   2.742  11.302 -0.3514 -0.2033 -0.0452
 6478TIP3    H140849   1.404   2.699  11.218  1.8023 -0.3457  0.3370
 6478TIP3    H240850   1.300   2.777  11.296 -0.3273 -0.3644 -2.3059
 6479TIP3   OH240851   2.416   0.323  10.485 -0.3020 -0.1354 -0.0788
 6479TIP3    H140852   2.362   0.400  10.506  0.5534  1.1029 -2.0582
 6479TIP3    H240853   2.478   0.316  10.557 -0.0591  1.3999 -0.1062
 6480TIP3   OH240854   2.658   2.976   0.011 -0.1291  0.1062 -0.4070
 6480TIP3    H140855   2.692   2.923  -0.060 -0.5435 -1.6087  0.6145
 6480TIP3    H240856   2.703   3.060   0.003  1.1941 -0.6838 -1.5639
 6481TIP3   OH240857   2.330   1.887   3.065 -0.0499 -0.3658  0.3729
 6481TIP3    H140858   2.369   1.808   3.103 -0.3272 -0.5147  0.3478
 6481TIP3    H240859   2.369   1.892   2.977 -1.4819 -1.5597 -0.3675
 6482TIP3   OH240860   1.440   5.568   5.520  0.2286 -0.5331  0.2624
 6482TIP3    H140861   1.439   5.480   5.557  0.7981 -0.9167 -0.6170
 6482TIP3    H240862   1.418   5.625   5.594  2.0254 -1.2006  1.3856
 6483TIP3   OH240863   2.594   2.828  15.277 -0.2678  0.1105  0.2835
 6483TIP3    H140864   2.607   2.747  15.325  1.2779  0.6329  0.8085
 6483TIP3    H240865   2.678   2.844  15.234 -1.3784  0.0081 -2.0964
 6484TIP3   OH240866   4.555   1.873   2.825 -0.1529  0.2150  0.2858
 6484TIP3    H140867   4.608   1.899   2.750  0.9785 -0.8060  0.7070
 6484TIP3    H240868   4.514   1.791   2.799  0.4082 -0.2510  0.8481
 6485TIP3   OH240869   4.568   0.781  12.355 -0.0615 -0.3985  0.1701
 6485TIP3    H140870   4.482   0.811  12.324 -0.0663 -1.3435 -0.7768
 6485TIP3    H240871   4.627   0.797  12.282  0.5988  0.2729  0.8273
 6486TIP3   OH240872   1.574   1.809  14.821 -0.0111 -0.0703 -0.2071
 6486TIP3    H140873   1.563   1.838  14.730  0.1648  1.1348  0.1332
 6486TIP3    H240874   1.495   1.839  14.865 -0.4593 -1.3523 -0.1136
 6487TIP3   OH240875   5.576   5.338   0.532 -0.0174  0.2827  0.2360
 6487TIP3    H140876   5.511   5.402   0.559 -0.6818  0.0529 -0.7785
 6487TIP3    H240877   5.657   5.365   0.576 -0.7649  0.6189  1.4375
 6488TIP3   OH240878   4.693   3.216   2.304  0.2603 -0.5430  0.7702
 6488TIP3    H140879   4.722   3.138   2.257 -1.5454 -1.0658  0.4712
 6488TIP3    H240880   4.691   3.285   2.238  1.3447 -0.3467  0.9226
 6489TIP3   OH240881   1.716   4.568   4.069  0.0416  0.3640  0.2846
 6489TIP3    H140882   1.731   4.648   4.119 -0.1020 -0.0937  1.0634
 6489TIP3    H240883   1.621   4.563   4.060  0.0817  0.6762 -0.4357
 6490TIP3   OH240884   6.221   3.997  14.630 -0.3876 -0.1121  0.1903
 6490TIP3    H140885   6.217   4.083  14.671 -0.6322  0.3515 -0.8029
 6490TIP3    H240886   6.252   3.939  14.700  0.4465  0.8896  0.6760
 6491TIP3   OH240887   2.930   0.804  15.825 -0.0467  1.0624 -0.6376
 6491TIP3    H140888   3.020   0.787  15.797 -0.5453 -2.8920 -0.4297
 6491TIP3    H240889   2.881   0.815  15.744  0.3370  1.4010 -0.8254
 6492TIP3   OH240890   0.019   2.192  10.989 -0.0237 -0.2070 -0.4837
 6492TIP3    H140891   0.004   2.255  10.919 -0.7835  0.4370  0.2353
 6492TIP3    H240892   0.010   2.244  11.069 -0.1144 -1.1244  0.1062
 6493TIP3   OH240893   1.708   2.279  13.773 -0.1802 -0.4229 -0.1177
 6493TIP3    H140894   1.633   2.243  13.726 -0.1471  1.1380 -1.4482
 6493TIP3    H240895   1.695   2.251  13.863 -0.3345 -3.4074 -0.9566
 6494TIP3   OH240896   0.484   6.010   5.737  0.7364  0.4966  0.2657
 6494TIP3    H140897   0.447   6.093   5.769 -0.8889  0.1688 -0.6313
 6494TIP3    H240898   0.473   6.014   5.642  1.8780 -0.1983  0.0902
 6495TIP3   OH240899   0.474   5.872  10.686  0.3691 -0.0639  0.1809
 6495TIP3    H140900   0.508   5.948  10.733 -0.1927  0.3176 -0.0248
 6495TIP3    H240901   0.542   5.851  10.621  0.4494  0.3560  0.1298
 6496TIP3   OH240902   1.945   2.968   6.494  0.1481  0.4187  0.4130
 6496TIP3    H140903   1.962   3.020   6.573 -0.7000 -0.0587  0.9218
 6496TIP3    H240904   1.862   2.924   6.512 -0.3690  0.7711 -0.9886
 6497TIP3   OH240905   5.050   2.559  13.426  0.0506 -0.7545  0.1404
 6497TIP3    H140906   4.977   2.601  13.382 -0.1838 -1.0233  0.2694
 6497TIP3    H240907   5.127   2.585  13.375  0.2082  1.5982  1.4337
 6498TIP3   OH240908   4.743   6.395   3.896  0.3078 -0.1819 -0.5390
 6498TIP3    H140909   4.693   6.378   3.816 -0.6791 -0.6492  0.1416
 6498TIP3    H240910   4.834   6.383   3.871  0.0516  0.1762 -1.7057
 6499TIP3   OH240911   5.706   2.898  13.192  0.3396 -0.0278 -0.1868
 6499TIP3    H140912   5.792   2.858  13.179 -1.1316 -3.1022 -1.2851
 6499TIP3    H240913   5.652   2.862  13.122 -1.9530  1.6197  0.6124
 6500TIP3   OH240914   6.242   1.678   4.863  0.6635 -0.1039  0.0381
 6500TIP3    H140915   6.239   1.628   4.945  0.0576 -0.5361 -0.2369
 6500TIP3    H240916   6.163   1.731   4.864  1.4854  1.1696  0.5019
 6501TIP3   OH240917   1.806   3.495  11.880 -0.1050 -0.0867  0.2514
 6501TIP3    H140918   1.742   3.547  11.831 -0.2867 -0.3285  0.2302
 6501TIP3    H240919   1.764   3.410  11.891  0.2691 -0.2896  0.1227
 6502TIP3   OH240920   5.903   4.218  17.219  0.3831 -0.2107  0.2052
 6502TIP3    H140921   5.935   4.130  17.202 -0.1369 -0.4951  0.6744
 6502TIP3    H240922   5.972   4.275  17.186  0.8193 -0.7949  0.0926
 6503TIP3   OH240923   3.239   4.279   0.342  0.6218  0.2583 -0.1484
 6503TIP3    H140924   3.195   4.250   0.422  0.5103  1.5590  0.2823
 6503TIP3    H240925   3.182   4.251   0.271  0.2598 -0.0908  0.2770
 6504TIP3   OH240926   4.864   6.016   2.561 -0.2198  0.2588  0.4993
 6504TIP3    H140927   4.930   6.025   2.492 -0.0465  2.2108  0.8694
 6504TIP3    H240928   4.867   5.923   2.584 -1.3558 -0.8292 -3.1188
 6505TIP3   OH240929   4.801   0.733  12.698  0.1133 -0.0561 -0.1873
 6505TIP3    H140930   4.789   0.656  12.753 -1.5476  1.4376  1.6922
 6505TIP3    H240931   4.714   0.774  12.693  1.3578  3.1078  1.1720
 6506TIP3   OH240932   3.535   2.162   1.182 -0.4850 -0.3046 -0.1846
 6506TIP3    H140933   3.513   2.180   1.274  1.0631  0.0676  0.1456
 6506TIP3    H240934   3.467   2.102   1.152 -2.5301  1.5815  0.4176
 6507TIP3   OH240935   2.018   0.648   1.827 -0.3793  0.3677 -0.2420
 6507TIP3    H140936   2.105   0.629   1.792 -1.2219 -1.5446 -1.4653
 6507TIP3    H240937   2.027   0.734   1.867  2.3181 -0.1846  0.5459
 6508TIP3   OH240938   4.581   5.380  13.374 -0.3265 -0.0700  0.2865
 6508TIP3    H140939   4.557   5.327  13.297  1.1681 -1.4146  0.6929
 6508TIP3    H240940   4.498   5.396  13.418 -0.9528 -1.2929 -0.3661
 6509TIP3   OH240941   1.365   5.536   0.259 -0.0734 -0.1576  0.5040
 6509TIP3    H140942   1.389   5.578   0.176  2.5014  0.2916  1.3576
 6509TIP3    H240943   1.323   5.455   0.233 -0.8620  0.7462 -1.2243
 6510TIP3   OH240944   3.566   2.059   4.126  0.2535  0.0029  0.0658
 6510TIP3    H140945   3.536   1.976   4.090  0.8394 -0.4944  0.7022
 6510TIP3    H240946   3.636   2.087   4.068 -0.1475  0.2168 -0.3248
 6511TIP3   OH240947   0.486   4.296  12.962 -0.3122  0.0975 -0.0935
 6511TIP3    H140948   0.446   4.367  12.912  0.5183  0.0458 -0.8620
 6511TIP3    H240949   0.519   4.236  12.895  0.3172 -0.2568  0.5260
 6512TIP3   OH240950   0.017   4.192   5.464 -0.8438  0.2845  0.0701
 6512TIP3    H140951  -0.069   4.150   5.452 -1.5970  2.1448 -1.4854
 6512TIP3    H240952  -0.003   4.284   5.481  0.8436  0.5677  0.7320
 6513TIP3   OH240953   4.410   2.729  11.843  0.3230 -0.5883 -0.0052
 6513TIP3    H140954   4.497   2.713  11.807 -0.0900 -1.0632 -0.8312
 6513TIP3    H240955   4.393   2.654  11.899  0.7647 -0.0931  0.8115
 6514TIP3   OH240956   4.726   0.915  13.332  0.3117  0.4699  0.3427
 6514TIP3    H140957   4.715   1.009  13.347 -0.6513  0.4093  0.0319
 6514TIP3    H240958   4.658   0.874  13.385 -1.0580  0.0946 -1.5840
 6515TIP3   OH240959   3.088   6.389   5.475  0.3452  0.0541 -0.0581
 6515TIP3    H140960   3.026   6.428   5.413 -0.3379 -0.3481  0.3629
 6515TIP3    H240961   3.084   6.295   5.457  0.1082 -0.0703  0.6183
 6516TIP3   OH240962   6.595   5.803  15.590 -0.3540  0.1193  0.5897
 6516TIP3    H140963   6.674   5.761  15.554  0.9396  2.2438  0.7764
 6516TIP3    H240964   6.525   5.775  15.532  0.5310 -1.6953  0.3000
 6517TIP3   OH240965   3.376   3.657   2.253 -0.5655  0.7958  0.4741
 6517TIP3    H140966   3.447   3.695   2.306 -0.0137 -1.4490  1.4758
 6517TIP3    H240967   3.420   3.620   2.177 -0.6673 -0.4524  1.0101
 6518TIP3   OH240968   6.587   3.025   3.613  0.3121  0.1422 -0.2584
 6518TIP3    H140969   6.652   3.038   3.544  0.0622  0.0928 -0.5020
 6518TIP3    H240970   6.613   2.944   3.656 -0.7866 -1.0320 -1.7062
 6519TIP3   OH240971   1.790   3.345  12.633 -0.2699  0.2705 -0.3104
 6519TIP3    H140972   1.754   3.316  12.717  0.5278 -0.4189 -0.1915
 6519TIP3    H240973   1.725   3.406  12.599  0.3298  2.2529  1.7999
 6520TIP3   OH240974   6.040   0.532   5.092  0.3298  0.2240 -0.0085
 6520TIP3    H140975   5.962   0.564   5.048  0.3723 -1.1568 -1.1451
 6520TIP3    H240976   6.090   0.488   5.024  0.8282 -1.1931  1.2321
 6521TIP3   OH240977   0.400   5.064   0.861 -0.2151 -0.4185 -0.1110
 6521TIP3    H140978   0.489   5.079   0.892 -0.9245 -0.2386  1.9270
 6521TIP3    H240979   0.348   5.134   0.900 -1.4942 -1.3097 -0.1523
 6522TIP3   OH240980   3.570   3.487  15.322  0.2933 -0.6925  0.5466
 6522TIP3    H140981   3.544   3.396  15.337  0.8558 -0.7535  1.1956
 6522TIP3    H240982   3.622   3.510  15.399  1.3585 -0.2871 -0.2635
 6523TIP3   OH240983   4.568   6.666   3.826 -0.2418  0.1961  0.6276
 6523TIP3    H140984   4.526   6.659   3.912  1.8933  0.5108  1.7907
 6523TIP3    H240985   4.532   6.593   3.776 -2.1498  0.4879  1.4883
 6524TIP3   OH240986   3.421   5.367  13.638  0.5181 -0.4687  0.1172
 6524TIP3    H140987   3.354   5.428  13.607  0.9754 -0.2155 -0.3947
 6524TIP3    H240988   3.493   5.377  13.575  0.9150 -0.9528  0.4887
 6525TIP3   OH240989   3.261   6.018   3.848 -0.0452 -0.2541  0.0128
 6525TIP3    H140990   3.224   6.046   3.931  0.8229  0.5488  0.1351
 6525TIP3    H240991   3.318   6.089   3.821 -0.2749 -0.5187 -1.2572
 6526TIP3   OH240992   1.356   1.877  15.076  0.0607 -0.0820 -0.5655
 6526TIP3    H140993   1.280   1.845  15.124  0.2289 -0.2341 -0.3938
 6526TIP3    H240994   1.342   1.971  15.067  0.8604  0.2784  1.3713
 6527TIP3   OH240995   1.361   4.843   4.781 -0.6057  0.0887 -0.0432
 6527TIP3    H140996   1.270   4.821   4.801 -0.5706  0.6743  0.7966
 6527TIP3    H240997   1.412   4.794   4.845 -0.3249 -0.2545 -0.5270
 6528TIP3   OH240998   3.425   4.651   5.323  0.8650 -0.3123  0.3762
 6528TIP3    H140999   3.359   4.586   5.297  0.3745 -0.0031  0.8329
 6528TIP3    H241000   3.487   4.602   5.377  0.8122 -0.5228  0.2484
 6529TIP3   OH241001   1.694   6.281  15.869  0.8158  0.1241  0.0776
 6529TIP3    H141002   1.779   6.237  15.875  1.3653  0.9857 -1.0989
 6529TIP3    H241003   1.689   6.313  15.779 -0.4230  0.7521  0.3441
 6530TIP3   OH241004   3.463   3.934  16.740  0.0170 -0.2655  0.0640
 6530TIP3    H141005   3.392   3.991  16.712 -0.0921 -0.7486 -0.7000
 6530TIP3    H241006   3.542   3.976  16.706  0.3670  1.3409  2.6176
 6531TIP3   OH241007   0.690   0.426   6.824 -0.0315 -0.2553 -0.6074
 6531TIP3    H141008   0.694   0.345   6.773 -2.0503  0.4040 -1.8855
 6531TIP3    H241009   0.613   0.416   6.879 -1.6048  1.6006 -2.3194
 6532TIP3   OH241010   5.937   3.626  14.834 -0.2418  0.2380  0.5310
 6532TIP3    H141011   5.905   3.555  14.777  0.1091 -0.3925  1.1021
 6532TIP3    H241012   5.961   3.582  14.916 -0.8161  1.1409  1.2051
 6533TIP3   OH241013   3.099   3.486  14.839  0.0405  0.3272 -0.0715
 6533TIP3    H141014   3.158   3.495  14.914  0.6908 -0.0085 -0.5356
 6533TIP3    H241015   3.154   3.452  14.769 -0.2242  1.9471 -1.1186
 6534TIP3   OH241016   0.000   1.261   5.392 -0.0779 -0.0854 -0.1351
 6534TIP3    H141017  -0.087   1.221   5.396  0.0222 -0.8691 -3.0911
 6534TIP3    H241018  -0.014   1.346   5.351  0.3143  0.8646  1.6164
 6535TIP3   OH241019   3.060   4.418   4.111 -0.6780 -0.1406  0.0176
 6535TIP3    H141020   2.983   4.399   4.058 -1.0047 -0.5247  0.6198
 6535TIP3    H241021   3.044   4.374   4.194  0.3350 -0.4907  0.0461
 6536TIP3   OH241022   0.803   5.847  15.791  0.2893  0.3274 -0.8388
 6536TIP3    H141023   0.884   5.807  15.821  1.0215  0.8440 -2.0640
 6536TIP3    H241024   0.767   5.890  15.869  0.3686 -1.2080  0.0795
 6537TIP3   OH241025   5.275   4.368  16.938 -0.6016 -0.4092 -0.2616
 6537TIP3    H141026   5.362   4.331  16.922 -0.5062 -0.3198  0.0397
 6537TIP3    H241027   5.259   4.352  17.031 -0.8767 -0.3587 -0.3012
 6538TIP3   OH241028   1.276   0.140  12.146 -0.0388 -0.2289 -0.3469
 6538TIP3    H141029   1.310   0.217  12.101 -1.3617 -0.4710 -1.8904
 6538TIP3    H241030   1.323   0.137  12.229  0.1280  2.1538 -0.2955
 6539TIP3   OH241031   0.768   4.353  15.284 -0.0632  0.1647 -0.2765
 6539TIP3    H141032   0.705   4.337  15.354  0.1975  1.3299  0.2510
 6539TIP3    H241033   0.845   4.302  15.310 -0.6904 -1.0667 -0.7995
 6540TIP3   OH241034   6.349   5.257   3.380  0.0309  0.2404 -0.5076
 6540TIP3    H141035   6.278   5.195   3.365 -0.8260  0.8475  0.8332
 6540TIP3    H241036   6.315   5.318   3.446  0.4803  2.7337 -2.4182
 6541TIP3   OH241037   0.364   4.094   5.943  0.6306  0.1986  0.5693
 6541TIP3    H141038   0.334   4.076   6.032  0.4043  0.3912  0.5339
 6541TIP3    H241039   0.421   4.021   5.921  1.2866  0.5255  1.1501
 6542TIP3   OH241040   5.572   5.210  13.616 -0.4445 -0.0398 -0.6094
 6542TIP3    H141041   5.500   5.176  13.563 -0.5131  2.1821 -2.0733
 6542TIP3    H241042   5.530   5.244  13.695 -0.5089 -2.0153  0.2777
 6543TIP3   OH241043   6.384   0.323  13.761 -0.0107 -0.5228 -0.1035
 6543TIP3    H141044   6.351   0.381  13.830  1.1049 -0.5289  0.4476
 6543TIP3    H241045   6.322   0.336  13.689 -0.4224  0.5120  0.3992
 6544TIP3   OH241046   3.173   2.822  11.339  0.7472  0.3783 -0.1221
 6544TIP3    H141047   3.190   2.771  11.419  1.4001  1.6730  0.5990
 6544TIP3    H241048   3.107   2.771  11.291  2.1980 -1.7319 -0.0098
 6545TIP3   OH241049   1.461   0.515   4.173  0.5558  0.0665  0.5244
 6545TIP3    H141050   1.474   0.598   4.127 -1.6419  0.6631  0.8767
 6545TIP3    H241051   1.436   0.539   4.261 -2.1052 -0.8496  0.1115
 6546TIP3   OH241052   0.423   5.737  15.699 -0.2776  0.0549 -0.0567
 6546TIP3    H141053   0.395   5.765  15.786 -1.1497 -1.7456  0.2796
 6546TIP3    H241054   0.367   5.787  15.639 -0.7843  0.1233  0.4698
 6547TIP3   OH241055   6.583   5.414   4.530 -0.0329  0.1559  0.5935
 6547TIP3    H141056   6.611   5.376   4.613  2.3828  1.2797  0.3621
 6547TIP3    H241057   6.629   5.362   4.463 -0.5113  0.4339  0.0392
 6548TIP3   OH241058   3.952   1.826  10.988  0.0880 -0.1901  0.2950
 6548TIP3    H141059   4.045   1.822  10.967  0.2289  1.5679  0.4296
 6548TIP3    H241060   3.911   1.865  10.910 -0.3468  0.1667  0.6928
 6549TIP3   OH241061   1.936   5.838   2.226 -0.2917  0.2020 -0.6214
 6549TIP3    H141062   2.030   5.837   2.211 -0.5843  2.0873 -3.2618
 6549TIP3    H241063   1.904   5.755   2.191  0.1119  0.7473 -2.3341
 6550TIP3   OH241064   5.229   4.773   1.887  0.0793 -0.3095 -0.0714
 6550TIP3    H141065   5.226   4.743   1.796  1.9963 -3.0614  0.6249
 6550TIP3    H241066   5.319   4.805   1.898  0.0558 -0.5712  0.9826
 6551TIP3   OH241067   5.542   0.136   2.371  0.5375  0.0243 -0.1385
 6551TIP3    H141068   5.524   0.175   2.285  0.9663  0.4559 -0.0339
 6551TIP3    H241069   5.596   0.201   2.416  0.7133 -0.4083  0.2805
 6552TIP3   OH241070   4.409   4.090   0.394  0.2081 -0.5742 -0.0204
 6552TIP3    H141071   4.478   4.057   0.452  0.8994 -1.1214 -1.0990
 6552TIP3    H241072   4.340   4.120   0.453  0.3791 -2.1630  1.0783
 6553TIP3   OH241073   4.361   1.320  14.160  0.3782 -0.0794 -0.4967
 6553TIP3    H141074   4.333   1.385  14.097 -2.8492 -0.9179 -0.0934
 6553TIP3    H241075   4.371   1.239  14.110 -0.4810 -0.3518 -0.2481
 6554TIP3   OH241076   4.692   1.491  16.551 -0.5590  0.6727  0.3889
 6554TIP3    H141077   4.652   1.478  16.638 -1.5017 -4.0356 -0.4616
 6554TIP3    H241078   4.786   1.485  16.567 -0.7422 -0.8516  1.0757
 6555TIP3   OH241079   5.252   4.159  13.595 -0.1043  0.2350 -0.3238
 6555TIP3    H141080   5.266   4.125  13.506 -0.8774 -1.5482  0.2003
 6555TIP3    H241081   5.157   4.151  13.609 -0.6834  4.2768 -0.7574
 6556TIP3   OH241082   2.225   4.446  14.959 -0.5748 -0.2777 -0.4120
 6556TIP3    H141083   2.309   4.433  15.004  0.8207  1.5548 -2.2685
 6556TIP3    H241084   2.246   4.435  14.866 -2.0080  1.7612 -1.0489
 6557TIP3   OH241085   1.800   6.204   4.717  0.2442  0.4549 -0.5160
 6557TIP3    H141086   1.884   6.158   4.729  0.2444  0.0099 -2.0392
 6557TIP3    H241087   1.822   6.297   4.726  0.5477  0.2638  0.9403
 6558TIP3   OH241088   1.371   2.328  15.764  0.4771 -0.0150 -0.1780
 6558TIP3    H141089   1.315   2.403  15.745  0.9243 -0.1157 -2.2332
 6558TIP3    H241090   1.327   2.254  15.723  2.1515 -0.0428 -2.1163
 6559TIP3   OH241091   2.861   1.531   1.901  0.1599  0.2654 -0.5308
 6559TIP3    H141092   2.910   1.483   1.834 -1.5162 -0.3091 -1.3770
 6559TIP3    H241093   2.770   1.504   1.890 -0.2827  0.6776  1.5402
 6560TIP3   OH241094   4.041   6.340  14.804  0.2460 -0.3995  0.0588
 6560TIP3    H141095   4.028   6.435  14.813  0.3804 -0.4661  1.1261
 6560TIP3    H241096   3.970   6.302  14.856  1.3898 -0.8427  1.3285
 6561TIP3   OH241097   0.947   5.536  13.195 -0.4863 -0.2862 -0.0264
 6561TIP3    H141098   0.911   5.515  13.109  0.0754 -1.9046  0.1132
 6561TIP3    H241099   0.891   5.488  13.256 -0.0844 -0.1800  0.4238
 6562TIP3   OH241100   6.531   3.747   0.377 -0.3624 -0.5130  0.2854
 6562TIP3    H141101   6.594   3.818   0.373 -1.0952  0.2386  1.5361
 6562TIP3    H241102   6.550   3.703   0.460  0.8401 -2.5443 -0.9789
 6563TIP3   OH241103   0.891   0.010  15.333  0.3838  0.0329  0.3833
 6563TIP3    H141104   0.966  -0.037  15.299 -0.9625 -1.6956 -0.3423
 6563TIP3    H241105   0.831   0.019  15.259 -1.7648 -2.0924  1.6947
 6564TIP3   OH241106   4.579   3.210   6.089 -0.0252  0.2015  0.2996
 6564TIP3    H141107   4.539   3.138   6.138 -1.1724  0.6586  0.0693
 6564TIP3    H241108   4.539   3.289   6.124 -1.8447  0.4875 -2.1524
 6565TIP3   OH241109   2.688   3.223   2.818 -0.0229 -0.3464  0.4726
 6565TIP3    H141110   2.732   3.234   2.902  1.0859  0.1401 -0.1379
 6565TIP3    H241111   2.624   3.294   2.815  1.4329  1.0143  0.0221
 6566TIP3   OH241112   4.997   2.160  15.686 -0.8201  0.3516  0.3211
 6566TIP3    H141113   5.039   2.245  15.673  0.5252 -0.0341  1.8458
 6566TIP3    H241114   5.052   2.098  15.637  0.4507 -0.1426  2.2543
 6567TIP3   OH241115   6.256   4.156  13.462  0.3702  0.2371  0.0431
 6567TIP3    H141116   6.330   4.211  13.438  0.4935  0.6127  1.1863
 6567TIP3    H241117   6.293   4.091  13.522 -0.3396  0.9689  1.3308
 6568TIP3   OH241118   6.574   6.698   3.293  0.2137  0.6481  0.2093
 6568TIP3    H141119   6.560   6.793   3.292 -0.3320  0.5841  1.0906
 6568TIP3    H241120   6.487   6.661   3.277  0.2737  0.2956  0.6759
 6569TIP3   OH241121   6.398   4.072   5.204 -0.6427  0.2434 -0.4475
 6569TIP3    H141122   6.318   4.062   5.256 -0.2306  0.1117  0.1766
 6569TIP3    H241123   6.437   3.985   5.203  0.7506  0.7927  1.3511
 6570TIP3   OH241124   3.201   5.021  16.217 -0.1451  0.2727 -0.0148
 6570TIP3    H141125   3.234   4.936  16.245  0.3216  0.9053  1.4305
 6570TIP3    H241126   3.245   5.037  16.133 -0.1459 -0.8449 -0.2419
 6571TIP3   OH241127   1.620   5.455   1.805 -0.7464  0.2049  0.0350
 6571TIP3    H141128   1.702   5.424   1.844 -1.7832 -1.2447  1.1593
 6571TIP3    H241129   1.618   5.548   1.824 -0.1124 -0.0449  1.4331
 6572TIP3   OH241130   0.913   2.719   0.310 -0.3898 -0.1478 -1.1482
 6572TIP3    H141131   0.897   2.685   0.398  0.1361  0.9327 -0.6155
 6572TIP3    H241132   0.839   2.689   0.259 -1.4842  0.4671  0.0232
 6573TIP3   OH241133   4.700   2.806  14.479 -0.3723  0.2718  0.1183
 6573TIP3    H141134   4.739   2.718  14.483  0.3257  0.6012  0.7189
 6573TIP3    H241135   4.611   2.790  14.447  0.0641 -0.5472 -0.7592
 6574TIP3   OH241136   1.381   0.405   1.076  0.0760 -0.2099  0.2533
 6574TIP3    H141137   1.300   0.394   1.025  0.6494 -0.2300 -0.6668
 6574TIP3    H241138   1.359   0.372   1.163 -1.1999  0.6495  0.2916
 6575TIP3   OH241139   1.525   4.496  15.493 -0.3592  0.1420 -0.9766
 6575TIP3    H141140   1.448   4.551  15.480 -0.6130  0.2642  0.8340
 6575TIP3    H241141   1.556   4.477  15.404 -0.4596  2.9056 -1.6874
 6576TIP3   OH241142   0.901   6.561   4.856  0.0740 -0.1307 -0.3815
 6576TIP3    H141143   0.819   6.600   4.887  0.7920  2.8237 -1.8366
 6576TIP3    H241144   0.875   6.509   4.780 -0.5010  0.6275 -0.7178
 6577TIP3   OH241145   1.708   6.657  11.250 -0.0733 -0.7355 -0.2221
 6577TIP3    H141146   1.728   6.671  11.157  0.7467 -1.9451 -0.2485
 6577TIP3    H241147   1.766   6.586  11.277 -0.0717 -0.1906  1.3096
 6578TIP3   OH241148   0.252   3.956  10.681  0.5845 -0.1545  0.0134
 6578TIP3    H141149   0.214   3.869  10.675  0.4882 -0.0265 -1.4644
 6578TIP3    H241150   0.249   3.991  10.592  1.1898  1.1209  0.4583
 6579TIP3   OH241151   5.315   6.421   2.668  0.1171  0.3501  0.4968
 6579TIP3    H141152   5.370   6.344   2.663 -0.3409  0.0762 -2.0000
 6579TIP3    H241153   5.263   6.419   2.587 -0.1884  3.0453  0.5044
 6580TIP3   OH241154   5.555   5.691  15.223  0.0154 -0.2447 -0.0170
 6580TIP3    H141155   5.633   5.636  15.228 -1.2018 -2.0095  0.7231
 6580TIP3    H241156   5.550   5.734  15.308  0.3665  0.1466 -0.1925
 6581TIP3   OH241157   5.927   6.021   2.188  0.5077  0.1166 -0.0436
 6581TIP3    H141158   5.925   6.012   2.283  1.8109  0.5292  0.0469
 6581TIP3    H241159   5.849   6.072   2.168  1.7654  2.7964  1.1990
 6582TIP3   OH241160   1.972   3.613   4.600 -0.0263 -0.4207  0.3619
 6582TIP3    H141161   1.879   3.593   4.596 -0.7364  2.6172 -1.1921
 6582TIP3    H241162   2.011   3.565   4.528 -1.1307  1.2034 -1.4004
 6583TIP3   OH241163   5.397   3.523   2.034  0.0480 -0.0702 -0.0877
 6583TIP3    H141164   5.422   3.615   2.034 -1.1143  0.2881 -1.2968
 6583TIP3    H241165   5.318   3.520   1.979  0.2626 -1.8304 -0.3538
 6584TIP3   OH241166   0.273   4.262  11.434 -0.0311  0.1423  0.3128
 6584TIP3    H141167   0.237   4.351  11.435 -0.0133  0.2058 -1.5722
 6584TIP3    H241168   0.358   4.270  11.393 -0.5572 -0.9078 -1.0591
 6585TIP3   OH241169   1.944   5.113   1.941 -0.1892  0.2985 -0.1972
 6585TIP3    H141170   1.901   5.118   2.027  1.0852  0.0483  0.4889
 6585TIP3    H241171   1.982   5.200   1.929 -1.4702  0.7468 -1.1339
 6586TIP3   OH241172   1.325   5.834  16.155  0.4485  0.0806 -0.3876
 6586TIP3    H141173   1.397   5.882  16.114 -1.0376  1.4093 -1.5957
 6586TIP3    H241174   1.305   5.764  16.093  0.2936  0.1067 -0.3674
 6587TIP3   OH241175   6.604   4.030   1.081 -0.4824 -0.0753  0.4808
 6587TIP3    H141176   6.611   3.958   1.019 -0.8610  0.3108 -0.0206
 6587TIP3    H241177   6.510   4.042   1.094 -0.4083 -0.2554  1.2598
 6588TIP3   OH241178   1.827   3.662   3.488  0.7961 -0.4737  0.5435
 6588TIP3    H141179   1.755   3.723   3.504  0.2090 -0.4974 -1.7098
 6588TIP3    H241180   1.897   3.716   3.453 -0.4552 -1.1750 -3.5568
 6589TIP3   OH241181   1.084   1.763  11.661  0.0749  0.4154  0.2022
 6589TIP3    H141182   0.999   1.807  11.659 -0.3931 -0.4808 -0.4596
 6589TIP3    H241183   1.089   1.725  11.748 -1.0556 -1.0894 -0.3448
 6590TIP3   OH241184   2.072   1.324  15.292  0.3012  0.0693 -0.2429
 6590TIP3    H141185   2.018   1.337  15.214  1.4857 -1.8480 -1.4636
 6590TIP3    H241186   2.155   1.365  15.271  0.6887 -0.6141 -0.0924
 6591TIP3   OH241187   3.840   0.575   3.402 -0.4706 -0.1637  0.7143
 6591TIP3    H141188   3.780   0.553   3.330 -1.3963  1.6445  0.8768
 6591TIP3    H241189   3.892   0.496   3.414 -1.5369 -1.1496 -0.7170
 6592TIP3   OH241190   5.453   1.661  13.652  0.9500 -0.0120  0.3070
 6592TIP3    H141191   5.545   1.677  13.633  0.5255  1.3150 -0.8297
 6592TIP3    H241192   5.435   1.712  13.730  0.6636  1.6672 -0.8013
 6593TIP3   OH241193   2.616   1.140  15.083 -0.2089  0.5600  0.1052
 6593TIP3    H141194   2.656   1.216  15.124 -1.2450 -0.5769  3.5396
 6593TIP3    H241195   2.522   1.149  15.101 -0.1080 -2.9987  3.7861
 6594TIP3   OH241196   5.953   0.871  14.431 -0.3513 -0.5725  0.0526
 6594TIP3    H141197   5.991   0.953  14.463 -0.2660 -1.0841  1.3224
 6594TIP3    H241198   5.883   0.899  14.371  2.3360  0.3986 -2.8840
 6595TIP3   OH241199   4.649   4.372   1.088  0.5168 -0.4696  0.6711
 6595TIP3    H141200   4.563   4.406   1.062  0.2587 -0.3836  1.5839
 6595TIP3    H241201   4.693   4.351   1.006 -0.1048  0.1644  0.1638
 6596TIP3   OH241202   6.603   0.068   4.199  0.1725 -0.3219 -1.1627
 6596TIP3    H141203   6.510   0.056   4.216  0.1377 -0.4391 -1.4313
 6596TIP3    H241204   6.615   0.163   4.196  0.5934 -0.2077  1.7767
 6597TIP3   OH241205   0.002   3.328   5.031 -0.0146  0.4919  0.4803
 6597TIP3    H141206  -0.038   3.353   5.114 -2.0427 -0.6653 -0.0848
 6597TIP3    H241207  -0.052   3.371   4.965 -2.3367 -3.3618 -0.4414
 6598TIP3   OH241208   4.824   1.949   4.793  0.2046  0.3096 -0.1733
 6598TIP3    H141209   4.864   2.002   4.861  0.7186 -0.9456  0.5361
 6598TIP3    H241210   4.896   1.897   4.757 -0.2595  0.1673 -0.9253
 6599TIP3   OH241211   4.440   4.829  13.511 -0.2067  0.0027 -0.2334
 6599TIP3    H141212   4.388   4.803  13.587 -0.8577  0.8463 -0.3677
 6599TIP3    H241213   4.404   4.778  13.438 -0.7179  0.4321 -0.2864
 6600TIP3   OH241214   6.689   6.680   4.784 -0.0616 -0.2951  0.6500
 6600TIP3    H141215   6.773   6.642   4.758  0.2939  0.5869  0.4485
 6600TIP3    H241216   6.659   6.727   4.706  0.2376  1.0564  1.3189
 6601TIP3   OH241217   0.828   3.876  11.291  0.5137 -0.1728  0.2976
 6601TIP3    H141218   0.801   3.949  11.236  0.1793  0.4304  1.2390
 6601TIP3    H241219   0.824   3.800  11.233 -1.8498  0.1006 -0.0060
 6602TIP3   OH241220   1.882   4.062   4.356 -0.5710 -0.1635 -0.3046
 6602TIP3    H141221   1.833   3.981   4.342 -1.8111  0.4985 -0.0549
 6602TIP3    H241222   1.970   4.034   4.378 -0.8311 -1.4230 -0.7857
 6603TIP3   OH241223   1.186   5.338   0.020 -0.4131  0.2897  0.0342
 6603TIP3    H141224   1.124   5.410   0.025 -1.6460 -0.6453 -1.1437
 6603TIP3    H241225   1.207   5.318   0.111  0.7954  2.7787  0.3799
 6604TIP3   OH241226   4.984   4.225  13.571 -0.6247 -0.1874  0.3938
 6604TIP3    H141227   4.943   4.209  13.655 -0.9879 -0.5789  0.1487
 6604TIP3    H241228   4.956   4.313  13.546 -2.0234 -0.7617 -0.1583
 6605TIP3   OH241229   3.980   1.551  11.949 -0.6761 -0.1499  0.6508
 6605TIP3    H141230   3.929   1.502  11.884 -1.4414 -2.6904  2.9642
 6605TIP3    H241231   4.070   1.523  11.934 -0.6030  0.5978 -0.3721
 6606TIP3   OH241232   1.406   4.187  16.434  0.5820  0.3631  0.3226
 6606TIP3    H141233   1.457   4.268  16.430  0.1100  0.6505  0.0286
 6606TIP3    H241234   1.447   4.130  16.369  1.9695 -0.2706  1.6959
 6607TIP3   OH241235   2.131   2.833   4.079 -0.2828  0.4453  0.5618
 6607TIP3    H141236   2.179   2.849   4.160  2.2270  2.8519 -1.1995
 6607TIP3    H241237   2.170   2.754   4.043  2.2512  2.0733 -0.5774
 6608TIP3   OH241238   2.342   2.820  13.447 -0.1797  0.8110 -0.0432
 6608TIP3    H141239   2.414   2.849  13.391 -1.4349  0.6829 -1.8040
 6608TIP3    H241240   2.343   2.725  13.438 -0.7197  0.8270 -0.3045
 6609TIP3   OH241241   0.925   6.169  13.659  0.3547 -0.8368  0.7176
 6609TIP3    H141242   0.893   6.206  13.577 -2.4259 -1.0036  1.6184
 6609TIP3    H241243   0.888   6.226  13.726  2.7885 -0.5308  1.9207
 6610TIP3   OH241244   1.810   2.251   3.183  0.5791 -0.1636 -0.4432
 6610TIP3    H141245   1.804   2.322   3.119 -1.4923 -1.5836 -1.9896
 6610TIP3    H241246   1.773   2.288   3.263  0.9963  0.9479 -0.7456
 6611TIP3   OH241247   6.394   3.155  16.261  0.1148  0.2324  0.1015
 6611TIP3    H141248   6.301   3.154  16.240  0.3205 -2.5528 -1.0372
 6611TIP3    H241249   6.417   3.248  16.264 -2.2973  0.9596 -1.3810
 6612TIP3   OH241250   4.091   4.271  12.697 -0.3569  0.1834 -0.2327
 6612TIP3    H141251   4.010   4.264  12.747 -0.1341  1.7291  0.4243
 6612TIP3    H241252   4.079   4.349  12.643  1.0718  1.0976  0.6840
 6613TIP3   OH241253   3.817   5.053  15.052 -0.1255  0.1383  0.4229
 6613TIP3    H141254   3.730   5.069  15.016  0.8551  0.0687 -2.1753
 6613TIP3    H241255   3.878   5.078  14.983  1.9123 -0.8980  1.7108
 6614TIP3   OH241256   4.602   2.875   2.906  0.5136 -0.9186  0.2694
 6614TIP3    H141257   4.655   2.951   2.882  0.0626 -0.3786  0.9442
 6614TIP3    H241258   4.665   2.813   2.942  0.8891 -0.8801 -0.3075
 6615TIP3   OH241259   3.727   3.392   3.053  0.2964  0.1286  0.1613
 6615TIP3    H141260   3.755   3.354   3.136 -2.1695  1.4285  1.7080
 6615TIP3    H241261   3.745   3.324   2.988 -0.4219 -2.1791  2.2070
 6616TIP3   OH241262   3.286   2.256   0.290  0.1647 -0.0428  0.2653
 6616TIP3    H141263   3.309   2.315   0.218 -1.0552  1.4578  1.0401
 6616TIP3    H241264   3.191   2.245   0.282 -0.1631  0.9684  2.2014
 6617TIP3   OH241265   5.182   3.044  12.835  0.0902 -0.1156  0.4522
 6617TIP3    H141266   5.101   3.087  12.864  0.2016 -0.1008  0.7416
 6617TIP3    H241267   5.155   2.989  12.761 -0.1139  0.1989  0.2881
 6618TIP3   OH241268   4.408   0.861  13.053  0.5841 -0.3421 -0.3139
 6618TIP3    H141269   4.314   0.874  13.039  0.2399 -0.6397  1.5167
 6618TIP3    H241270   4.422   0.769  13.031  0.6141 -0.1059 -1.3299
 6619TIP3   OH241271   6.553   0.233  15.874  0.1588  0.2549  0.1443
 6619TIP3    H141272   6.578   0.145  15.900 -1.4087  0.0738  1.2228
 6619TIP3    H241273   6.599   0.290  15.936 -1.4022 -0.0351  1.6555
 6620TIP3   OH241274   3.903   2.999  13.627 -0.0251  0.0952  0.2769
 6620TIP3    H141275   3.833   3.065  13.622 -1.7568 -1.6088  0.9255
 6620TIP3    H241276   3.867   2.923  13.582  1.8131 -0.5413 -0.1825
 6621TIP3   OH241277   6.526   4.746  14.440 -0.0980 -0.9532 -0.3360
 6621TIP3    H141278   6.572   4.748  14.524 -0.2855 -1.8427 -0.2093
 6621TIP3    H241279   6.463   4.818  14.446  0.5609 -0.3841 -0.1086
 6622TIP3   OH241280   6.164   0.154  16.691 -0.2593  0.3988 -0.4392
 6622TIP3    H141281   6.194   0.245  16.702 -3.7157  1.6040  0.1984
 6622TIP3    H241282   6.075   0.162  16.658 -0.9149 -2.7886  0.2528
 6623TIP3   OH241283   5.707   0.474  10.810 -1.4600  0.3458  0.1996
 6623TIP3    H141284   5.795   0.502  10.836 -0.3358  0.2381 -3.0509
 6623TIP3    H241285   5.651   0.548  10.831 -1.0325 -0.1765  3.8644
 6624TIP3   OH241286   2.961   2.051  15.394 -0.3094  0.0614  0.9149
 6624TIP3    H141287   2.968   1.957  15.374 -2.0063 -0.1612  1.1777
 6624TIP3    H241288   3.005   2.061  15.478  0.6481 -0.3307  0.4703
 6625TIP3   OH241289   2.896   0.467  15.778 -0.1205  0.7768  0.5859
 6625TIP3    H141290   2.906   0.481  15.872  0.9204  0.9576  0.4584
 6625TIP3    H241291   2.926   0.549  15.738  0.5732  0.2803  0.0582
 6626TIP3   OH241292   6.418   4.757  15.000  0.1008  0.6745  0.1654
 6626TIP3    H141293   6.427   4.780  14.908 -0.5875 -1.6963 -0.5506
 6626TIP3    H241294   6.334   4.795  15.026  0.4317  1.5979 -0.0660
 6627TIP3   OH241295   0.064   4.832  16.988 -0.1355 -0.0103  0.3344
 6627TIP3    H141296   0.074   4.900  16.921 -0.9223  0.8937  1.1100
 6627TIP3    H241297   0.129   4.854  17.055 -1.1125  0.6481  1.1034
 6628TIP3   OH241298   2.311   5.110  13.244  0.0786 -0.1123  0.1430
 6628TIP3    H141299   2.224   5.117  13.283 -0.9050  0.9869 -2.0741
 6628TIP3    H241300   2.300   5.050  13.170  0.2261  2.6558 -2.3472
 6629TIP3   OH241301   4.196   6.364   1.475 -0.1647  0.2981 -0.4456
 6629TIP3    H141302   4.113   6.412   1.466 -1.1769 -1.0283  1.3123
 6629TIP3    H241303   4.194   6.329   1.564  1.7160 -0.8516 -0.8088
 6630TIP3   OH241304   2.547   6.374   2.041  0.0659 -0.2171  0.0452
 6630TIP3    H141305   2.603   6.307   2.003 -0.2999 -0.6476  0.2601
 6630TIP3    H241306   2.571   6.375   2.134 -0.1437 -0.2617  0.0996
 6631TIP3   OH241307   2.327   1.759   5.394  0.5473  0.8068  0.2357
 6631TIP3    H141308   2.278   1.696   5.341  1.4952  1.8159 -1.9572
 6631TIP3    H241309   2.386   1.705   5.447  0.5153 -0.2097 -0.7260
 6632TIP3   OH241310   1.948   4.875   3.933  0.3609 -0.6294 -0.8664
 6632TIP3    H141311   1.891   4.831   3.871 -1.8931  1.6791 -0.6057
 6632TIP3    H241312   1.976   4.955   3.888  0.5895 -0.0547  0.2403
 6633TIP3   OH241313   0.922   2.991  12.032  0.0026 -0.2004 -0.4069
 6633TIP3    H141314   0.834   2.955  12.045 -0.2866  1.2604  2.2929
 6633TIP3    H241315   0.971   2.964  12.109  2.3098 -1.7368 -2.2650
 6634TIP3   OH241316   1.160   2.306   3.393  0.2112 -0.3045 -0.1789
 6634TIP3    H141317   1.121   2.323   3.307 -0.2405 -2.7133 -0.5290
 6634TIP3    H241318   1.090   2.324   3.455  0.2531  0.5423 -0.3577
 6635TIP3   OH241319   5.470   3.751   4.275  0.2194 -0.3202 -0.8522
 6635TIP3    H141320   5.435   3.768   4.362 -1.5205 -0.6764 -1.4341
 6635TIP3    H241321   5.393   3.746   4.218  1.3794  2.9137 -3.0277
 6636TIP3   OH241322   5.272   4.003   5.437  0.3359  0.0868 -0.3589
 6636TIP3    H141323   5.276   4.025   5.344 -0.8951 -0.3247 -0.5152
 6636TIP3    H241324   5.356   4.034   5.472  0.8925  0.0765 -1.6317
 6637TIP3   OH241325   2.820   1.782   1.576  0.1521  0.1747  0.4068
 6637TIP3    H141326   2.846   1.822   1.659  1.0585 -0.5166  0.4744
 6637TIP3    H241327   2.899   1.736   1.547  0.0401  0.9195 -1.1464
 6638TIP3   OH241328   5.229   0.471  16.315 -0.2439 -0.0429 -0.2879
 6638TIP3    H141329   5.310   0.422  16.333 -0.3299  0.2135  0.8927
 6638TIP3    H241330   5.215   0.524  16.394 -0.0140  2.0976 -1.6032
 6639TIP3   OH241331   2.307   0.683   0.568  0.1304 -0.3496 -0.1459
 6639TIP3    H141332   2.229   0.732   0.592  0.7298  0.4304  0.2558
 6639TIP3    H241333   2.305   0.605   0.624  2.1374  1.9799  3.6335
 6640TIP3   OH241334   6.426   2.234  13.888  0.6593 -0.3582 -0.0601
 6640TIP3    H141335   6.337   2.199  13.893  0.3208  0.3187 -1.1022
 6640TIP3    H241336   6.465   2.212  13.973 -1.5842  2.2906  1.8492
 6641TIP3   OH241337   1.560   1.930   1.518  0.3636 -0.1892  0.4166
 6641TIP3    H141338   1.525   1.979   1.591  0.6470 -0.5884  0.8270
 6641TIP3    H241339   1.585   1.996   1.454 -1.0723  0.1052  0.1303
 6642TIP3   OH241340   1.289   1.496  12.696  0.4698 -0.5451  0.1664
 6642TIP3    H141341   1.351   1.512  12.625 -1.9108  0.2878 -1.8822
 6642TIP3    H241342   1.209   1.468  12.652 -0.8992 -0.7590  2.6094
 6643TIP3   OH241343   0.457   5.508  13.756 -0.6343 -0.1909  0.1944
 6643TIP3    H141344   0.480   5.595  13.789 -2.5574 -0.2906  2.0095
 6643TIP3    H241345   0.455   5.519  13.661  2.4737  0.8254  0.1243
 6644TIP3   OH241346   1.838   4.974  11.452 -0.2918 -0.2377 -0.6123
 6644TIP3    H141347   1.783   4.897  11.442  0.7801 -1.1020 -0.1096
 6644TIP3    H241348   1.916   4.942  11.498  1.1176  0.6795 -2.2050
 6645TIP3   OH241349   3.047   2.037   6.194 -0.8988  0.4439 -0.0470
 6645TIP3    H141350   3.031   2.065   6.104  1.4446 -0.6058 -0.8728
 6645TIP3    H241351   3.141   2.016   6.196 -1.1057 -0.5631  2.3655
 6646TIP3   OH241352   3.749   5.460   4.459 -0.3051 -0.5948 -0.1868
 6646TIP3    H141353   3.752   5.377   4.413 -1.5417  0.4328 -2.2389
 6646TIP3    H241354   3.763   5.526   4.391 -2.5775  1.0071  0.7898
 6647TIP3   OH241355   5.426   2.310  12.935 -0.1181 -0.1518 -0.2378
 6647TIP3    H141356   5.516   2.282  12.949 -0.6527 -1.2990  1.1895
 6647TIP3    H241357   5.433   2.387  12.880  1.7453 -0.1200 -0.0159
 6648TIP3   OH241358   5.752   0.903  11.776 -0.2463  0.2119 -0.2744
 6648TIP3    H141359   5.769   0.898  11.682 -1.2971  0.1811 -0.4652
 6648TIP3    H241360   5.685   0.837  11.792  1.5381 -1.4129  0.8968
 6649TIP3   OH241361   4.528   2.093  12.348 -0.5994  0.3528  0.3106
 6649TIP3    H141362   4.530   2.107  12.443 -1.9359  2.4376  0.0845
 6649TIP3    H241363   4.437   2.069  12.329 -0.3457 -0.0377 -0.4709
 6650TIP3   OH241364   1.917   6.044  11.502  0.8159  0.5449 -0.1082
 6650TIP3    H141365   1.844   6.105  11.495  0.5272  0.6269  2.5770
 6650TIP3    H241366   1.933   6.015  11.412 -3.1892 -0.2873 -0.7389
 6651TIP3   OH241367   2.025   6.396   4.531 -0.3871  0.5016 -0.1175
 6651TIP3    H141368   2.065   6.309   4.522 -0.7638  0.1807  1.0469
 6651TIP3    H241369   2.038   6.438   4.446 -0.0652 -0.6414 -0.6524
 6652TIP3   OH241370   5.386   0.701  11.326 -0.0943  0.4121  0.1537
 6652TIP3    H141371   5.456   0.740  11.379  0.1944  1.0346 -0.6569
 6652TIP3    H241372   5.407   0.728  11.237  0.8361 -2.6603 -0.6594
 6653TIP3   OH241373   0.126   4.638   4.387  0.3495  1.0693 -0.1513
 6653TIP3    H141374   0.215   4.664   4.366 -0.0270  2.1215 -0.5244
 6653TIP3    H241375   0.071   4.694   4.332 -0.5299 -0.3244 -0.7663
 6654TIP3   OH241376   2.658   4.893   1.078 -0.0757  0.3212  0.5841
 6654TIP3    H141377   2.645   4.918   1.169  1.2105  0.9499  0.6292
 6654TIP3    H241378   2.686   4.974   1.035 -0.1986 -0.0713 -0.2602
 6655TIP3   OH241379   6.538   3.051  13.087  0.3173 -0.2198 -0.3690
 6655TIP3    H141380   6.548   3.071  12.994  0.3044  0.8433 -0.1554
 6655TIP3    H241381   6.529   3.136  13.129  1.9748 -0.5658  0.8007
 6656TIP3   OH241382   2.512   2.154  17.105 -0.1650 -0.0579  0.2197
 6656TIP3    H141383   2.561   2.084  17.060 -1.6218 -0.5093 -0.7396
 6656TIP3    H241384   2.464   2.108  17.174 -0.2188  0.1790  0.3366
 6657TIP3   OH241385   0.565   1.060   0.502 -0.1538  0.4219  0.2156
 6657TIP3    H141386   0.588   0.967   0.504  0.9286  0.6810  1.3134
 6657TIP3    H241387   0.509   1.073   0.578  0.1065  0.7517  0.3577
 6658TIP3   OH241388   6.026   4.324  12.735  0.4023  0.1707  0.3290
 6658TIP3    H141389   5.992   4.408  12.765 -0.6011 -0.5331  1.2151
 6658TIP3    H241390   6.108   4.312  12.782  0.8612  0.9127 -0.2543
 6659TIP3   OH241391   3.909   0.641  11.074  0.2867  0.3121  0.4827
 6659TIP3    H141392   3.829   0.690  11.089  1.1477  1.9856 -0.0925
 6659TIP3    H241393   3.897   0.600  10.989  0.4088  1.3877 -0.0682
 6660TIP3   OH241394   4.083   1.606  13.345  0.5132  0.2363  0.0640
 6660TIP3    H141395   4.001   1.561  13.362  0.3112 -0.2771 -1.9880
 6660TIP3    H241396   4.085   1.678  13.409 -0.6665 -0.7826  1.2981
 6661TIP3   OH241397   0.508   6.404  12.480 -0.0829 -0.1330 -0.0675
 6661TIP3    H141398   0.575   6.359  12.428  0.0446  1.3055 -1.2039
 6661TIP3    H241399   0.484   6.340  12.547 -0.7382 -2.3364 -2.2404
 6662TIP3   OH241400   5.703   3.652   0.056  0.2469 -0.4370  0.0971
 6662TIP3    H141401   5.688   3.560   0.077  1.9057 -0.9072 -0.6521
 6662TIP3    H241402   5.752   3.686   0.131  0.5178 -0.4144 -0.0935
 6663TIP3   OH241403   4.943   1.433   1.995 -0.4986 -0.1209 -0.2713
 6663TIP3    H141404   4.944   1.348   2.038  1.0903  0.9817  2.1050
 6663TIP3    H241405   4.870   1.479   2.037  0.5400  0.6775  0.7280
 6664TIP3   OH241406   6.484   0.328  12.083  0.1785 -0.4033 -0.4125
 6664TIP3    H141407   6.467   0.321  12.177 -0.2717  1.5648 -0.3019
 6664TIP3    H241408   6.445   0.250  12.045  0.6893 -1.4181  1.0674
 6665TIP3   OH241409   3.207   0.362   1.069 -0.3835 -0.0830 -0.1412
 6665TIP3    H141410   3.301   0.379   1.078 -0.2174 -0.5576 -0.9058
 6665TIP3    H241411   3.184   0.396   0.983 -0.9880  0.3242  0.1734
 6666TIP3   OH241412   5.359   5.014   6.108  0.4139 -0.2405  0.2364
 6666TIP3    H141413   5.342   4.920   6.098  0.4968 -0.3481  1.0178
 6666TIP3    H241414   5.273   5.052   6.128  0.4169 -0.1882  0.1476
 6667TIP3   OH241415   0.294   5.939  16.494 -0.4738 -0.3160  0.2652
 6667TIP3    H141416   0.300   6.029  16.525 -2.0991  0.3119 -1.0738
 6667TIP3    H241417   0.242   5.945  16.414 -2.5032 -2.6577  1.2857
 6668TIP3   OH241418   4.297   2.708  13.051  0.2757  0.1159  0.5303
 6668TIP3    H141419   4.232   2.709  12.980 -0.3874  2.6550  1.0741
 6668TIP3    H241420   4.323   2.799  13.060  0.3733 -0.1381  3.5449
 6669TIP3   OH241421   2.462   1.743   2.206 -0.2122  0.5252 -0.2196
 6669TIP3    H141422   2.412   1.824   2.193 -1.1236  0.0314  0.0806
 6669TIP3    H241423   2.424   1.681   2.142  0.3922  0.3003 -0.3665
 6670TIP3   OH241424   3.817   4.884  13.532  0.0866 -0.1636  0.0616
 6670TIP3    H141425   3.753   4.818  13.507 -2.4859  2.4082 -0.6608
 6670TIP3    H241426   3.868   4.899  13.452  0.1400 -0.6909 -0.0047
 6671TIP3   OH241427   2.245   1.171   4.648 -0.3788 -0.2708  0.9058
 6671TIP3    H141428   2.156   1.206   4.656 -0.3794 -0.3699  1.3504
 6671TIP3    H241429   2.302   1.244   4.674 -0.2302  0.4032 -1.1144
 6672TIP3   OH241430   4.414   6.768  13.653  0.0970 -0.0638 -0.1007
 6672TIP3    H141431   4.353   6.823  13.604 -0.6257 -0.6473  0.1120
 6672TIP3    H241432   4.358   6.721  13.715  0.6372 -1.2942 -0.5189
 6673TIP3   OH241433   2.550   6.414  11.809 -0.0271 -0.0272 -0.0994
 6673TIP3    H141434   2.498   6.334  11.812 -0.7495  0.4453  0.2193
 6673TIP3    H241435   2.621   6.395  11.747 -1.0044 -0.4327 -1.1238
 6674TIP3   OH241436   1.839   1.000   1.082  0.0657  0.0912  0.1900
 6674TIP3    H141437   1.812   0.917   1.043 -1.5294  0.3207  0.7248
 6674TIP3    H241438   1.852   1.059   1.008 -4.9111  1.1343 -0.1941
 6675TIP3   OH241439   3.145   6.758  16.621 -0.5090 -0.1291  0.3769
 6675TIP3    H141440   3.198   6.683  16.647  0.1688 -0.6683 -2.2217
 6675TIP3    H241441   3.186   6.833  16.663  0.9430 -0.8254  0.2534
 6676TIP3   OH241442   1.080   5.555  15.365 -0.2198  0.0247 -0.3164
 6676TIP3    H141443   1.068   5.543  15.271 -0.2272 -0.7824 -0.2171
 6676TIP3    H241444   1.007   5.610  15.392 -0.7529 -0.5238 -0.6266
 6677TIP3   OH241445   2.811   4.414   3.187 -0.3856  0.2384  0.5316
 6677TIP3    H141446   2.821   4.497   3.234  0.9936  1.6508 -2.0698
 6677TIP3    H241447   2.778   4.438   3.101 -1.9626 -2.1673  0.3561
 6678TIP3   OH241448   2.872   4.449   0.881 -0.1423 -0.1391 -0.0284
 6678TIP3    H141449   2.952   4.475   0.834 -0.8686  0.8624 -0.7680
 6678TIP3    H241450   2.838   4.531   0.917 -0.2500 -0.7217  1.2426
 6679TIP3   OH241451   3.311   1.592   1.962 -0.3327  0.0792  0.3635
 6679TIP3    H141452   3.402   1.602   1.991 -0.5540  0.8529  0.8191
 6679TIP3    H241453   3.318   1.548   1.877  0.5119  0.7762  0.0548
 6680TIP3   OH241454   2.424   3.907   4.807  0.7909 -0.0489  0.6200
 6680TIP3    H141455   2.457   3.972   4.744  0.5766  0.2759  0.8411
 6680TIP3    H241456   2.420   3.954   4.890  0.9908 -0.4539  0.8604
 6681TIP3   OH241457   5.746   5.202   1.942  0.0786 -0.1109 -0.3140
 6681TIP3    H141458   5.765   5.159   1.859 -0.5111  0.4514 -0.7570
 6681TIP3    H241459   5.810   5.167   2.003  1.3908  0.4449 -1.3274
 6682TIP3   OH241460   1.524   4.230   0.104  0.0910  0.3874 -0.1979
 6682TIP3    H141461   1.458   4.291   0.071  1.3158  1.6582 -0.4186
 6682TIP3    H241462   1.601   4.247   0.050  0.9685 -0.2179  0.8174
 6683TIP3   OH241463   2.517   6.715  16.037  0.1119 -0.2265  0.6016
 6683TIP3    H141464   2.447   6.746  15.979 -0.1536 -2.7521 -0.5930
 6683TIP3    H241465   2.535   6.789  16.095 -1.1891  1.6602 -1.2444
 6684TIP3   OH241466   2.834   0.375  15.392 -0.6307  0.0412 -0.1831
 6684TIP3    H141467   2.818   0.294  15.344  1.4391  1.0700 -2.8146
 6684TIP3    H241468   2.790   0.443  15.340 -2.2161  0.7466  1.8940
 6685TIP3   OH241469   4.310   2.795  17.041 -0.0515  0.6152  0.2098
 6685TIP3    H141470   4.229   2.843  17.026 -0.5650  0.0588  1.0904
 6685TIP3    H241471   4.380   2.858  17.022 -0.6798  1.0970 -0.5650
 6686TIP3   OH241472   0.696   1.266   0.646 -0.2258  0.3829  0.3729
 6686TIP3    H141473   0.680   1.352   0.607  0.8322  1.3323  1.9169
 6686TIP3    H241474   0.685   1.204   0.574 -2.6274  1.6266 -0.4320
 6687TIP3   OH241475   6.038   6.569  13.741 -0.0112  0.0293  0.5373
 6687TIP3    H141476   6.056   6.615  13.823 -1.4235  0.0855  0.8297
 6687TIP3    H241477   5.969   6.507  13.763 -1.7092  1.2882 -1.0051
 6688TIP3   OH241478   6.586   0.805   3.714  0.1808 -0.0020 -0.2747
 6688TIP3    H141479   6.556   0.894   3.731  0.5268  0.1186 -0.2861
 6688TIP3    H241480   6.663   0.815   3.658 -0.4342 -0.3645 -1.1949
 6689TIP3   OH241481   0.140   5.656   3.579  0.0985 -0.0131  0.3343
 6689TIP3    H141482   0.067   5.604   3.612 -0.9694  0.5881 -0.9963
 6689TIP3    H241483   0.210   5.643   3.643 -0.5242 -2.1105  0.6416
 6690TIP3   OH241484   4.898   6.701   5.788 -0.1802 -0.7680 -0.2662
 6690TIP3    H141485   4.979   6.650   5.784 -0.4057 -1.2000  0.5443
 6690TIP3    H241486   4.836   6.652   5.734 -0.2852 -1.1564  0.2018
 6691TIP3   OH241487   3.818   6.016   0.749 -0.3323 -0.0314  0.3099
 6691TIP3    H141488   3.831   5.930   0.789  2.9891  1.2604  2.4761
 6691TIP3    H241489   3.871   6.014   0.669 -1.3207 -0.3630 -0.3564
 6692TIP3   OH241490   2.672   2.967   2.652 -0.4866 -0.5968  0.0522
 6692TIP3    H141491   2.721   2.935   2.727 -2.0418 -0.9000  0.9825
 6692TIP3    H241492   2.663   3.061   2.668  1.4237 -0.1526 -1.1263
 6693TIP3   OH241493   6.540   1.988   5.366 -0.4039 -0.1317  0.6307
 6693TIP3    H141494   6.580   2.004   5.451 -0.8363  1.2397  0.5985
 6693TIP3    H241495   6.451   2.023   5.375 -0.6026 -0.3977 -0.2381
 6694TIP3   OH241496   0.209   0.452   1.960 -0.0135  0.1580 -0.6111
 6694TIP3    H141497   0.298   0.441   1.993 -0.1402  1.0413  0.0569
 6694TIP3    H241498   0.220   0.493   1.875  0.2193  0.2671 -0.5295
 6695TIP3   OH241499   2.889   0.208   2.118 -0.0198 -0.4016 -0.5463
 6695TIP3    H141500   2.984   0.214   2.128 -0.2645  0.1340  2.6021
 6695TIP3    H241501   2.863   0.292   2.082  0.5577  0.3447  0.7020
 6696TIP3   OH241502   3.605   2.252   4.971 -0.1453 -0.0649  0.6480
 6696TIP3    H141503   3.557   2.317   5.022  0.4193 -1.0352  2.5125
 6696TIP3    H241504   3.578   2.168   5.007  0.7412 -0.7708 -0.2688
 6697TIP3   OH241505   1.201   0.314  16.606 -0.1384  0.2115  0.3457
 6697TIP3    H141506   1.278   0.268  16.639  1.1527  1.6628 -0.4909
 6697TIP3    H241507   1.229   0.352  16.523 -1.9559  0.2983 -0.2752
 6698TIP3   OH241508   0.632   6.134  15.311 -0.1792  0.0859  0.4666
 6698TIP3    H141509   0.700   6.158  15.249 -1.9531  3.2660 -0.5281
 6698TIP3    H241510   0.678   6.097  15.386  2.6037  1.8165 -0.2637
 6699TIP3   OH241511   3.336   0.209  14.331  0.0693 -0.6078  0.2312
 6699TIP3    H141512   3.289   0.144  14.382 -1.4226 -0.6348 -1.1032
 6699TIP3    H241513   3.415   0.163  14.301  0.7585 -0.7102  2.0865
 6700TIP3   OH241514   3.361   4.029  13.538  0.0498 -0.3929 -0.1285
 6700TIP3    H141515   3.440   4.083  13.544  0.9127 -1.5217 -0.9149
 6700TIP3    H241516   3.341   4.026  13.445  0.3826 -1.9162 -0.1720
 6701TIP3   OH241517   4.190   2.045  16.590 -0.2996 -0.2049 -0.0801
 6701TIP3    H141518   4.254   1.979  16.562  0.2651  0.2692  0.0615
 6701TIP3    H241519   4.221   2.073  16.676  0.0913  1.0221 -0.6042
 6702TIP3   OH241520   2.970   5.483   4.474 -0.2239 -0.3398  0.4529
 6702TIP3    H141521   2.891   5.483   4.420 -0.0840  1.6913  0.1572
 6702TIP3    H241522   3.037   5.441   4.420 -0.9648 -1.6439  0.5193
 6703TIP3   OH241523   5.590   3.130  10.882 -0.0722  0.4972  0.1890
 6703TIP3    H141524   5.577   3.194  10.812 -2.1980  0.8928  0.8977
 6703TIP3    H241525   5.633   3.180  10.952 -0.6043  0.8317  0.2763
 6704TIP3   OH241526   6.437   2.289   2.370  0.0250 -0.3351  0.4327
 6704TIP3    H141527   6.489   2.259   2.444 -0.8164 -1.6616  0.5110
 6704TIP3    H241528   6.479   2.370   2.343 -0.4949  0.9896  3.2555
 6705TIP3   OH241529   6.511   6.045   5.118  0.1443  0.4560  0.1618
 6705TIP3    H141530   6.438   5.992   5.085  1.9145 -2.6940  0.9144
 6705TIP3    H241531   6.474   6.133   5.127 -3.4853 -0.9063  0.2921
 6706TIP3   OH241532   4.665   2.875  15.927 -0.2754 -0.2621 -0.0904
 6706TIP3    H141533   4.699   2.929  15.998 -4.2591  0.2431  1.6703
 6706TIP3    H241534   4.631   2.797  15.970 -0.8486 -0.9675 -1.7289
 6707TIP3   OH241535   4.497   3.195  15.895  0.1936  0.5733  0.4916
 6707TIP3    H141536   4.497   3.123  15.832  3.1514  0.2570  0.7128
 6707TIP3    H241537   4.445   3.163  15.969 -1.6209  0.1628 -0.9104
 6708TIP3   OH241538   3.085   6.640  11.062  0.2061 -0.1356  0.3407
 6708TIP3    H141539   3.039   6.606  10.985  0.4620  0.4479 -0.0685
 6708TIP3    H241540   3.135   6.714  11.030  0.2918  0.1324  1.0789
 6709TIP3   OH241541   2.222   4.084  13.231 -0.1659 -0.3958 -0.1673
 6709TIP3    H141542   2.141   4.087  13.282 -0.0201  0.2456  0.0357
 6709TIP3    H241543   2.263   4.170  13.245 -0.0550 -0.2590 -1.2578
 6710TIP3   OH241544   0.358   3.982  11.300 -0.1597 -0.2919  0.2305
 6710TIP3    H141545   0.403   4.025  11.373  2.0880 -1.2152 -0.5283
 6710TIP3    H241546   0.336   3.895  11.334  0.5570 -0.5908 -0.0544
 6711TIP3   OH241547   4.218   0.863  15.367 -0.1141  0.2094 -0.2258
 6711TIP3    H141548   4.259   0.804  15.430  0.4828  0.9064  0.0586
 6711TIP3    H241549   4.195   0.808  15.293 -1.3953 -0.7602  0.8390
 6712TIP3   OH241550   3.225   2.959   4.748 -0.1366  0.4090 -0.0212
 6712TIP3    H141551   3.308   3.001   4.769 -1.2366  2.7381 -0.0209
 6712TIP3    H241552   3.202   2.992   4.661 -0.0555 -1.9340 -1.0101
 6713TIP3   OH241553   2.195   4.590   6.136  0.5429  0.0979 -0.0601
 6713TIP3    H141554   2.254   4.549   6.072 -0.8708 -2.6027  0.1997
 6713TIP3    H241555   2.123   4.624   6.083  1.2511  1.4382 -0.1925
 6714TIP3   OH241556   4.775   4.003  17.122  0.0535 -0.0850  0.2240
 6714TIP3    H141557   4.685   4.024  17.096 -0.6087 -1.8893  0.8943
 6714TIP3    H241558   4.785   4.043  17.208  0.4044  1.3026 -0.4345
 6715TIP3   OH241559   6.271   5.503   5.845 -0.3568 -1.1069  0.2016
 6715TIP3    H141560   6.293   5.435   5.909 -2.2618 -2.1347 -0.1423
 6715TIP3    H241561   6.242   5.577   5.898  1.1738 -0.7365  0.5655
 6716TIP3   OH241562   2.807   0.571  11.840 -0.1247  0.1155 -0.3131
 6716TIP3    H141563   2.835   0.617  11.761  0.2663 -0.7802 -0.7114
 6716TIP3    H241564   2.777   0.485  11.808 -2.0236  0.5253  0.2669
 6717TIP3   OH241565   1.483   0.948  14.680 -0.2463 -0.2410  0.1636
 6717TIP3    H141566   1.528   1.032  14.669  0.5883 -0.6686  0.2627
 6717TIP3    H241567   1.477   0.937  14.775 -1.0430  0.0578  0.1579
 6718TIP3   OH241568   5.010   0.634   0.335  0.2306 -0.0883  0.5019
 6718TIP3    H141569   5.009   0.539   0.348  1.4754 -0.3306 -0.9956
 6718TIP3    H241570   4.924   0.653   0.296  0.3784 -0.7520 -0.1675
 6719TIP3   OH241571   6.526   4.148   3.706  0.4681  0.0672  0.0075
 6719TIP3    H141572   6.528   4.054   3.692 -0.9596 -0.0088  0.1437
 6719TIP3    H241573   6.516   4.158   3.801 -0.5781  0.3147 -0.1188
 6720TIP3   OH241574   4.179   0.830   0.276  0.5628 -0.4033 -0.2191
 6720TIP3    H141575   4.225   0.811   0.357  2.4249 -1.0499 -1.3678
 6720TIP3    H241576   4.196   0.755   0.220 -0.3326  0.2087 -1.3675
 6721TIP3   OH241577   0.939   4.259   3.830 -0.3020 -0.0716 -0.4526
 6721TIP3    H141578   0.958   4.317   3.904 -0.0956 -1.5551  0.6800
 6721TIP3    H241579   1.018   4.206   3.820 -0.1985  0.3393 -1.9705
 6722TIP3   OH241580   3.390   4.927  11.777 -0.2427 -0.0207 -0.2823
 6722TIP3    H141581   3.374   4.867  11.851 -0.0923 -2.1714 -1.8878
 6722TIP3    H241582   3.320   4.906  11.715  2.0485 -1.4721 -2.5769
 6723TIP3   OH241583   3.358   6.219  13.303  0.6886  0.0924  0.5245
 6723TIP3    H141584   3.410   6.299  13.299  0.0748  0.4495 -0.8225
 6723TIP3    H241585   3.291   6.230  13.235  0.0574 -1.1892  0.9064
 6724TIP3   OH241586   5.211   6.023  13.041 -0.5037  0.3745  0.7147
 6724TIP3    H141587   5.125   6.003  13.078 -0.0091 -3.5181  0.2092
 6724TIP3    H241588   5.231   6.112  13.072 -4.1029  0.9351  1.8664
 6725TIP3   OH241589   6.554   4.476  10.627 -0.6246 -0.1074  1.1390
 6725TIP3    H141590   6.605   4.553  10.599 -0.3627 -0.5362  0.3891
 6725TIP3    H241591   6.477   4.477  10.571 -1.2449  0.3013  1.9860
 6726TIP3   OH241592   5.693   0.635   2.552  0.2519  0.2962 -0.1956
 6726TIP3    H141593   5.682   0.642   2.458 -0.0958  1.1894 -0.0941
 6726TIP3    H241594   5.765   0.694   2.574 -0.5175  1.0929  0.2520
 6727TIP3   OH241595   3.180   0.769   2.024 -0.9029 -0.2297 -0.4177
 6727TIP3    H141596   3.209   0.854   1.990  0.1630 -1.0552 -1.6825
 6727TIP3    H241597   3.140   0.726   1.949 -1.6485 -0.7695  0.2712
 6728TIP3   OH241598   6.571   6.569  14.023 -0.2613 -0.7832  0.3250
 6728TIP3    H141599   6.516   6.628  13.971 -0.5327 -0.7709  0.6240
 6728TIP3    H241600   6.620   6.627  14.081  0.2640 -0.7743 -0.1177
 6729TIP3   OH241601   0.926   0.004   0.543  0.0913  0.3776 -0.3828
 6729TIP3    H141602   0.848  -0.042   0.572 -0.0097 -0.3413 -1.7077
 6729TIP3    H241603   0.909   0.096   0.562 -0.3099  0.0308  0.9814
 6730TIP3   OH241604   1.075   3.515  11.993 -0.1280 -0.3195 -0.1638
 6730TIP3    H141605   0.993   3.482  12.029  0.4191 -2.1216 -0.4535
 6730TIP3    H241606   1.116   3.438  11.954  2.0658  0.3711  0.6490
 6731TIP3   OH241607   4.082   3.814  16.133 -0.7423 -0.2425 -0.3750
 6731TIP3    H141608   4.149   3.747  16.123  0.3319  0.8887 -1.0750
 6731TIP3    H241609   4.127   3.887  16.174 -1.9168  0.0240  0.4759
 6732TIP3   OH241610   5.537   3.472   0.642  0.3136 -0.1958 -0.2795
 6732TIP3    H141611   5.529   3.400   0.579 -2.7908 -2.1010  1.9877
 6732TIP3    H241612   5.544   3.428   0.727  0.0346  2.2172  1.0688
 6733TIP3   OH241613   2.133   0.339  11.993 -0.3656 -0.0361  0.4927
 6733TIP3    H141614   2.148   0.377  12.079 -2.6417 -1.5653  1.6711
 6733TIP3    H241615   2.200   0.272  11.984  1.2363  1.5388  0.0634
 6734TIP3   OH241616   0.867   4.153   2.216 -0.8342 -0.3383 -0.6499
 6734TIP3    H141617   0.915   4.091   2.271 -1.2786  1.8457  2.4538
 6734TIP3    H241618   0.775   4.125   2.223 -1.2501  1.3583  2.0163
 6735TIP3   OH241619   3.894   1.278   0.727  0.1217 -0.1815  0.9344
 6735TIP3    H141620   3.883   1.366   0.693 -0.5613  0.1983  2.0927
 6735TIP3    H241621   3.814   1.261   0.776  0.5200 -1.2080  1.2515
 6736TIP3   OH241622   3.216   1.033   1.979  0.2364  0.1309  0.2844
 6736TIP3    H141623   3.191   1.120   2.011  1.1854  0.8968 -0.9889
 6736TIP3    H241624   3.276   1.050   1.907 -0.7745 -1.5677 -1.0319
 6737TIP3   OH241625   1.530   5.892  15.626  0.2870 -0.0569  0.3030
 6737TIP3    H141626   1.445   5.875  15.666  0.1120  0.0874  0.0039
 6737TIP3    H241627   1.570   5.806  15.617  0.9665  0.0267  2.1373
 6738TIP3   OH241628   0.335   4.687   3.208 -0.4035  0.0049 -0.2055
 6738TIP3    H141629   0.403   4.747   3.238 -0.4039  1.5374 -2.9577
 6738TIP3    H241630   0.331   4.619   3.276  1.6959  1.4878  1.5378
 6739TIP3   OH241631   3.732   2.769   3.605  0.1604  0.3511 -0.1841
 6739TIP3    H141632   3.659   2.769   3.543  1.2001 -1.0507 -1.4749
 6739TIP3    H241633   3.778   2.851   3.588  0.3635  0.0407 -1.2223
 6740TIP3   OH241634   0.907   1.411   5.305 -0.3249  0.1497 -0.8340
 6740TIP3    H141635   0.897   1.500   5.341  0.2655 -0.8511  2.0745
 6740TIP3    H241636   0.992   1.381   5.338 -0.3064 -1.3527 -2.1505
 6741TIP3   OH241637   4.180   3.244   0.596  0.4624 -0.5352  0.3560
 6741TIP3    H141638   4.085   3.246   0.589  0.3554 -0.6114  1.5862
 6741TIP3    H241639   4.199   3.274   0.684  1.5857 -0.5690  0.1527
 6742TIP3   OH241640   5.422   4.429   3.424  0.0690 -0.8493 -0.0710
 6742TIP3    H141641   5.471   4.510   3.437  1.8156 -1.9380  0.4259
 6742TIP3    H241642   5.355   4.452   3.360  2.3318  0.3006 -2.2034
 6743TIP3   OH241643   0.331   1.905  11.352 -0.5079  0.0692  0.2746
 6743TIP3    H141644   0.374   1.983  11.387  1.5906 -1.0293  0.3086
 6743TIP3    H241645   0.302   1.931  11.264 -1.2111  1.2973  0.8344
 6744TIP3   OH241646   5.199   6.331   3.464  0.5453 -0.9314  0.3807
 6744TIP3    H141647   5.258   6.397   3.429  0.7638 -0.3382  1.8213
 6744TIP3    H241648   5.112   6.356   3.431  1.0633 -1.9371 -1.9358
 6745TIP3   OH241649   0.260   4.211  13.314  0.0427  0.0612  0.1974
 6745TIP3    H141650   0.243   4.218  13.220 -1.3791 -0.3227  0.4049
 6745TIP3    H241651   0.356   4.211  13.321  0.1702  0.1296 -1.2383
 6746TIP3   OH241652   6.706   4.351   4.211 -0.1236 -0.1930  0.4854
 6746TIP3    H141653   6.679   4.280   4.153  2.2882 -0.7239 -0.1009
 6746TIP3    H241654   6.710   4.428   4.153 -1.2200  0.0926  0.7758
 6747TIP3   OH241655   1.734   0.964  16.283 -0.1617 -0.1668 -0.4402
 6747TIP3    H141656   1.782   0.969  16.201 -0.6510  0.9162 -0.6760
 6747TIP3    H241657   1.644   0.984  16.260 -0.7513 -2.1517  0.0008
 6748TIP3   OH241658   4.030   4.131  11.747  0.6715 -0.1367 -0.2785
 6748TIP3    H141659   3.938   4.109  11.733  0.8036 -0.4134 -0.7352
 6748TIP3    H241660   4.028   4.210  11.801  0.1223  1.2310 -2.1860
 6749TIP3   OH241661   6.353   5.230  12.930  0.6956  0.0271  0.1839
 6749TIP3    H141662   6.387   5.318  12.944  4.1076 -0.9834 -0.8111
 6749TIP3    H241663   6.261   5.243  12.909  1.2538  3.4220 -0.7833
 6750TIP3   OH241664   0.534   0.712   3.075  0.2824  0.5393  0.3823
 6750TIP3    H141665   0.558   0.637   3.019 -1.2287  1.4707 -1.6676
 6750TIP3    H241666   0.600   0.713   3.144  1.2729 -1.7152 -0.4235
 6751TIP3   OH241667   3.191   0.803  13.488 -0.7406  0.9305 -0.1962
 6751TIP3    H141668   3.160   0.768  13.571  0.7653 -0.4072 -0.1412
 6751TIP3    H241669   3.132   0.766  13.422  0.4942 -1.3814 -0.0828
 6752TIP3   OH241670   5.319   2.216  13.953  0.5719 -0.2554  0.4982
 6752TIP3    H141671   5.294   2.293  13.901 -1.0456 -0.7865  0.4381
 6752TIP3    H241672   5.333   2.147  13.888  2.0441 -0.0292  0.5513
 6753TIP3   OH241673   2.056   3.916   3.004  0.1158  1.0679 -0.2550
 6753TIP3    H141674   1.969   3.904   2.965  0.6943  0.3356 -1.3616
 6753TIP3    H241675   2.041   3.980   3.074 -2.2373 -2.3417  2.7597
 6754TIP3   OH241676   1.766   3.631   1.260  0.8917  0.3734 -0.5403
 6754TIP3    H141677   1.820   3.701   1.297 -0.2038  1.0926 -0.2385
 6754TIP3    H241678   1.677   3.667   1.261  0.3746 -0.8549 -0.8228
 6755TIP3   OH241679   1.579   0.577  12.386 -0.2686  0.5451  0.5650
 6755TIP3    H141680   1.648   0.536  12.438 -0.9759 -0.3034  0.8441
 6755TIP3    H241681   1.579   0.528  12.303 -0.3126  0.7662  0.4320
 6756TIP3   OH241682   3.329   6.307  14.196 -0.1081  0.8660  0.1881
 6756TIP3    H141683   3.359   6.358  14.120  1.1120 -0.2217 -0.1053
 6756TIP3    H241684   3.236   6.291  14.179  0.4285 -0.5274 -1.8097
 6757TIP3   OH241685   2.031   0.772  15.851 -0.1272 -0.1591  0.3917
 6757TIP3    H141686   2.032   0.787  15.757 -0.1785 -0.5271  0.3325
 6757TIP3    H241687   2.037   0.860  15.889 -3.1672  0.2595  0.0863
 6758TIP3   OH241688   0.845   4.619   1.432  0.1019 -0.2516 -0.3140
 6758TIP3    H141689   0.824   4.696   1.379  1.7342  0.0506 -0.5645
 6758TIP3    H241690   0.799   4.634   1.515 -1.6688 -0.2541 -1.2548
 6759TIP3   OH241691   2.949   5.239  13.023 -0.5994 -0.0612  0.2570
 6759TIP3    H141692   2.885   5.299  13.059 -2.3885 -2.6038  1.6342
 6759TIP3    H241693   2.897   5.171  12.980  1.3233 -0.5287 -1.5097
 6760TIP3   OH241694   3.483   5.693   5.827 -0.1481  0.0568  0.4852
 6760TIP3    H141695   3.558   5.676   5.769 -0.1544 -1.9290  1.0022
 6760TIP3    H241696   3.485   5.622   5.890 -0.8388  1.5269  2.2420
 6761TIP3   OH241697   3.899   5.920  13.381  0.3609  0.2129 -0.4381
 6761TIP3    H141698   3.853   5.911  13.465  0.1426  0.1700 -0.5642
 6761TIP3    H241699   3.870   6.004  13.346  0.1599  0.0555 -0.6508
 6762TIP3   OH241700   3.285   1.070   3.957  0.3554  0.0340 -0.7298
 6762TIP3    H141701   3.379   1.087   3.963  0.5814 -1.4915  1.9765
 6762TIP3    H241702   3.244   1.151   3.986  0.8853  0.2101 -0.4498
 6763TIP3   OH241703   4.009   6.589  16.617  0.3013 -0.3242  0.1494
 6763TIP3    H141704   4.032   6.588  16.525  0.3827 -0.9398  0.1704
 6763TIP3    H241705   4.005   6.681  16.640  2.0075 -0.1716 -0.0404
 6764TIP3   OH241706   2.037   0.266   1.949  1.0765 -0.0380  0.6492
 6764TIP3    H141707   2.023   0.281   1.855 -1.3763 -3.1331  0.3602
 6764TIP3    H241708   2.005   0.345   1.991  2.1569  1.3930 -1.0485
 6765TIP3   OH241709   1.256   4.975  13.044  0.7411  0.5048 -0.3380
 6765TIP3    H141710   1.312   5.049  13.019  1.5128 -0.3458 -1.2647
 6765TIP3    H241711   1.317   4.902  13.056  0.0072  0.0251  0.6393
 6766TIP3   OH241712   6.739   5.250  16.220 -0.5155  0.3573 -0.1919
 6766TIP3    H141713   6.771   5.323  16.166 -0.6971  0.6602  0.1048
 6766TIP3    H241714   6.755   5.172  16.166  2.2208  0.2905  0.5540
 6767TIP3   OH241715   0.623   2.559   0.488  0.0554 -0.1062 -0.1500
 6767TIP3    H141716   0.528   2.571   0.497  0.2009 -0.2450  2.0032
 6767TIP3    H241717   0.641   2.584   0.398 -2.1209 -0.7199 -0.8266
 6768TIP3   OH241718   5.110   5.103  12.071  0.6160  0.4030 -0.5899
 6768TIP3    H141719   5.067   5.158  12.005 -0.0824 -0.7901 -1.1669
 6768TIP3    H241720   5.178   5.160  12.109 -0.9102  2.0919 -0.2218
 6769TIP3   OH241721   0.196   3.210   1.805 -0.0193 -0.5625  0.6764
 6769TIP3    H141722   0.106   3.234   1.782  0.3652 -0.0881 -0.4142
 6769TIP3    H241723   0.189   3.119   1.834 -0.6434 -1.0590 -0.9034
 6770TIP3   OH241724   1.001   4.594  16.546 -0.6578 -0.1935  0.1644
 6770TIP3    H141725   1.096   4.583  16.550 -0.5132  0.5931 -0.7346
 6770TIP3    H241726   0.987   4.663  16.481 -1.8996 -1.0133 -0.4925
 6771TIP3   OH241727   5.789   4.946   6.014  0.3760  0.1589 -0.0009
 6771TIP3    H141728   5.815   4.860   6.046 -1.7071  0.2476  2.1967
 6771TIP3    H241729   5.716   4.929   5.955  1.3429  0.3344 -1.3066
 6772TIP3   OH241730   6.621   0.475   6.542  0.6493 -0.2095 -0.2253
 6772TIP3    H141731   6.696   0.493   6.485 -1.1478 -0.2078 -2.7360
 6772TIP3    H241732   6.617   0.550   6.601  2.3889 -0.0539 -0.2439
 6773TIP3   OH241733   0.612   5.965   4.814  0.1035  0.0787 -0.4336
 6773TIP3    H141734   0.590   5.913   4.737  1.6430 -0.6024 -0.4592
 6773TIP3    H241735   0.579   6.053   4.794 -1.9306 -0.6987 -0.6777
 6774TIP3   OH241736   6.676   3.938  16.459 -0.2832 -0.3363  0.5976
 6774TIP3    H141737   6.668   3.904  16.549  0.3508 -1.0639  0.3907
 6774TIP3    H241738   6.758   3.988  16.460  0.8044 -2.0230 -0.0677
 6775TIP3   OH241739   6.062   2.894  11.406 -0.1366 -0.0908 -0.3281
 6775TIP3    H141740   6.023   2.955  11.469 -1.7287 -0.9853 -0.4054
 6775TIP3    H241741   6.089   2.949  11.332 -1.2008  0.5647 -0.2441
 6776TIP3   OH241742   4.462   0.084   2.809  0.1333  0.0428  0.5134
 6776TIP3    H141743   4.522   0.045   2.746 -0.2497 -0.0728  0.2243
 6776TIP3    H241744   4.430   0.011   2.861  0.8319  0.1953  1.1741
 6777TIP3   OH241745   1.587   6.295  14.035 -0.0493  0.0476 -0.4576
 6777TIP3    H141746   1.654   6.240  14.076 -0.6789 -0.8383 -0.5971
 6777TIP3    H241747   1.581   6.261  13.945 -1.4075 -0.5694 -0.1552
 6778TIP3   OH241748   3.286   6.134   6.439 -0.2188  0.4843 -0.2394
 6778TIP3    H141749   3.351   6.188   6.485 -0.0660  0.4690 -0.4371
 6778TIP3    H241750   3.307   6.044   6.465 -0.6064  0.5358  0.2577
 6779TIP3   OH241751   6.415   2.122   1.812 -0.1474  0.3260 -0.5429
 6779TIP3    H141752   6.383   2.104   1.901 -0.4571  1.5178 -0.4009
 6779TIP3    H241753   6.377   2.052   1.759 -1.1181  0.4003  0.0259
 6780TIP3   OH241754   5.683   0.571  14.780  0.0691  0.0665 -0.1056
 6780TIP3    H141755   5.710   0.654  14.819  1.6441  0.3416 -1.6093
 6780TIP3    H241756   5.675   0.591  14.686  2.2339 -1.8153 -0.7741
 6781TIP3   OH241757   5.557   5.357   1.555  0.5908 -0.2325  0.5531
 6781TIP3    H141758   5.471   5.365   1.596  0.0754 -1.3830 -0.2261
 6781TIP3    H241759   5.548   5.403   1.472  1.0194  0.4165  0.8622
 6782TIP3   OH241760   5.744   0.162   3.960  0.5473 -0.8133 -0.0744
 6782TIP3    H141761   5.705   0.236   3.913 -0.5809 -1.1493  0.3096
 6782TIP3    H241762   5.705   0.085   3.919 -0.2407 -1.1209  1.2061
 6783TIP3   OH241763   5.638   2.311   1.234  0.0273 -0.0756  0.1650
 6783TIP3    H141764   5.676   2.367   1.166  0.8272  0.0437  0.6978
 6783TIP3    H241765   5.667   2.223   1.212 -0.9723 -0.2572 -0.4949
 6784TIP3   OH241766   3.103   3.052   4.530 -0.5830 -0.1576  0.0899
 6784TIP3    H141767   3.109   3.086   4.440 -0.0709  2.1201  0.9069
 6784TIP3    H241768   3.009   3.039   4.543 -0.9374  1.7976 -0.0660
 6785TIP3   OH241769   1.855   1.805  14.898  0.0426  0.0180 -0.2748
 6785TIP3    H141770   1.763   1.785  14.881 -0.1753  1.3840 -0.8255
 6785TIP3    H241771   1.896   1.805  14.812 -0.0608  2.2514 -0.3601
 6786TIP3   OH241772   3.807   2.742   3.912  0.4107 -0.3997 -0.1629
 6786TIP3    H141773   3.853   2.658   3.902  0.1185 -0.8770  1.8804
 6786TIP3    H241774   3.816   2.785   3.828  0.8629 -2.3509 -1.1704
 6787TIP3   OH241775   5.540   0.278  14.499 -0.0958  0.3708 -0.3656
 6787TIP3    H141776   5.544   0.373  14.512 -0.8107  0.5474 -1.3428
 6787TIP3    H241777   5.492   0.267  14.418 -0.8913 -0.8696  0.2423
 6788TIP3   OH241778   6.317   6.703  12.287 -0.1261  0.5519 -1.0136
 6788TIP3    H141779   6.352   6.650  12.215  0.5748 -0.0039 -0.2834
 6788TIP3    H241780   6.267   6.640  12.340  0.7440  0.5915 -0.1157
 6789TIP3   OH241781   3.888   0.206   1.597 -0.4788  0.7710  0.6551
 6789TIP3    H141782   3.815   0.241   1.647  0.1672 -1.2468  3.2697
 6789TIP3    H241783   3.958   0.271   1.607  0.4273 -0.5467  4.6808
 6790TIP3   OH241784   5.291   5.909   6.773  0.2514  0.2363  0.4511
 6790TIP3    H141785   5.383   5.884   6.783 -0.0850 -1.8095 -1.0218
 6790TIP3    H241786   5.292   5.973   6.702  0.3498 -1.6141 -1.2968
 6791TIP3   OH241787   5.350   3.703  15.213  0.4182  0.2734  0.0252
 6791TIP3    H141788   5.260   3.732  15.196  0.5083  1.1354  0.9272
 6791TIP3    H241789   5.348   3.609  15.196  0.1281  0.7198 -3.0745
 6792TIP3   OH241790   3.010   5.453   5.517 -0.0511 -0.1152  0.0048
 6792TIP3    H141791   3.020   5.360   5.534  1.3369  0.2016  1.1295
 6792TIP3    H241792   2.917   5.464   5.499 -0.3192 -1.6454  0.2924
 6793TIP3   OH241793   6.150   0.363  11.040  0.0573 -0.2171  0.8577
 6793TIP3    H141794   6.152   0.380  10.945 -1.3681  0.7847  0.9675
 6793TIP3    H241795   6.233   0.398  11.072  0.3159 -0.0676  0.0491
 6794TIP3   OH241796   4.132   0.456   4.607  0.0517 -0.1690 -0.1743
 6794TIP3    H141797   4.120   0.363   4.585 -1.6199  0.2242 -1.0807
 6794TIP3    H241798   4.125   0.502   4.524 -3.1974  1.0729  0.6231
 6795TIP3   OH241799   3.651   5.278   4.101 -0.4396 -0.2876  0.3329
 6795TIP3    H141800   3.585   5.338   4.137  0.4007 -0.1170  1.6536
 6795TIP3    H241801   3.701   5.332   4.039  0.6739  0.6106  1.9231
 6796TIP3   OH241802   1.580   0.644  11.541 -0.0450  0.3724  0.5450
 6796TIP3    H141803   1.492   0.667  11.511 -1.2150 -2.1446  1.7417
 6796TIP3    H241804   1.609   0.575  11.482  0.3347 -0.1048  1.2686
 6797TIP3   OH241805   2.118   5.871   5.996 -0.4498  0.0666  0.0224
 6797TIP3    H141806   2.131   5.955   5.953 -2.0410 -0.1290 -0.9356
 6797TIP3    H241807   2.156   5.807   5.936 -0.6473 -0.0250 -0.0056
 6798TIP3   OH241808   1.524   5.223  12.408  0.0351 -0.2539 -0.0726
 6798TIP3    H141809   1.442   5.269  12.424 -1.2008 -1.4739 -2.3618
 6798TIP3    H241810   1.557   5.260  12.326  0.7868 -1.0980 -0.1733
 6799TIP3   OH241811   4.365   5.482  15.132  0.1656  0.7095 -0.2285
 6799TIP3    H141812   4.316   5.546  15.183 -0.2785  0.1495  0.0620
 6799TIP3    H241813   4.426   5.534  15.081 -1.2842  1.5083 -1.2274
 6800TIP3   OH241814   3.328   3.009  12.342  0.1066 -0.2019  0.3764
 6800TIP3    H141815   3.383   3.087  12.344 -2.3402  1.7310 -1.1766
 6800TIP3    H241816   3.325   2.984  12.250 -0.9247 -0.7383  0.5374
 6801TIP3   OH241817   0.907   3.309   1.645 -0.4495  0.0348 -0.5294
 6801TIP3    H141818   0.952   3.279   1.566 -0.9874  0.0362 -0.8384
 6801TIP3    H241819   0.952   3.264   1.716  0.2441  0.2738 -0.8066
 6802TIP3   OH241820   4.359   4.061   3.166 -0.0924  0.1696  0.4903
 6802TIP3    H141821   4.417   4.136   3.162 -0.2757  0.2776 -0.8025
 6802TIP3    H241822   4.276   4.096   3.198 -0.4244  0.7282 -0.8800
 6803TIP3   OH241823   6.364   4.777   2.152 -0.3609 -0.1113 -0.0602
 6803TIP3    H141824   6.367   4.869   2.127  0.2548  0.5853  2.3467
 6803TIP3    H241825   6.272   4.760   2.171 -0.5818 -0.2220 -1.1373
 6804TIP3   OH241826   6.015   5.123   6.032 -0.8826 -0.0389  0.0655
 6804TIP3    H141827   6.041   5.155   5.946  0.0651 -1.4335 -0.1853
 6804TIP3    H241828   5.940   5.067   6.016  0.2186 -1.5209 -0.0715
 6805TIP3   OH241829   2.932   0.193   4.555  0.8341  0.6235 -0.0679
 6805TIP3    H141830   2.862   0.257   4.542  0.5165  0.5818  1.3016
 6805TIP3    H241831   2.993   0.236   4.615 -0.3102 -0.9812  2.3945
 6806TIP3   OH241832   4.063   4.542   2.837  0.2343 -0.0577 -0.2305
 6806TIP3    H141833   4.102   4.628   2.848 -1.2855  0.5790  0.3466
 6806TIP3    H241834   3.979   4.547   2.882  1.0738 -2.5593  1.8555
 6807TIP3   OH241835   5.833   5.502   0.323 -0.0644  0.6198  0.6827
 6807TIP3    H141836   5.819   5.419   0.277  0.9475 -0.2083  1.8308
 6807TIP3    H241837   5.912   5.539   0.284  1.2226 -0.4397  2.1897
 6808TIP3   OH241838   0.979   4.814  16.373  0.3057  0.4006  0.5029
 6808TIP3    H141839   0.915   4.815  16.302 -0.2912  0.6108  1.0372
 6808TIP3    H241840   1.056   4.858  16.337  0.2076  0.0255 -0.1858
 6809TIP3   OH241841   3.676   4.536  16.853 -0.1697  0.2783 -0.4423
 6809TIP3    H141842   3.716   4.451  16.875 -1.0843 -0.6430 -2.1292
 6809TIP3    H241843   3.747   4.599  16.867  1.4226 -1.1054 -1.7302
 6810TIP3   OH241844   4.749   4.371  12.637 -0.1846 -0.2104 -0.3019
 6810TIP3    H141845   4.718   4.389  12.548 -2.8781 -0.4662  0.5014
 6810TIP3    H241846   4.755   4.457  12.678 -1.1281 -0.2467 -0.0793
 6811TIP3   OH241847   0.730   4.374   1.171  0.1922 -0.1974  0.1597
 6811TIP3    H141848   0.684   4.457   1.176 -1.5879 -0.9733 -1.7412
 6811TIP3    H241849   0.798   4.387   1.104  0.9168  0.1312  0.9431
 6812TIP3   OH241850   1.755   3.193   3.173 -0.1169  0.1781  0.2178
 6812TIP3    H141851   1.835   3.197   3.225 -0.1472 -0.0048  0.2810
 6812TIP3    H241852   1.715   3.279   3.182  0.7817  0.7436 -0.9397
 6813TIP3   OH241853   5.500   2.398   2.103 -0.7282 -0.2155  0.3455
 6813TIP3    H141854   5.434   2.396   2.173 -0.9147 -0.5424  0.1632
 6813TIP3    H241855   5.513   2.306   2.081 -0.6825 -0.1099 -0.0656
 6814TIP3   OH241856   6.117   3.173  16.889  0.6278 -0.0282 -0.8316
 6814TIP3    H141857   6.158   3.257  16.910 -0.2859  0.1749  0.2280
 6814TIP3    H241858   6.030   3.178  16.929  0.9794 -1.9288  0.3255
 6815TIP3   OH241859   5.249   6.334   5.626  0.1708  0.3657 -0.2690
 6815TIP3    H141860   5.196   6.337   5.546 -1.0236 -0.2546  0.4749
 6815TIP3    H241861   5.311   6.406   5.616 -1.4714  1.7766 -0.7266
 6816TIP3   OH241862   5.698   1.686  15.403  0.1850 -0.5565  0.3250
 6816TIP3    H141863   5.740   1.763  15.443  0.5057 -0.2863 -0.5175
 6816TIP3    H241864   5.768   1.622  15.393  0.2882 -0.3120 -0.5711
 6817TIP3   OH241865   3.729   0.155   4.764 -0.1017  0.5936 -0.3903
 6817TIP3    H141866   3.729   0.077   4.819  4.0372 -0.2459 -1.3157
 6817TIP3    H241867   3.637   0.165   4.739 -1.5513 -1.2940  3.2961
 6818TIP3   OH241868   2.233   3.764   0.914  0.0822 -0.2258 -0.9510
 6818TIP3    H141869   2.148   3.783   0.954 -0.2507 -0.7393 -1.3945
 6818TIP3    H241870   2.266   3.849   0.884  0.1614  0.1139  0.0485
 6819TIP3   OH241871   5.623   3.719   1.529  0.1757 -0.1227 -0.1610
 6819TIP3    H141872   5.573   3.792   1.493 -1.3710 -0.7563  0.6212
 6819TIP3    H241873   5.559   3.667   1.577  1.6883 -0.6696  1.3789
 6820TIP3   OH241874   4.256   2.042  11.245  0.2255 -0.3785  0.2415
 6820TIP3    H141875   4.259   1.950  11.217 -2.9211 -1.0056  1.5321
 6820TIP3    H241876   4.219   2.088  11.170  1.1022 -0.2821 -0.1377
 6821TIP3   OH241877   3.526   2.635  11.531  0.3152  0.1744 -0.6696
 6821TIP3    H141878   3.504   2.592  11.614 -1.8880  1.9565 -0.2241
 6821TIP3    H241879   3.569   2.567  11.480  0.8296 -1.2850  1.5446
 6822TIP3   OH241880   0.661   6.141   0.961  0.0036 -0.4923 -0.1312
 6822TIP3    H141881   0.662   6.223   0.911  0.2658  0.0057  0.6813
 6822TIP3    H241882   0.573   6.106   0.949  0.4880 -1.1785 -2.2068
 6823TIP3   OH241883   2.258   6.413  16.653 -0.3787  0.8053 -0.2202
 6823TIP3    H141884   2.311   6.448  16.581 -0.8225 -0.2802 -1.1081
 6823TIP3    H241885   2.226   6.491  16.699  1.9067  1.4911  0.3195
 6824TIP3   OH241886   2.124   0.986  13.934  0.0121  0.5084 -0.2999
 6824TIP3    H141887   2.145   0.893  13.928  1.6425  0.7427  1.0215
 6824TIP3    H241888   2.091   1.009  13.847  0.8692 -0.9972 -1.0584
 6825TIP3   OH241889   6.542   0.966  11.348 -0.3123 -0.2036 -0.3617
 6825TIP3    H141890   6.495   0.917  11.415  0.2372 -0.6200 -0.2778
 6825TIP3    H241891   6.580   0.899  11.291  1.7085  0.0373  0.6025
 6826TIP3   OH241892   2.433   6.712   1.211  0.1445 -0.0020  0.0971
 6826TIP3    H141893   2.463   6.652   1.143  0.6716  0.3155  0.0448
 6826TIP3    H241894   2.427   6.797   1.167 -0.3193  0.0420  0.2410
 6827TIP3   OH241895   5.648   4.530  11.822 -0.1084  0.6203  0.4057
 6827TIP3    H141896   5.560   4.562  11.802 -1.1468 -1.7060  0.9351
 6827TIP3    H241897   5.655   4.534  11.917  0.6624  1.4412  0.3336
 6828TIP3   OH241898   2.875   0.610  16.360  0.4770 -0.4099 -0.1377
 6828TIP3    H141899   2.791   0.593  16.317  0.2167 -0.4657  0.3809
 6828TIP3    H241900   2.917   0.676  16.305 -0.2201  0.1508 -0.0144
 6829TIP3   OH241901   1.659   2.902  12.690 -0.3723 -0.2450 -0.3861
 6829TIP3    H141902   1.628   2.813  12.671  0.8577 -0.1647 -3.1873
 6829TIP3    H241903   1.746   2.906  12.650  0.1969  1.8069  0.9306
 6830TIP3   OH241904   6.300   6.571  14.918  0.1465 -0.4332 -0.0442
 6830TIP3    H141905   6.226   6.631  14.908  0.5689 -0.0941 -1.2862
 6830TIP3    H241906   6.272   6.491  14.873 -0.2987 -1.1118  1.3557
 6831TIP3   OH241907   1.861   0.884  15.426  0.3446 -0.2415 -0.4987
 6831TIP3    H141908   1.768   0.883  15.447  0.0391 -0.3331 -1.8135
 6831TIP3    H241909   1.875   0.964  15.376  1.3168  0.6250  1.0603
 6832TIP3   OH241910   1.750   5.516  16.193  0.4337 -0.2931  0.2754
 6832TIP3    H141911   1.829   5.487  16.238  0.1448 -2.6628 -0.5809
 6832TIP3    H241912   1.703   5.570  16.257  2.0402 -0.0430  1.2829
 6833TIP3   OH241913   0.698   4.071   0.051 -0.1187  0.3114  0.2751
 6833TIP3    H141914   0.698   4.011   0.125 -1.6585  0.4189  0.3841
 6833TIP3    H241915   0.744   4.149   0.083 -0.0421  0.0405  0.8344
 6834TIP3   OH241916   3.360   0.493   6.724 -0.8045  0.0840  0.3760
 6834TIP3    H141917   3.443   0.448   6.706 -1.4399 -1.0287  0.1361
 6834TIP3    H241918   3.309   0.430   6.774 -1.0894  1.1943  1.5558
 6835TIP3   OH241919   0.326   0.640   4.141 -0.3157 -0.0163 -0.1823
 6835TIP3    H141920   0.386   0.597   4.202 -0.9285  0.2363  0.6166
 6835TIP3    H241921   0.271   0.568   4.108  0.3999 -0.2482 -0.9178
 6836TIP3   OH241922   5.415   1.209   4.209  0.1512 -0.1717 -0.1180
 6836TIP3    H141923   5.490   1.242   4.160 -0.1842 -0.1671 -0.6450
 6836TIP3    H241924   5.393   1.280   4.269 -0.5063  0.5606 -1.1770
 6837TIP3   OH241925   1.841   4.861   2.789 -0.0338 -0.2241 -0.5129
 6837TIP3    H141926   1.892   4.878   2.868 -0.0101 -0.5744 -0.4485
 6837TIP3    H241927   1.753   4.893   2.809  0.4807  1.7319 -1.1477
 6838TIP3   OH241928   1.327   6.363  14.979 -0.1585 -0.0551  0.2324
 6838TIP3    H141929   1.320   6.459  14.981 -0.1467 -0.0524  0.1639
 6838TIP3    H241930   1.350   6.339  15.069  0.5389  0.0686  0.1000
 6839TIP3   OH241931   3.963   5.517   1.505  0.9956  0.2727 -0.2163
 6839TIP3    H141932   4.015   5.533   1.584  0.7976 -1.1763  0.2423
 6839TIP3    H241933   3.911   5.440   1.526  0.4014  0.2874 -1.5225
 6840TIP3   OH241934   2.561   0.239  15.484  0.5827 -0.4599 -0.1354
 6840TIP3    H141935   2.617   0.305  15.524 -0.8140 -0.2695  1.6201
 6840TIP3    H241936   2.609   0.157  15.495  1.6814  0.0240 -1.0738
 6841TIP3   OH241937   1.828   0.517  11.708  0.2365  0.0052  0.2717
 6841TIP3    H141938   1.868   0.451  11.765 -0.7932  0.0760  1.1001
 6841TIP3    H241939   1.739   0.527  11.742  0.3876  1.8696  0.1939
 6842TIP3   OH241940   1.875   3.333   5.299  0.4396  0.1621  0.2427
 6842TIP3    H141941   1.782   3.315   5.288  0.8471 -1.3121 -1.2183
 6842TIP3    H241942   1.894   3.401   5.235  0.5553 -0.2374 -0.1492
 6843TIP3   OH241943   4.973   1.834  11.635  0.0508  0.2335 -0.2960
 6843TIP3    H141944   4.933   1.748  11.620  0.9200  0.2085 -2.9836
 6843TIP3    H241945   5.041   1.817  11.701  0.4484 -1.2334 -1.0455
 6844TIP3   OH241946   1.859   5.614   2.683  0.1150  0.1219  0.1359
 6844TIP3    H141947   1.777   5.662   2.672 -0.1583 -0.1481  0.9082
 6844TIP3    H241948   1.927   5.682   2.683 -0.1634  0.4032  0.0877
 6845TIP3   OH241949   2.420   6.431  14.252 -0.7731 -0.1958 -0.1934
 6845TIP3    H141950   2.442   6.416  14.344 -1.2026  0.6993  0.0640
 6845TIP3    H241951   2.379   6.349  14.224  2.4172 -1.8489 -0.5997
 6846TIP3   OH241952   6.581   3.048  10.742  0.0167 -0.0959 -0.4032
 6846TIP3    H141953   6.566   2.973  10.685  1.7502 -1.6823  1.0726
 6846TIP3    H241954   6.652   3.096  10.701 -0.4965  0.2632 -0.8900
 6847TIP3   OH241955   1.023   5.263   1.123  0.4989 -0.0144 -0.5784
 6847TIP3    H141956   1.073   5.325   1.070  0.0030  0.6420 -0.2992
 6847TIP3    H241957   0.966   5.319   1.178  1.1949 -0.6490  0.8415
 6848TIP3   OH241958   3.408   3.262   6.919  0.1895  0.1234 -0.1611
 6848TIP3    H141959   3.438   3.182   6.877 -0.2961  0.4054 -1.0644
 6848TIP3    H241960   3.322   3.279   6.882  1.2419  2.3483 -1.8650
 6849TIP3   OH241961   3.476   3.625  15.104 -0.3059 -0.4657  0.4212
 6849TIP3    H141962   3.534   3.595  15.034  1.0807  0.0182  1.3210
 6849TIP3    H241963   3.520   3.597  15.184 -1.6490 -0.6275  1.1206
 6850TIP3   OH241964   0.159   1.161  12.394 -0.0824 -0.4024 -0.2441
 6850TIP3    H141965   0.068   1.150  12.423 -0.8501  0.0993 -2.2694
 6850TIP3    H241966   0.201   1.211  12.464 -1.8142  0.7493  0.0319
 6851TIP3   OH241967   2.546   1.971   5.993 -0.2751 -0.0528  0.4487
 6851TIP3    H141968   2.489   1.899   6.019 -1.0808  0.7163  0.8519
 6851TIP3    H241969   2.491   2.049   5.999 -0.1544  0.3715 -2.2956
 6852TIP3   OH241970   3.614   0.161  16.108 -0.4908 -0.3448  0.3200
 6852TIP3    H141971   3.685   0.144  16.170  0.1489 -0.9965 -0.5645
 6852TIP3    H241972   3.597   0.076  16.068 -0.0849  0.2712 -1.2388
 6853TIP3   OH241973   3.137   0.911   3.587  0.3318 -0.0600 -0.0887
 6853TIP3    H141974   3.214   0.880   3.636  0.2870  0.2067  0.1538
 6853TIP3    H241975   3.067   0.850   3.611  0.5694 -0.5614 -0.6420
 6854TIP3   OH241976   5.242   4.999   1.362  0.4038  0.3206  0.1614
 6854TIP3    H141977   5.208   4.999   1.451 -0.4016  2.1398 -0.1098
 6854TIP3    H241978   5.269   4.908   1.347 -0.4213 -0.2491  1.8685
 6855TIP3   OH241979   0.160   0.132  14.584  0.2532 -0.1237 -0.2168
 6855TIP3    H141980   0.126   0.180  14.660  0.7930 -0.4242  0.2170
 6855TIP3    H241981   0.124   0.044  14.593  2.8272 -1.1315  1.4729
 6856TIP3   OH241982   4.976   2.371  11.590  0.0165 -0.1869 -0.4501
 6856TIP3    H141983   4.897   2.424  11.577 -0.6334 -1.0920 -0.2155
 6856TIP3    H241984   4.947   2.281  11.579  0.8577 -0.5814  0.4436
 6857TIP3   OH241985   4.579   5.342  13.711 -0.0294  0.4222  0.3230
 6857TIP3    H141986   4.538   5.400  13.646 -0.4602 -0.5524 -0.2926
 6857TIP3    H241987   4.673   5.355  13.697 -0.1167  0.3628 -0.3857
 6858TIP3   OH241988   1.747   6.412  13.337 -0.0035 -0.1510 -0.0790
 6858TIP3    H141989   1.814   6.429  13.271 -0.8883  0.0293 -0.9568
 6858TIP3    H241990   1.696   6.493  13.341 -1.1512 -0.8072 -0.6269
 6859TIP3   OH241991   2.730   5.723  16.900  0.6169 -0.4750  0.0067
 6859TIP3    H141992   2.675   5.753  16.828  0.4302  1.3839  0.8565
 6859TIP3    H241993   2.700   5.634  16.918 -2.5640  0.6049  0.7672
 6860TIP3   OH241994   3.111   6.030  12.905 -0.5426 -0.2624 -0.2478
 6860TIP3    H141995   3.157   5.957  12.863 -0.4380 -1.0479  1.1872
 6860TIP3    H241996   3.032   6.041  12.853 -1.0015 -2.0075  0.0251
 6861TIP3   OH241997   1.293   4.079  15.620  0.5545 -0.2439 -0.1270
 6861TIP3    H141998   1.315   4.169  15.644  2.2648 -0.3040 -1.2702
 6861TIP3    H241999   1.197   4.076  15.621  0.4765  1.4730  0.3286
 6862TIP3   OH242000   4.422   5.323  14.258  0.1177 -0.3781  0.3847
 6862TIP3    H142001   4.431   5.229  14.274 -0.7968 -0.5168  0.1385
 6862TIP3    H242002   4.373   5.329  14.176 -0.0475  0.3115  0.5271
 6863TIP3   OH242003   5.645   2.904   1.399  0.1386  0.0634 -0.1700
 6863TIP3    H142004   5.571   2.960   1.425 -1.0356 -1.0327 -1.0667
 6863TIP3    H242005   5.682   2.948   1.322 -0.6962 -0.3000 -0.7918
 6864TIP3   OH242006   3.301   6.719   2.725 -0.1327  0.0067 -0.2635
 6864TIP3    H142007   3.386   6.762   2.735  0.5855 -1.4347  0.1064
 6864TIP3    H242008   3.304   6.645   2.785 -1.5213 -0.2789 -0.5110
 6865TIP3   OH242009   4.351   5.109   3.891  0.1968 -0.3653  0.1370
 6865TIP3    H142010   4.427   5.134   3.943  1.5344 -1.4919 -1.1765
 6865TIP3    H242011   4.373   5.137   3.802 -1.4957  0.4134 -0.0771
 6866TIP3   OH242012   3.967   0.807   5.293  0.2984  0.0806 -0.1132
 6866TIP3    H142013   3.946   0.715   5.308  0.6993  0.1591  1.0112
 6866TIP3    H242014   3.964   0.847   5.380  2.1253  0.6895 -0.2890
 6867TIP3   OH242015   2.433   2.002   3.475  0.2177 -0.1528  0.6865
 6867TIP3    H142016   2.434   1.976   3.567  0.0139 -0.0326  0.7222
 6867TIP3    H242017   2.517   1.971   3.440  0.3623 -0.0527  0.9501
 6868TIP3   OH242018   5.400   3.710  14.499  0.4171 -0.3040  0.1458
 6868TIP3    H142019   5.457   3.746  14.430  1.5280  0.3566  1.3545
 6868TIP3    H242020   5.315   3.701  14.457  0.9362  0.5664 -1.1748
 6869TIP3   OH242021   4.935   1.563  15.548 -0.0620  0.1603 -0.1981
 6869TIP3    H142022   5.025   1.553  15.580  0.5439  0.7200 -1.6293
 6869TIP3    H242023   4.926   1.495  15.481 -0.5431  0.4207 -0.4030
 6870TIP3   OH242024   0.546   2.158  15.644 -0.1206  0.4722 -0.1680
 6870TIP3    H142025   0.500   2.097  15.587  0.2646 -1.8343  1.8174
 6870TIP3    H242026   0.639   2.137  15.632 -0.0708 -0.7980  1.9532
 6871TIP3   OH242027   2.015   5.207  13.341 -0.3318 -0.0187  0.1463
 6871TIP3    H142028   1.977   5.204  13.253 -0.4062 -1.6624  0.2078
 6871TIP3    H242029   1.965   5.143  13.391 -1.0567  1.7242  1.7465
 6872TIP3   OH242030   4.016   1.399  12.744  0.0327 -0.0437 -0.1113
 6872TIP3    H142031   4.105   1.422  12.718  0.2834  0.5455  1.1888
 6872TIP3    H242032   4.005   1.309  12.714  1.6976 -0.7414  1.1996
 6873TIP3   OH242033   3.895   5.661   4.312 -0.0963 -0.0466  0.2591
 6873TIP3    H142034   3.978   5.624   4.344 -1.8657 -1.1078  4.1692
 6873TIP3    H242035   3.872   5.728   4.377 -3.2160 -1.1569  0.4629
 6874TIP3   OH242036   5.953   5.143  17.155  0.0822 -0.3190  0.7557
 6874TIP3    H142037   5.989   5.217  17.203 -0.7533 -0.5440  1.7580
 6874TIP3    H242038   5.981   5.157  17.064 -0.5131  1.5011  0.8231
 6875TIP3   OH242039   1.980   5.537  15.146 -0.4657 -0.4208  0.1075
 6875TIP3    H142040   1.938   5.507  15.066 -0.8265  1.3484 -0.4157
 6875TIP3    H242041   1.930   5.496  15.217 -0.8428 -1.1270 -0.5549
 6876TIP3   OH242042   1.660   1.005  13.423 -0.0439 -0.3502 -0.0314
 6876TIP3    H142043   1.685   1.012  13.331  0.3238 -3.0453 -0.2062
 6876TIP3    H242044   1.567   0.984  13.422 -0.6191  1.9266  0.3576
 6877TIP3   OH242045   6.297   1.636  17.006 -0.0906 -0.0978  0.0837
 6877TIP3    H142046   6.259   1.627  16.919  0.8932  0.2699 -0.4048
 6877TIP3    H242047   6.233   1.597  17.065 -0.7375 -0.4156 -0.8144
 6878TIP3   OH242048   6.758   2.590   4.886 -0.1920  0.1097 -0.2231
 6878TIP3    H142049   6.694   2.567   4.819  0.4530  0.4243 -0.9614
 6878TIP3    H242050   6.814   2.513   4.893 -1.3323 -0.6446  1.2890
 6879TIP3   OH242051   4.332   4.662  13.333  0.2172  0.4460 -0.1328
 6879TIP3    H142052   4.341   4.598  13.404 -3.2540  0.1746  0.2291
 6879TIP3    H242053   4.344   4.611  13.253  1.2313  0.1771  0.1688
 6880TIP3   OH242054   2.672   3.879  14.349  0.2334 -0.0665  0.5714
 6880TIP3    H142055   2.738   3.933  14.391 -0.3731  0.8818  0.3434
 6880TIP3    H242056   2.635   3.825  14.419 -0.2968  1.0077  1.1458
 6881TIP3   OH242057   4.183   2.138  13.966  0.0896 -0.0704 -0.0124
 6881TIP3    H142058   4.223   2.110  14.048 -0.6075 -0.2146  0.2858
 6881TIP3    H242059   4.233   2.216  13.941  0.0873  0.1796  0.7303
 6882TIP3   OH242060   0.451   6.629   5.192  0.2506  0.4620 -0.0979
 6882TIP3    H142061   0.445   6.603   5.283 -0.6625  0.0926 -0.2501
 6882TIP3    H242062   0.428   6.722   5.192  0.0881  0.4216  0.0281
 6883TIP3   OH242063   4.265   2.211  10.347 -0.3976  0.1571 -0.4692
 6883TIP3    H142064   4.256   2.170  10.433  0.2492  0.7464 -0.1131
 6883TIP3    H242065   4.274   2.138  10.286 -0.2611 -0.2517  0.0339
 6884TIP3   OH242066   6.453   0.268   2.582  0.3773 -0.3904  0.4714
 6884TIP3    H142067   6.488   0.191   2.538 -2.7838 -0.7178 -1.7869
 6884TIP3    H242068   6.463   0.339   2.519 -2.2067 -0.3777 -0.0272
 6885TIP3   OH242069   5.959   4.934  15.904 -0.1552 -0.6383 -0.1124
 6885TIP3    H142070   6.038   4.895  15.942  0.0634  0.6779  0.8339
 6885TIP3    H242071   5.890   4.870  15.922  0.5452 -1.4752 -0.3271
 6886TIP3   OH242072   0.463   6.710   1.033 -0.3864 -0.2227  0.4166
 6886TIP3    H142073   0.542   6.747   0.994  0.9262 -3.1935 -0.0547
 6886TIP3    H242074   0.404   6.784   1.045  1.2412  1.6513 -2.2086
 6887TIP3   OH242075   2.920   3.639  11.411 -0.0520 -0.7985  0.9866
 6887TIP3    H142076   2.878   3.569  11.362 -2.7410  0.9839  0.4980
 6887TIP3    H242077   2.961   3.596  11.486 -0.8176 -2.9329  0.2399
 6888TIP3   OH242078   2.309   4.845  15.132 -0.4640 -0.0947  0.3575
 6888TIP3    H142079   2.400   4.834  15.158  0.1381  1.6003 -0.8348
 6888TIP3    H242080   2.279   4.922  15.181 -1.6312 -1.2666  1.5656
 6889TIP3   OH242081   3.238   0.628  12.624  0.1134  0.2363 -0.6196
 6889TIP3    H142082   3.195   0.645  12.540 -1.6061  0.3510  0.2490
 6889TIP3    H242083   3.257   0.534  12.623  0.0313  0.2224 -1.0856
 6890TIP3   OH242084   3.463   3.162  13.454 -0.4502 -0.4483 -0.1134
 6890TIP3    H142085   3.542   3.161  13.508  0.7329 -0.8389 -1.7387
 6890TIP3    H242086   3.392   3.181  13.514  1.1740  2.7307  1.0125
 6891TIP3   OH242087   6.090   4.281   3.588 -0.5587  0.9632 -0.0676
 6891TIP3    H142088   6.005   4.268   3.632  0.1137  2.6860  1.9362
 6891TIP3    H242089   6.119   4.367   3.619  1.8569  0.4758 -0.8363
 6892TIP3   OH242090   5.547   5.085   3.757 -0.6608 -0.2751  0.1107
 6892TIP3    H142091   5.463   5.043   3.740 -0.9843  0.4765 -0.1989
 6892TIP3    H242092   5.534   5.176   3.731 -0.0161  0.0539  0.8847
 6893TIP3   OH242093   1.981   3.683  17.286  0.3551  0.3380  0.3140
 6893TIP3    H142094   1.960   3.656  17.376  1.2047 -1.1428  0.0952
 6893TIP3    H242095   1.929   3.762  17.272 -1.3597 -0.5398  1.4105
 6894TIP3   OH242096   6.656   5.875   5.274 -0.1905 -0.1299  0.1602
 6894TIP3    H142097   6.604   5.932   5.217  0.8443 -0.3661 -1.0450
 6894TIP3    H242098   6.700   5.936   5.333 -0.0040  0.2466 -0.3591
 6895TIP3   OH242099   4.129   1.315  14.765 -0.1194  0.0552  0.0852
 6895TIP3    H142100   4.141   1.220  14.764  0.0644  0.0765  0.3138
 6895TIP3    H242101   4.035   1.328  14.751  0.1114 -0.1098 -1.8835
 6896TIP3   OH242102   0.318   2.424   0.124  0.1585  0.2005 -0.0363
 6896TIP3    H142103   0.291   2.334   0.143 -0.3183  0.5442  0.9981
 6896TIP3    H242104   0.412   2.418   0.106  0.3794 -0.3700  1.1677
 6897TIP3   OH242105   1.849   4.477   2.383  0.5648 -0.2335 -0.2320
 6897TIP3    H142106   1.796   4.453   2.307  0.6480  0.1827 -0.4198
 6897TIP3    H242107   1.801   4.549   2.424  0.5868 -0.3710  0.0408
 6898TIP3   OH242108   0.600   1.563   5.147  0.6852  0.2344 -0.0519
 6898TIP3    H142109   0.635   1.553   5.235 -1.2832 -0.2015  0.7224
 6898TIP3    H242110   0.614   1.478   5.105  0.1335 -0.0844  0.4080
 6899TIP3   OH242111   3.477   4.107  16.399  0.4158 -0.2884  0.0555
 6899TIP3    H142112   3.512   4.035  16.347  0.0190 -0.1651 -0.3900
 6899TIP3    H242113   3.504   4.087  16.489  0.1207 -1.1053 -0.0275
 6900TIP3   OH242114   4.923   2.029   5.828  0.7650 -0.4254  0.5377
 6900TIP3    H142115   4.949   2.041   5.919 -1.4183  0.9195  1.0487
 6900TIP3    H242116   4.870   2.105   5.807  1.5828 -0.4482 -2.0583
 6901TIP3   OH242117   4.842   0.467  14.486 -0.2835  0.0472 -0.9260
 6901TIP3    H142118   4.785   0.452  14.411 -0.4010  0.9021 -1.0143
 6901TIP3    H242119   4.915   0.406  14.474 -0.6053 -0.2408 -1.4130
 6902TIP3   OH242120   1.191   3.884  16.841 -0.2083  0.1722 -0.2229
 6902TIP3    H142121   1.182   3.973  16.807  0.4899 -0.2374 -1.5897
 6902TIP3    H242122   1.263   3.889  16.904 -0.7378  0.7267  0.3496
 6903TIP3   OH242123   0.959   1.825  15.949  0.0686 -0.2295 -0.2059
 6903TIP3    H142124   0.907   1.905  15.955  0.2774 -0.1867  1.2003
 6903TIP3    H242125   0.934   1.787  15.864 -1.3938  0.3701 -0.0694
 6904TIP3   OH242126   4.439   0.804   1.519  0.1401  0.2166 -0.5032
 6904TIP3    H142127   4.386   0.821   1.597 -1.8966  0.9804 -1.9585
 6904TIP3    H242128   4.383   0.752   1.462  1.2200  0.4626 -1.8579
 6905TIP3   OH242129   2.554   2.663  12.946 -0.6184 -0.0942 -0.5857
 6905TIP3    H142130   2.543   2.641  12.854  0.5730  0.6324 -0.9269
 6905TIP3    H242131   2.616   2.736  12.946 -1.4973  0.7070  0.7173
 6906TIP3   OH242132   6.740   6.223   0.465  0.3427 -0.0133 -0.0194
 6906TIP3    H142133   6.732   6.297   0.405 -1.9351  0.7536  1.1231
 6906TIP3    H242134   6.763   6.262   0.549 -0.1864 -0.6703  0.4393
 6907TIP3   OH242135   0.349   5.291   4.272  0.4460 -0.2819 -0.4187
 6907TIP3    H142136   0.408   5.271   4.345 -0.1092  1.9598  0.7299
 6907TIP3    H242137   0.262   5.263   4.303  0.0701  1.4526  0.1940
 6908TIP3   OH242138   0.942   4.591  11.491 -0.1595 -0.3554  0.6732
 6908TIP3    H142139   1.019   4.559  11.443 -0.6139 -3.6155  1.8587
 6908TIP3    H242140   0.975   4.665  11.542  1.1745  0.9036 -1.8545
 6909TIP3   OH242141   1.966   6.264   0.796  0.2103  0.3492 -0.1054
 6909TIP3    H142142   1.922   6.179   0.794  1.1249 -0.1789 -3.0203
 6909TIP3    H242143   1.897   6.326   0.774  0.1761 -0.0958 -1.3783
 6910TIP3   OH242144   1.942   5.837   1.909  1.1635 -0.4103  0.3591
 6910TIP3    H142145   1.887   5.759   1.916 -0.6275  0.7225 -0.4458
 6910TIP3    H242146   2.031   5.803   1.908  0.4097 -2.6890 -2.2680
 6911TIP3   OH242147   0.609   2.131  10.705 -0.1895  0.1228  0.2183
 6911TIP3    H142148   0.581   2.178  10.626  0.1622  2.0436  1.1841
 6911TIP3    H242149   0.674   2.069  10.673 -1.6800 -0.7554 -1.2998
 6912TIP3   OH242150   2.166   5.730   5.740 -0.3018 -0.0072 -0.3155
 6912TIP3    H142151   2.203   5.642   5.734 -0.1230 -0.0314  0.9378
 6912TIP3    H242152   2.075   5.719   5.714  0.1449 -0.2189 -1.9219
 6913TIP3   OH242153   4.277   3.222   3.905 -0.2169  0.2129 -0.1981
 6913TIP3    H142154   4.323   3.222   3.988 -1.0031 -1.3296  0.2683
 6913TIP3    H242155   4.339   3.186   3.842 -0.3116 -0.5691  0.1501
 6914TIP3   OH242156   0.600   2.817  11.692  0.5520  0.1235 -0.0881
 6914TIP3    H142157   0.679   2.774  11.723  0.7944 -0.6955 -1.7488
 6914TIP3    H242158   0.613   2.828  11.598 -1.1092  0.4014 -0.3213
 6915TIP3   OH242159   3.551   0.301   4.077 -0.6100 -0.0614  0.8107
 6915TIP3    H142160   3.521   0.337   3.994 -0.2884 -1.2217  0.1700
 6915TIP3    H242161   3.483   0.326   4.140  0.4345  3.1685  0.8307
 6916TIP3   OH242162   6.777   0.759  16.653  0.2237 -0.1992 -0.7872
 6916TIP3    H142163   6.732   0.844  16.651 -0.4226 -0.4233  1.4620
 6916TIP3    H242164   6.711   0.697  16.622  1.0279  0.1696 -3.4710
 6917TIP3   OH242165   1.945   0.105  15.723  0.5319 -0.1877  0.3877
 6917TIP3    H142166   1.870   0.130  15.669  2.2692 -1.2862 -2.7985
 6917TIP3    H242167   1.990   0.187  15.742 -0.5807  0.3093  0.9129
 6918TIP3   OH242168   3.308   2.396   2.319 -0.5654 -0.1693  0.2291
 6918TIP3    H142169   3.307   2.334   2.392 -3.1859 -0.0830  0.3758
 6918TIP3    H242170   3.393   2.385   2.278  0.5098 -1.1178  2.5450
 6919TIP3   OH242171   1.769   5.412  12.455  0.1209 -0.2490 -0.3632
 6919TIP3    H142172   1.862   5.397  12.471 -0.1604 -1.8371 -0.1190
 6919TIP3    H242173   1.752   5.497  12.496  1.8080  0.9221 -1.8906
 6920TIP3   OH242174   4.463   3.978  16.532  0.1549 -0.2654  0.3533
 6920TIP3    H142175   4.512   3.905  16.571  0.5146  0.2233  0.8266
 6920TIP3    H242176   4.528   4.027  16.482 -0.3157 -0.9231 -0.9484
 6921TIP3   OH242177   3.563   0.085   2.766  0.4279 -0.1338 -0.4540
 6921TIP3    H142178   3.609   0.019   2.818 -0.2665  0.4589  0.9457
 6921TIP3    H242179   3.602   0.168   2.792 -2.2819  0.5607  1.8565
 6922TIP3   OH242180   0.471   6.218  14.304  0.3213  0.2662  0.2104
 6922TIP3    H142181   0.567   6.221  14.300  0.2596  1.7501 -2.2554
 6922TIP3    H242182   0.444   6.310  14.308 -0.9941 -0.0734 -0.2152
 6923TIP3   OH242183   6.558   4.934  11.124  0.0678  0.5408  0.1691
 6923TIP3    H142184   6.532   4.867  11.060  0.1726 -0.3768  1.0645
 6923TIP3    H242185   6.523   5.016  11.089 -1.3115 -0.1972 -0.2373
 6924TIP3   OH242186   3.155   5.037   6.083 -0.6758 -0.2824  0.2410
 6924TIP3    H142187   3.245   5.008   6.069 -0.9507 -0.7595 -0.5362
 6924TIP3    H242188   3.132   5.087   6.005 -1.1438 -0.2846  0.3699
 6925TIP3   OH242189   6.087   2.259   0.641  0.0375  0.6440  0.1790
 6925TIP3    H142190   6.071   2.219   0.726  0.3599 -0.5525 -0.3078
 6925TIP3    H242191   6.006   2.246   0.592  1.2908 -2.8634 -1.2849
 6926TIP3   OH242192   5.176   3.126   6.340 -0.2381 -0.9797 -0.5796
 6926TIP3    H142193   5.270   3.124   6.355 -0.1106  0.5301 -1.0929
 6926TIP3    H242194   5.157   3.215   6.311 -1.8365 -1.2357 -0.4362
 6927TIP3   OH242195   5.470   5.873  14.847 -0.0270 -0.2405 -0.0809
 6927TIP3    H142196   5.431   5.945  14.797  1.7314  0.6546 -0.2341
 6927TIP3    H242197   5.437   5.885  14.936 -1.0760 -0.2671 -0.4570
 6928TIP3   OH242198   4.607   4.622   0.193 -0.4562 -0.1782  0.0900
 6928TIP3    H142199   4.564   4.582   0.269  0.7770  0.4361  1.1421
 6928TIP3    H242200   4.674   4.559   0.168  0.1517  0.2889  0.4941
 6929TIP3   OH242201   1.271   6.025  11.261 -0.8064 -0.1634  0.5629
 6929TIP3    H142202   1.233   6.098  11.213 -1.5145 -0.0802  1.2318
 6929TIP3    H242203   1.288   5.958  11.195  1.8266  1.3381 -0.4480
 6930TIP3   OH242204   0.445   1.828  15.119  0.4581  0.3069  0.1442
 6930TIP3    H142205   0.492   1.784  15.048 -0.5171  0.4440 -0.6148
 6930TIP3    H242206   0.454   1.921  15.098 -0.0859  0.3341  0.0268
 6931TIP3   OH242207   1.164   4.882   2.272  0.0372 -0.0737  0.0114
 6931TIP3    H142208   1.150   4.943   2.344 -0.8684 -0.2814  0.0157
 6931TIP3    H242209   1.244   4.835   2.296  0.4965  0.7946  0.2182
 6932TIP3   OH242210   5.291   2.750   3.132  0.0047 -0.5281  0.3491
 6932TIP3    H142211   5.282   2.787   3.045 -2.9036 -0.5935  0.5240
 6932TIP3    H242212   5.384   2.756   3.152  0.7409 -0.4411 -2.6984
 6933TIP3   OH242213   2.427   1.881  11.426  0.2041 -0.4001  0.2828
 6933TIP3    H142214   2.505   1.892  11.372  0.4509  0.4565  0.8007
 6933TIP3    H242215   2.354   1.899  11.366  0.4727  0.4469  0.1940
 6934TIP3   OH242216   4.219   3.255   4.403  0.0610 -0.4144  0.4651
 6934TIP3    H142217   4.314   3.263   4.410  0.0743 -0.4740  0.3542
 6934TIP3    H242218   4.192   3.217   4.486  0.2871 -1.7204 -0.0377
 6935TIP3   OH242219   1.186   1.825  13.123 -0.0225 -0.2388 -0.1074
 6935TIP3    H142220   1.129   1.903  13.120  2.9272  2.1069 -0.0445
 6935TIP3    H242221   1.230   1.824  13.038  0.1446 -1.7982 -0.0333
 6936TIP3   OH242222   6.734   5.576   3.732 -0.1585  0.1857 -0.5578
 6936TIP3    H142223   6.686   5.656   3.710  0.5284  0.6392 -0.4498
 6936TIP3    H242224   6.666   5.509   3.743 -0.7357  0.7321 -0.7384
 6937TIP3   OH242225   5.944   3.664  15.175 -0.2683  0.5845  0.1738
 6937TIP3    H142226   6.034   3.652  15.207 -0.7408  0.3122  1.4285
 6937TIP3    H242227   5.917   3.749  15.210 -0.5747  0.5743 -0.0339
 6938TIP3   OH242228   5.930   4.973  11.512 -0.3563 -0.0130  0.3808
 6938TIP3    H142229   5.904   5.038  11.577  1.6157  0.7802  0.4410
 6938TIP3    H242230   6.017   4.944  11.541 -0.6600 -1.7714 -0.3417
 6939TIP3   OH242231   3.517   0.955   3.287  0.0678  0.3202  0.2852
 6939TIP3    H142232   3.595   0.955   3.342  0.6496  1.6061 -0.5080
 6939TIP3    H242233   3.444   0.961   3.349  0.5902 -0.5702  1.0152
 6940TIP3   OH242234   0.816   5.837   1.156  0.3840 -0.5471  0.3274
 6940TIP3    H142235   0.890   5.841   1.096 -0.3035  2.2243 -0.4669
 6940TIP3    H242236   0.739   5.826   1.100 -0.0815 -0.1105  0.8619
 6941TIP3   OH242237   1.923   1.285   4.612 -0.1772  0.8479  0.5910
 6941TIP3    H142238   1.888   1.334   4.686 -0.8573  1.1326  0.1016
 6941TIP3    H242239   1.852   1.287   4.547  0.1586  0.0502  0.1880
 6942TIP3   OH242240   5.747   0.009   1.576 -0.2068 -0.3352  0.3103
 6942TIP3    H142241   5.763  -0.055   1.506 -3.1638 -0.9355  0.0351
 6942TIP3    H242242   5.731   0.091   1.529  0.6750 -0.0638  0.4786
 6943TIP3   OH242243   2.194   4.771   3.258  0.1825  0.8344 -0.2795
 6943TIP3    H142244   2.277   4.812   3.232  1.5326 -0.7040  1.2860
 6943TIP3    H242245   2.148   4.839   3.307  2.5345  0.5410  2.6214
 6944TIP3   OH242246   2.683   6.191  16.449 -0.5813  0.0616  0.1027
 6944TIP3    H142247   2.650   6.103  16.432  0.5611 -0.4210  0.2387
 6944TIP3    H242248   2.689   6.232  16.363  0.6978 -0.6917 -0.1971
 6945TIP3   OH242249   4.362   1.553   4.334  0.2647  0.3890  0.1632
 6945TIP3    H142250   4.275   1.520   4.355  0.4786  0.0584  0.5278
 6945TIP3    H242251   4.417   1.523   4.405  0.7825  0.1614 -0.3267
 6946TIP3   OH242252   4.558   2.321   0.709  0.1177  0.1296 -0.5274
 6946TIP3    H142253   4.654   2.318   0.709  0.2184 -0.8665  2.7958
 6946TIP3    H242254   4.532   2.234   0.677  0.4430 -0.4814  0.7922
 6947TIP3   OH242255   6.731   5.953  17.171  0.7838 -0.3267  0.7453
 6947TIP3    H142256   6.677   5.934  17.248  0.4992 -0.8427  0.4252
 6947TIP3    H242257   6.697   6.036  17.137 -1.5222 -1.8025 -0.8954
 6948TIP3   OH242258   0.802   5.410  13.391 -0.1912  0.1934  0.2095
 6948TIP3    H142259   0.752   5.490  13.405 -0.6954 -0.1298  0.2919
 6948TIP3    H242260   0.753   5.342  13.437 -0.4431 -0.3912 -0.8787
 6949TIP3   OH242261   6.571   1.908   4.727 -0.2498  0.4700  0.3226
 6949TIP3    H142262   6.498   1.943   4.676  2.5987  1.6902 -3.3349
 6949TIP3    H242263   6.615   1.985   4.761  0.5526 -0.1126  0.6252
 6950TIP3   OH242264   0.416   5.552   0.986  0.0478 -0.2566  0.1402
 6950TIP3    H142265   0.446   5.500   0.911  0.1807  1.0100 -0.7104
 6950TIP3    H242266   0.326   5.576   0.964  0.0294 -0.0224  0.4687
 6951TIP3   OH242267   2.515   0.678   4.527 -0.2393 -0.3783 -0.1490
 6951TIP3    H142268   2.584   0.679   4.594 -0.1028  2.0387 -0.2375
 6951TIP3    H242269   2.561   0.691   4.444 -0.7454  1.0340 -0.2332
 6952TIP3   OH242270   3.449   2.054  14.769  0.8363 -0.2553 -0.1286
 6952TIP3    H142271   3.389   1.980  14.763  0.0072  0.3725  0.3493
 6952TIP3    H242272   3.461   2.081  14.678 -0.5759  0.3745 -0.1486
 6953TIP3   OH242273   1.681   0.369  12.976  0.5615 -0.3124  0.1540
 6953TIP3    H142274   1.681   0.283  12.932 -0.0096 -0.6404  0.7897
 6953TIP3    H242275   1.628   0.424  12.919 -0.6427 -0.8829  0.6982
 6954TIP3   OH242276   3.343   2.768  14.136  0.0304  0.1360  0.7265
 6954TIP3    H142277   3.247   2.770  14.129  0.1025  0.8961 -0.4855
 6954TIP3    H242278   3.367   2.679  14.110 -0.2428  0.6496 -1.5844
 6955TIP3   OH242279   2.988   6.700  12.617  0.2497  0.0795  0.2446
 6955TIP3    H142280   3.072   6.712  12.573  1.3078 -1.5237  1.6831
 6955TIP3    H242281   2.992   6.758  12.692 -0.0371  0.1926  0.1718
 6956TIP3   OH242282   5.699   0.442   0.138 -0.0528 -0.2210  0.1437
 6956TIP3    H142283   5.721   0.535   0.150  2.1802 -0.7587  0.7332
 6956TIP3    H242284   5.670   0.413   0.224  0.2113 -0.3003  0.2060
 6957TIP3   OH242285   6.028   4.986  12.141  0.4105  0.3272 -0.1478
 6957TIP3    H142286   6.086   4.939  12.200  1.0172  1.3719  0.1216
 6957TIP3    H242287   5.973   4.919  12.101 -0.3858 -0.3665  2.0071
 6958TIP3   OH242288   5.165   1.834  13.080  0.2365  0.0715  0.5817
 6958TIP3    H142289   5.171   1.798  12.991  0.4211 -0.2061  0.7054
 6958TIP3    H242290   5.190   1.926  13.070  0.3564  0.0166  0.3595
 6959TIP3   OH242291   0.818   3.705   2.046  0.1614 -0.3206 -0.0190
 6959TIP3    H142292   0.856   3.635   1.993 -0.9893  0.1330 -1.4963
 6959TIP3    H242293   0.847   3.786   2.003 -0.6225  0.0620  0.1542
 6960TIP3   OH242294   1.038   1.317  17.041  0.0424  0.3121 -0.1646
 6960TIP3    H142295   1.030   1.353  16.953 -2.0897  1.6245  0.4751
 6960TIP3    H242296   1.124   1.345  17.071  0.0539  1.4353 -1.1741
 6961TIP3   OH242297   2.772   4.345   5.156  0.5294  0.1766  0.0564
 6961TIP3    H142298   2.694   4.338   5.212  0.4629  1.2194  0.1088
 6961TIP3    H242299   2.780   4.438   5.138  1.1272 -0.0440 -0.8738
 6962TIP3   OH242300   3.539   5.004   1.890  0.3223  0.0485  0.1926
 6962TIP3    H142301   3.518   5.067   1.959  2.7438  1.9677 -0.6551
 6962TIP3    H242302   3.624   4.968   1.917 -0.2579 -1.6963 -0.1834
 6963TIP3   OH242303   2.514   2.725   1.552 -0.3498  0.0038 -0.5795
 6963TIP3    H142304   2.476   2.737   1.639  0.3849  2.4444 -0.5352
 6963TIP3    H242305   2.604   2.756   1.560 -0.3556  0.5912 -2.2722
 6964TIP3   OH242306   5.196   3.787   5.579  0.1781  0.0914  0.4473
 6964TIP3    H142307   5.262   3.849   5.548  2.0779 -2.1512 -0.3159
 6964TIP3    H242308   5.113   3.834   5.572  1.3731  2.0872 -1.3357
 6965TIP3   OH242309   0.564   6.197   0.101  0.5002 -0.0937  0.1162
 6965TIP3    H142310   0.575   6.213   0.007 -0.1244  0.9878  0.2085
 6965TIP3    H242311   0.497   6.128   0.106  3.3197 -3.1268 -0.2907
 6966TIP3   OH242312   0.858   4.018  13.219 -0.6828 -0.3732  0.0138
 6966TIP3    H142313   0.819   4.016  13.132 -0.6956 -0.8572  0.0236
 6966TIP3    H242314   0.834   3.933  13.257 -1.7064  0.3093  0.9348
 6967TIP3   OH242315   1.189   1.537   5.637  0.4522  0.0246 -0.0505
 6967TIP3    H142316   1.148   1.564   5.719 -0.6474 -1.5514 -0.0462
 6967TIP3    H242317   1.179   1.613   5.580 -0.7820  0.3510  0.5657
 6968TIP3   OH242318   1.336   5.849  12.916 -0.1561  0.0350 -0.2607
 6968TIP3    H142319   1.331   5.944  12.928 -0.5494  0.4511 -3.1058
 6968TIP3    H242320   1.275   5.814  12.981 -2.9961  2.0191 -1.6387
 6969TIP3   OH242321   6.190   1.578  16.752 -0.2266 -0.2300  0.2380
 6969TIP3    H142322   6.096   1.593  16.739 -0.0265  0.3865 -0.6438
 6969TIP3    H242323   6.206   1.491  16.716 -0.0104  0.7417 -2.2577
 6970TIP3   OH242324   5.880   1.521  15.981  0.4191 -0.2152  0.0781
 6970TIP3    H142325   5.844   1.479  16.059  1.2700 -0.4422  0.3664
 6970TIP3    H242326   5.920   1.602  16.014  1.0603 -0.4664 -0.0604
 6971TIP3   OH242327   0.815   1.609  15.040 -0.7141 -0.1761 -0.5994
 6971TIP3    H142328   0.750   1.585  15.107 -0.3145  0.3725 -0.0125
 6971TIP3    H242329   0.856   1.689  15.073  0.5353 -0.7192 -0.7797
 6972TIP3   OH242330   3.265   5.712  15.108 -0.0997  0.1014 -0.4476
 6972TIP3    H142331   3.238   5.777  15.043 -1.0149  0.5133  0.3041
 6972TIP3    H242332   3.354   5.688  15.084  0.1770  1.4743 -0.8781
 6973TIP3   OH242333   2.917   2.153  13.357  0.0300 -0.4029  0.0981
 6973TIP3    H142334   2.870   2.232  13.329  0.7324  0.5878  1.5333
 6973TIP3    H242335   2.979   2.136  13.286  0.1002  0.5568 -0.0940
 6974TIP3   OH242336   3.441   4.579   2.016 -0.4628  0.1807  0.0522
 6974TIP3    H142337   3.529   4.611   1.996 -0.4431  1.0138  1.3331
 6974TIP3    H242338   3.383   4.650   1.987 -0.5010  0.9080  1.7864
 6975TIP3   OH242339   0.829   1.155   6.397  0.3302  0.1784  0.4468
 6975TIP3    H142340   0.777   1.212   6.454  2.4287  2.5404  0.1580
 6975TIP3    H242341   0.855   1.082   6.453  0.5338  1.3335  1.9054
 6976TIP3   OH242342   4.647   4.186   5.715 -0.2238  0.2254  0.8167
 6976TIP3    H142343   4.661   4.091   5.715 -3.5468 -0.4209 -0.8513
 6976TIP3    H242344   4.715   4.220   5.657  1.1997 -1.0525  1.6634
 6977TIP3   OH242345   2.350   6.680  11.891  0.0509  0.3647  0.4846
 6977TIP3    H142346   2.280   6.637  11.841 -0.7566 -2.3218  3.5810
 6977TIP3    H242347   2.420   6.695  11.827 -2.2107  0.5730 -2.1486
 6978TIP3   OH242348   0.759   6.346   5.661  0.5008  0.7929 -0.0690
 6978TIP3    H142349   0.781   6.422   5.607 -2.4241  0.6256 -1.7368
 6978TIP3    H242350   0.786   6.271   5.608 -2.1018  0.6348 -1.3171
 6979TIP3   OH242351   3.805   2.503  14.578  0.0545  0.6804  0.1909
 6979TIP3    H142352   3.898   2.492  14.555 -0.6213  0.9795 -3.3267
 6979TIP3    H242353   3.758   2.449  14.514 -2.2687  3.1532 -0.3684
 6980TIP3   OH242354   0.045   3.033  16.176  0.3736  0.1280 -0.3447
 6980TIP3    H142355  -0.040   3.030  16.220  0.3269 -2.0169 -0.4900
 6980TIP3    H242356   0.040   3.110  16.120  0.0716  2.4359  2.5612
 6981TIP3   OH242357   3.686   4.711  16.018 -0.3997  0.0623 -0.3655
 6981TIP3    H142358   3.655   4.775  15.954  1.5147  0.9659 -0.4728
 6981TIP3    H242359   3.640   4.735  16.099 -0.8601  0.5844 -0.7691
 6982TIP3   OH242360   6.721   6.024  13.281 -0.2130 -0.1396  0.2278
 6982TIP3    H142361   6.640   6.007  13.329 -0.6882 -0.2093 -0.5756
 6982TIP3    H242362   6.785   6.046  13.349 -0.2606 -2.4463  1.1187
 6983TIP3   OH242363   6.236   1.456   2.544  0.4681 -0.3770  0.2001
 6983TIP3    H142364   6.178   1.385   2.517 -1.7050  1.0316  0.8990
 6983TIP3    H242365   6.290   1.418   2.613  0.0883 -1.6117 -0.1513
 6984TIP3   OH242366   4.363   3.175   2.080 -0.2878  0.2420  0.4788
 6984TIP3    H142367   4.400   3.263   2.092 -1.2133  1.0324 -1.8642
 6984TIP3    H242368   4.416   3.136   2.010  0.8628 -1.5889  2.2707
 6985TIP3   OH242369   6.475   5.132   1.086 -0.8684 -0.6180 -0.5514
 6985TIP3    H142370   6.540   5.163   1.149 -0.2716  4.1302 -3.0079
 6985TIP3    H242371   6.393   5.128   1.135 -0.0785  0.9343  0.9854
 6986TIP3   OH242372   0.590   0.120   2.680 -0.2679 -0.1298 -0.2157
 6986TIP3    H142373   0.512   0.072   2.708  1.4345 -2.7855  0.2603
 6986TIP3    H242374   0.592   0.109   2.585 -0.8803  0.7076 -0.3465
 6987TIP3   OH242375   4.622   6.338  13.197  0.2588 -0.0315  0.8782
 6987TIP3    H142376   4.624   6.365  13.105 -0.0187 -0.8687  0.6133
 6987TIP3    H242377   4.536   6.299  13.208  0.0331  0.6791  1.6865
 6988TIP3   OH242378   2.342   6.034  16.725  0.4221  0.3627  0.0489
 6988TIP3    H142379   2.386   6.118  16.740  0.9182  0.3288 -1.1287
 6988TIP3    H242380   2.290   6.048  16.646  1.1500 -0.6817 -0.6320
 6989TIP3   OH242381   0.606   1.284  15.847  0.5516 -0.4562  0.0858
 6989TIP3    H142382   0.622   1.196  15.813  1.0689 -0.0190 -0.8485
 6989TIP3    H242383   0.644   1.284  15.934 -1.2106 -1.7568  0.9191
 6990TIP3   OH242384   3.274   4.658   3.895 -0.3444  0.2620 -0.3623
 6990TIP3    H142385   3.301   4.613   3.815 -0.9363 -0.7267 -0.0308
 6990TIP3    H242386   3.347   4.716   3.916  0.5652 -0.7339 -0.6803
 6991TIP3   OH242387   6.146   2.025  11.343 -0.2516  0.0076 -0.5020
 6991TIP3    H142388   6.183   1.947  11.301  0.6960 -0.0614  0.4033
 6991TIP3    H242389   6.113   2.078  11.271  0.1704 -0.6955 -1.2254
 6992TIP3   OH242390   1.097   0.620  15.209  0.5541 -0.2423 -0.2127
 6992TIP3    H142391   1.076   0.532  15.178  1.0706 -0.1842 -0.7502
 6992TIP3    H242392   1.028   0.641  15.272  0.6206 -1.1634  0.1733
 6993TIP3   OH242393   4.202   5.133   2.420  0.3078  0.1624 -0.5837
 6993TIP3    H142394   4.162   5.140   2.507 -0.5758 -2.9343 -0.6309
 6993TIP3    H242395   4.291   5.103   2.436  0.0281 -0.7791 -0.7098
 6994TIP3   OH242396   4.434   0.649  15.497  0.3218  0.1248 -0.2927
 6994TIP3    H142397   4.451   0.742  15.481 -1.0586  0.5943  0.7978
 6994TIP3    H242398   4.514   0.618  15.539  0.1891  1.2601  0.8932
 6995TIP3   OH242399   2.127   0.729   5.726 -0.8990  0.5561  0.1950
 6995TIP3    H142400   2.176   0.647   5.732 -3.2311 -0.7988  2.7285
 6995TIP3    H242401   2.179   0.792   5.776 -2.1245 -1.2192  4.1238
 6996TIP3   OH242402   2.189   4.490   4.978 -0.3998 -0.1078  0.3018
 6996TIP3    H142403   2.165   4.480   5.070  0.6371  1.5198  0.8016
 6996TIP3    H242404   2.257   4.424   4.963  1.1557  1.1401  1.4345
 6997TIP3   OH242405   1.784   0.249   0.913 -0.1467  0.1808 -0.2693
 6997TIP3    H142406   1.834   0.295   0.845  0.5274 -1.1232 -0.6994
 6997TIP3    H242407   1.849   0.225   0.979 -0.5908  0.3895  0.2497
 6998TIP3   OH242408   3.481   4.182   1.011 -0.5114 -0.5285 -0.3976
 6998TIP3    H142409   3.505   4.233   0.934  0.5482  0.5628  0.6160
 6998TIP3    H242410   3.407   4.229   1.049  0.0521 -0.0980  0.1783
 6999TIP3   OH242411   1.451   4.427  16.878  0.3587  0.2689 -0.3569
 6999TIP3    H142412   1.410   4.346  16.847 -1.9013  1.8145 -1.6941
 6999TIP3    H242413   1.379   4.478  16.915  1.2008  2.6853 -1.7940
 7000TIP3   OH242414   3.717   4.542   1.861  0.1937  0.4894  0.2529
 7000TIP3    H142415   3.710   4.480   1.933  0.5245  1.1944  0.9104
 7000TIP3    H242416   3.811   4.564   1.857  0.2372  0.1980 -0.6224
 7001TIP3   OH242417   6.082   4.459   0.843 -0.0954  0.3676 -0.0102
 7001TIP3    H142418   6.167   4.488   0.810  0.1392  0.0546  0.3128
 7001TIP3    H242419   6.072   4.369   0.810 -0.4723  0.5313 -0.3609
 7002TIP3   OH242420   1.815   1.990   5.939 -0.0618 -0.4077 -0.2070
 7002TIP3    H142421   1.883   1.965   6.001 -0.7753 -1.7013  0.0819
 7002TIP3    H242422   1.736   2.000   5.993 -0.0055  1.8212 -0.4130
 7003TIP3   OH242423   3.707   4.453   3.242 -0.7253 -0.2282 -0.6164
 7003TIP3    H142424   3.795   4.420   3.263 -0.0563  0.2090 -2.5492
 7003TIP3    H242425   3.656   4.435   3.321  1.6135  1.5106  1.4851
 7004TIP3   OH242426   0.152   1.271  11.472 -0.6042  0.3487  0.8578
 7004TIP3    H142427   0.240   1.240  11.495 -0.7301 -0.3076  0.4815
 7004TIP3    H242428   0.103   1.192  11.452 -0.3809  0.8345 -2.0889
 7005TIP3   OH242429   3.325   0.413   2.794 -0.3021 -0.2479 -0.4395
 7005TIP3    H142430   3.257   0.468   2.832  0.2768  0.0769  0.1472
 7005TIP3    H242431   3.356   0.360   2.867  0.9876  0.5486 -0.3740
 7006TIP3   OH242432   3.020   5.220  12.079  0.1009  0.3463 -0.3978
 7006TIP3    H142433   3.035   5.125  12.079 -1.8607 -0.0102 -0.4785
 7006TIP3    H242434   2.987   5.239  11.992  0.1537  1.0522 -0.2687
 7007TIP3   OH242435   5.208   3.165   0.203 -0.5943  0.0838  0.0123
 7007TIP3    H142436   5.148   3.221   0.155 -0.1217  1.4073  0.9103
 7007TIP3    H242437   5.256   3.116   0.136 -3.5673 -2.0703 -0.7274
 7008TIP3   OH242438   2.750   1.136   1.556 -0.2713  0.2622  0.1499
 7008TIP3    H142439   2.664   1.160   1.522 -0.4708 -1.7076 -0.8530
 7008TIP3    H242440   2.762   1.045   1.529  1.5396  0.0606  1.4876
 7009TIP3   OH242441   4.138   1.588   1.944  0.1401 -0.3776 -0.1148
 7009TIP3    H142442   4.179   1.670   1.975  1.8826 -0.8004 -1.1837
 7009TIP3    H242443   4.095   1.552   2.022  1.7277  0.1663  1.0596
 7010TIP3   OH242444   6.410   4.095  14.417  0.3354 -0.0167 -0.1345
 7010TIP3    H142445   6.499   4.070  14.394  0.4705  1.4532 -1.3653
 7010TIP3    H242446   6.394   4.052  14.501  1.6677 -1.4578 -0.5832
 7011TIP3   OH242447   0.046   1.854   2.626 -0.2551  0.1508  0.0519
 7011TIP3    H142448   0.127   1.807   2.606 -0.8407 -0.8386 -0.0480
 7011TIP3    H242449   0.075   1.934   2.669  0.7568 -0.5077  0.6319
 7012TIP3   OH242450   2.444   5.337  13.178  0.4006  0.2936 -0.1584
 7012TIP3    H142451   2.388   5.410  13.204  1.4977  0.3398  2.3376
 7012TIP3    H242452   2.394   5.259  13.200 -0.1814  0.2749 -1.4757
 7013TIP3   OH242453   0.960   4.199   6.155  0.2559 -0.7178 -0.6444
 7013TIP3    H142454   0.898   4.183   6.084  1.0581 -0.8521 -1.3287
 7013TIP3    H242455   1.005   4.279   6.130 -0.7779  0.3487  0.6802
 7014TIP3   OH242456   5.216   5.375  14.889  0.4733 -0.2875  0.0986
 7014TIP3    H142457   5.233   5.331  14.973 -1.1473 -2.3302 -0.5578
 7014TIP3    H242458   5.264   5.323  14.825  0.7841  0.6040 -0.4138
 7015TIP3   OH242459   0.760   6.413   5.224  0.0881  0.4523  0.1919
 7015TIP3    H142460   0.675   6.455   5.237  0.4285  0.9199  0.9392
 7015TIP3    H242461   0.824   6.478   5.254  0.5960 -0.8861  2.1644
 7016TIP3   OH242462   3.294   6.375   1.147  0.5012 -0.3768 -0.0393
 7016TIP3    H142463   3.230   6.398   1.214  0.8405  1.6457 -0.3245
 7016TIP3    H242464   3.371   6.346   1.196  0.3279 -0.0973  0.4047
 7017TIP3   OH242465   5.298   2.039  15.915  0.2591 -0.2708  0.1611
 7017TIP3    H142466   5.256   1.983  15.850  1.4803  1.5186 -2.3133
 7017TIP3    H242467   5.227   2.071  15.969 -0.7169 -2.3968  0.2388
 7018TIP3   OH242468   0.971   1.417  12.698 -0.1551  0.1312 -0.2827
 7018TIP3    H142469   0.898   1.357  12.680 -0.1130 -0.0720  0.2296
 7018TIP3    H242470   0.951   1.494  12.644 -1.4193  0.5901  0.7938
 7019TIP3   OH242471   5.311   4.725   4.239 -0.2843  0.4672 -0.5876
 7019TIP3    H142472   5.307   4.650   4.181 -0.5134 -1.7154  2.0521
 7019TIP3    H242473   5.221   4.738   4.269 -0.0880  1.1608 -0.2533
 7020TIP3   OH242474   2.811   5.007   0.681 -0.2132  0.2283  0.1559
 7020TIP3    H142475   2.727   5.002   0.634 -0.1686 -0.7534  0.1555
 7020TIP3    H242476   2.836   4.915   0.694  1.6783  0.4744 -1.2869
 7021TIP3   OH242477   2.662   3.546   2.900 -0.3135 -0.1771 -0.6697
 7021TIP3    H142478   2.589   3.519   2.956 -0.2433 -0.3425 -0.6589
 7021TIP3    H242479   2.740   3.535   2.956 -0.5238  3.0492  0.4950
 7022TIP3   OH242480   6.159   3.911   0.779  0.6552 -0.1263  0.2877
 7022TIP3    H142481   6.112   3.829   0.767 -0.3709  0.4774  0.0947
 7022TIP3    H242482   6.138   3.938   0.869  0.8530  0.0122  0.2935
 7023TIP3   OH242483   6.494   1.431   2.018 -0.4317 -0.1072 -0.4472
 7023TIP3    H142484   6.419   1.467   1.972 -1.6864  0.0771  1.6337
 7023TIP3    H242485   6.512   1.493   2.088  1.7277 -0.1177 -0.9089
 7024TIP3   OH242486   1.002   3.126   6.048 -0.2133 -0.1283 -0.0424
 7024TIP3    H142487   0.942   3.199   6.037  0.7322  0.5876 -0.6534
 7024TIP3    H242488   1.033   3.106   5.959  0.9336 -0.0416  0.3129
 7025TIP3   OH242489   4.812   5.997  16.046 -0.1675  0.3375 -0.5546
 7025TIP3    H142490   4.749   5.935  16.084 -0.8202 -0.0388 -2.1502
 7025TIP3    H242491   4.769   6.029  15.967  0.5318  2.2052 -0.2255
 7026TIP3   OH242492   6.701   1.829  13.752 -0.3355 -0.0690  0.2634
 7026TIP3    H142493   6.617   1.856  13.789 -0.0883 -0.0057  0.7898
 7026TIP3    H242494   6.759   1.903  13.768  0.0140 -0.4054  0.5796
 7027TIP3   OH242495   0.859   6.322   4.119 -0.0191  0.3687  0.0099
 7027TIP3    H142496   0.948   6.319   4.155  0.6170  0.8206 -1.4553
 7027TIP3    H242497   0.865   6.382   4.045 -1.5354  0.3315 -0.1699
 7028TIP3   OH242498   5.790   4.376   0.257  0.0291  0.3326  0.0753
 7028TIP3    H142499   5.816   4.285   0.243 -1.8367 -0.0733 -1.1586
 7028TIP3    H242500   5.790   4.414   0.169 -2.6775  0.4686  0.0480
 7029TIP3   OH242501   2.604   4.885  17.106  0.8908  0.1369 -0.2420
 7029TIP3    H142502   2.642   4.868  17.192  0.6881  1.1953  0.0747
 7029TIP3    H242503   2.585   4.979  17.107  2.1956  0.4704 -1.9579
 7030TIP3   OH242504   2.365   1.718   4.633 -0.2539  0.2934  0.8196
 7030TIP3    H142505   2.433   1.785   4.634 -0.2135  0.2664  0.1141
 7030TIP3    H242506   2.314   1.736   4.554 -0.4596 -0.2943  0.8119
 7031TIP3   OH242507   2.895   6.658  13.919 -0.0218 -0.3115  0.1373
 7031TIP3    H142508   2.890   6.737  13.973 -1.2793  0.4649 -1.0222
 7031TIP3    H242509   2.819   6.606  13.944  0.6425 -1.0314  0.6922
 7032TIP3   OH242510   0.779   4.507   0.801 -0.7489  0.0135 -0.2972
 7032TIP3    H142511   0.757   4.508   0.708 -1.9765 -0.7627 -0.0385
 7032TIP3    H242512   0.813   4.594   0.819 -2.1043  0.7409 -1.1100
 7033TIP3   OH242513   6.717   4.543  16.341 -0.1740  0.1958 -0.2081
 7033TIP3    H142514   6.778   4.509  16.276 -1.7029 -1.1351 -1.0327
 7033TIP3    H242515   6.713   4.474  16.408  0.6375  1.1198  0.8266
 7034TIP3   OH242516   1.278   2.059   2.677 -0.0540  0.1427 -0.0429
 7034TIP3    H142517   1.184   2.075   2.689  0.1585  1.1316  0.4234
 7034TIP3    H242518   1.297   1.982   2.731 -0.5753 -0.0242 -0.0914
 7035TIP3   OH242519   1.587   0.667  13.474  0.0953 -0.0674 -0.1726
 7035TIP3    H142520   1.629   0.618  13.404 -0.7311 -1.3560  0.2043
 7035TIP3    H242521   1.571   0.754  13.435  0.5439 -0.4394 -1.2372
 7036TIP3   OH242522   0.114   0.220  14.218 -0.4707  0.0724  0.3666
 7036TIP3    H142523   0.141   0.194  14.130 -0.0066  0.4537  0.3941
 7036TIP3    H242524   0.196   0.221  14.269 -0.9118 -1.6568  1.2048
 7037TIP3   OH242525   1.013   6.033   0.395 -0.3931 -0.2189 -0.5927
 7037TIP3    H142526   1.092   6.084   0.380  0.4388 -0.6929  1.6496
 7037TIP3    H242527   0.999   6.038   0.490 -1.0017 -3.0503 -0.4341
 7038TIP3   OH242528   4.450   5.230   2.003 -0.1000  0.0928  0.2198
 7038TIP3    H142529   4.420   5.287   2.074 -0.6446 -0.9567  0.8713
 7038TIP3    H242530   4.532   5.192   2.035  0.5126  0.8574 -0.4112
 7039TIP3   OH242531   0.922   1.571   3.516 -0.2139 -0.3935 -0.2730
 7039TIP3    H142532   1.013   1.581   3.488 -0.1180 -1.5834 -0.4722
 7039TIP3    H242533   0.871   1.618   3.451  0.1874 -0.7960 -0.8901
 7040TIP3   OH242534   2.285   4.486   3.976 -0.9067  0.0429  0.6530
 7040TIP3    H142535   2.195   4.519   3.975 -0.6380  0.8627 -1.1820
 7040TIP3    H242536   2.301   4.462   4.067 -3.0231 -0.2688  0.9946
 7041TIP3   OH242537   5.681   6.760   4.477  0.4598 -0.1223  0.3980
 7041TIP3    H142538   5.690   6.779   4.383  2.4806 -0.7129  0.4312
 7041TIP3    H242539   5.716   6.838   4.520  1.1032 -0.5492  0.6431
 7042TIP3   OH242540   3.068   6.217  13.489  0.1116  0.1456  0.4649
 7042TIP3    H142541   3.132   6.251  13.552 -0.5707 -0.8420  1.7294
 7042TIP3    H242542   3.091   6.125  13.478 -0.2770  0.1096 -0.1100
 7043TIP3   OH242543   3.705   0.927   5.441 -0.4959  0.6036  0.0370
 7043TIP3    H142544   3.734   1.018   5.453 -1.5092  1.0339 -0.6604
 7043TIP3    H242545   3.673   0.901   5.528  1.9316  0.0929  0.8553
 7044TIP3   OH242546   2.576   6.117  15.505 -0.0790 -0.2551 -0.3971
 7044TIP3    H142547   2.588   6.057  15.579  1.6802 -0.6831 -0.9615
 7044TIP3    H242548   2.635   6.190  15.524 -1.9761  1.2027  0.1313
 7045TIP3   OH242549   0.566   6.676   1.404 -0.6380 -0.2705 -0.1625
 7045TIP3    H142550   0.580   6.728   1.484  1.0734 -1.7084  0.5390
 7045TIP3    H242551   0.549   6.587   1.436  0.6995 -1.0041 -1.3697
 7046TIP3   OH242552   1.323   0.744  11.485  0.4569  0.1706 -0.2446
 7046TIP3    H142553   1.294   0.731  11.575  2.9280  0.3129  0.6573
 7046TIP3    H242554   1.272   0.819  11.453 -0.8095 -0.2096  0.8449
 7047TIP3   OH242555   1.770   0.359  12.548 -0.3343  0.7878 -0.1586
 7047TIP3    H142556   1.830   0.427  12.579  0.8587 -0.7264  1.0234
 7047TIP3    H242557   1.826   0.283  12.533 -1.5801  0.1320 -1.7875
 7048TIP3   OH242558   5.555   2.145  11.797  0.1521  0.6054 -0.3448
 7048TIP3    H142559   5.460   2.151  11.783  0.1939 -0.9291 -1.5011
 7048TIP3    H242560   5.568   2.173  11.887 -1.1632  2.7624 -0.7384
 7049TIP3   OH242561   6.056   1.957   2.303  0.4163 -0.4976  0.2582
 7049TIP3    H142562   6.138   1.908   2.310  0.3953 -0.5843 -0.0912
 7049TIP3    H242563   6.081   2.048   2.320  0.5703 -0.5353  0.2329
 7050TIP3   OH242564   1.574   5.366   6.620  0.6154 -0.4504  0.0388
 7050TIP3    H142565   1.580   5.435   6.685  1.5060 -1.2115  0.7954
 7050TIP3    H242566   1.598   5.408   6.537 -0.5819  0.5370  0.1751
 7051TIP3   OH242567   1.219   6.293  14.740 -0.2624 -0.2145 -0.0003
 7051TIP3    H142568   1.240   6.337  14.822  1.3158  0.0626 -0.5093
 7051TIP3    H242569   1.129   6.319  14.721 -1.0402 -1.1690  2.1634
 7052TIP3   OH242570   3.770   2.987  16.911 -0.0577  0.1145  0.6906
 7052TIP3    H142571   3.848   2.969  16.962  0.9050  0.1984 -0.6985
 7052TIP3    H242572   3.748   3.078  16.932  0.0240 -0.0116  1.3311
 7053TIP3   OH242573   4.691   1.397   1.779  0.8575  0.4458  0.5650
 7053TIP3    H142574   4.742   1.393   1.699  0.3659  1.0175  0.2208
 7053TIP3    H242575   4.682   1.305   1.806 -0.8596  0.0201 -1.2341
 7054TIP3   OH242576   5.185   1.530  11.990 -0.3442  0.0963 -0.0101
 7054TIP3    H142577   5.239   1.479  11.930 -1.4873 -1.2490  0.0587
 7054TIP3    H242578   5.156   1.605  11.938 -2.0863 -1.5146 -1.5557
 7055TIP3   OH242579   3.477   2.517  13.744 -0.2032  0.3101  0.1292
 7055TIP3    H142580   3.401   2.481  13.699 -0.3468 -0.6941  1.1354
 7055TIP3    H242581   3.497   2.598  13.696 -1.6280  0.3717 -0.4206
 7056TIP3   OH242582   5.395   0.286  16.966  0.0166 -0.1492  0.3578
 7056TIP3    H142583   5.348   0.274  16.884 -0.1852  1.2254  0.2466
 7056TIP3    H242584   5.481   0.247  16.950 -0.7895 -2.0645  0.3354
 7057TIP3   OH242585   0.692   3.087  15.869 -0.2087  0.4856  0.0703
 7057TIP3    H142586   0.615   3.087  15.813  0.5073  0.1159 -0.9301
 7057TIP3    H242587   0.663   3.129  15.950 -1.2319  1.0799 -0.5971
 7058TIP3   OH242588   6.032   0.808  11.740 -0.2536  0.1437 -0.2160
 7058TIP3    H142589   5.964   0.814  11.673 -0.9156  0.9046  0.4965
 7058TIP3    H242590   6.008   0.875  11.804  0.5581 -0.3309  0.6087
 7059TIP3   OH242591   2.599   3.753   3.262 -0.8250 -0.4534 -0.3067
 7059TIP3    H142592   2.649   3.722   3.337 -1.2681  1.3457  0.7975
 7059TIP3    H242593   2.657   3.738   3.187 -0.2259 -1.9513  0.4074
 7060TIP3   OH242594   2.922   1.975   5.649  0.4913 -0.1051 -0.0202
 7060TIP3    H142595   3.002   2.022   5.671 -0.5454  1.5736  0.3114
 7060TIP3    H242596   2.853   2.020   5.697 -0.9738 -0.1092 -1.9634
 7061TIP3   OH242597   5.235   3.331  11.161 -0.6981 -0.0097  0.0260
 7061TIP3    H142598   5.171   3.302  11.097 -1.3712  3.0250 -0.8413
 7061TIP3    H242599   5.189   3.396  11.214  1.0518  0.7045  0.7746
 7062TIP3   OH242600   5.864   5.182   4.200  0.3257  0.0274 -0.0221
 7062TIP3    H142601   5.927   5.190   4.128 -0.7002  0.9096 -0.8786
 7062TIP3    H242602   5.848   5.273   4.227  1.9677 -0.3652  2.5202
 7063TIP3   OH242603   0.362   0.319  16.031 -0.3713 -0.4534 -0.0159
 7063TIP3    H142604   0.317   0.271  15.961 -2.8283  0.0283  1.1309
 7063TIP3    H242605   0.372   0.255  16.102 -0.7588 -0.1229  0.3414
 7064TIP3   OH242606   3.306   3.775  15.362 -0.0708 -0.6232  0.1079
 7064TIP3    H142607   3.315   3.719  15.285 -1.2399 -1.6078  0.6572
 7064TIP3    H242608   3.215   3.766  15.388  0.5000 -0.9870  2.1163
 7065TIP3   OH242609   6.615   0.201  15.605 -0.5041  0.8397  0.2404
 7065TIP3    H142610   6.587   0.268  15.542 -0.5884  0.3459 -0.2531
 7065TIP3    H242611   6.580   0.231  15.689 -1.8313  0.6443 -0.2247
 7066TIP3   OH242612   2.296   0.918   4.226  0.2547  0.1315  0.3919
 7066TIP3    H142613   2.317   0.935   4.317  1.8034 -0.1644  0.1165
 7066TIP3    H242614   2.272   0.825   4.224  5.2052 -1.4582 -0.1668
 7067TIP3   OH242615   6.231   5.756   5.432  0.3574  0.3973 -0.3899
 7067TIP3    H142616   6.270   5.757   5.344 -0.4886  1.4498 -0.7811
 7067TIP3    H242617   6.221   5.663   5.452  1.3979  0.1318 -1.0245
 7068TIP3   OH242618   5.813   5.457   0.698  0.4688 -0.8143 -0.1827
 7068TIP3    H142619   5.848   5.528   0.644 -0.2062  0.0005  0.4211
 7068TIP3    H242620   5.830   5.485   0.788  0.1480 -1.3927  0.0624
 7069TIP3   OH242621   3.101   4.231   3.674  0.1611  0.5372  0.1629
 7069TIP3    H142622   3.010   4.200   3.680  0.5625 -1.2633 -1.9519
 7069TIP3    H242623   3.105   4.277   3.590  0.6608  2.8650  1.3621
 7070TIP3   OH242624   1.942   0.161   1.107 -0.4014  0.2063 -0.4936
 7070TIP3    H142625   2.020   0.205   1.142 -0.4919  0.8843 -1.1146
 7070TIP3    H242626   1.900   0.123   1.184  0.6490 -0.3560 -0.1779
 7071TIP3   OH242627   4.018   5.785  15.456 -0.1461 -0.2274 -0.3738
 7071TIP3    H142628   4.082   5.744  15.514 -1.2200  0.5849  1.4737
 7071TIP3    H242629   3.933   5.765  15.496 -1.0108 -0.2976 -2.1283
 7072TIP3   OH242630   1.439   6.276   5.167 -0.1932  0.7056 -0.0963
 7072TIP3    H142631   1.405   6.221   5.096 -0.3761  1.2932 -0.4715
 7072TIP3    H242632   1.405   6.236   5.247 -0.3110  0.2649 -0.3632
 7073TIP3   OH242633   4.302   1.693   3.861 -0.0776 -0.6037 -0.4514
 7073TIP3    H142634   4.338   1.665   3.945  1.4539 -0.5473 -1.0688
 7073TIP3    H242635   4.235   1.757   3.885  0.2828 -0.6270  0.7209
 7074TIP3   OH242636   5.755   1.885   5.908  0.4650 -0.3922 -0.2574
 7074TIP3    H142637   5.829   1.876   5.967  1.3400  0.0196 -1.2582
 7074TIP3    H242638   5.723   1.796   5.894  1.6958 -0.7421 -0.9516
 7075TIP3   OH242639   6.370   5.685  13.914  0.1340 -0.0108  0.1377
 7075TIP3    H142640   6.297   5.626  13.928  0.0320 -0.0397 -0.4894
 7075TIP3    H242641   6.367   5.745  13.989 -1.5137  1.0055 -0.6880
 7076TIP3   OH242642   5.619   5.000   4.221 -0.4407  0.3631 -0.1877
 7076TIP3    H142643   5.561   5.026   4.150  0.1651  0.2653 -0.7290
 7076TIP3    H242644   5.701   5.048   4.204  0.4384 -1.2733 -0.7834
 7077TIP3   OH242645   0.980   0.265   2.410  0.2021  0.5279  0.1776
 7077TIP3    H142646   1.065   0.239   2.445 -0.1075 -1.8367 -0.6289
 7077TIP3    H242647   0.928   0.288   2.487  1.6699  2.5330  0.6423
 7078TIP3   OH242648   6.653   4.986   3.525 -0.0021 -0.3548 -0.2447
 7078TIP3    H142649   6.659   5.074   3.487 -1.9795 -0.2549 -0.4555
 7078TIP3    H242650   6.639   5.002   3.618  1.8120 -0.5327  0.0904
 7079TIP3   OH242651   5.530   2.712  15.025 -0.0662  0.3313 -0.3830
 7079TIP3    H142652   5.568   2.637  14.979 -2.3003 -1.5567  0.6613
 7079TIP3    H242653   5.595   2.735  15.091  1.0799 -0.0232 -1.3551
 7080TIP3   OH242654   5.672   1.296  14.115 -0.0466  0.2422  0.6399
 7080TIP3    H142655   5.682   1.288  14.210  1.4867 -0.5362  0.4533
 7080TIP3    H242656   5.760   1.279  14.080 -0.6553  0.1319 -0.9360
 7081TIP3   OH242657   0.828   0.443  14.950 -0.7394 -0.0326 -0.2450
 7081TIP3    H142658   0.813   0.538  14.958 -0.0077  0.1698 -1.2180
 7081TIP3    H242659   0.852   0.430  14.859 -0.5793 -1.1348 -0.0536
 7082TIP3   OH242660   4.566   6.502  12.351 -0.0255 -0.2501 -0.1622
 7082TIP3    H142661   4.602   6.543  12.272 -1.2080  1.4516  0.1226
 7082TIP3    H242662   4.532   6.418  12.321 -0.4611  0.3724 -1.4826
 7083TIP3   OH242663   1.556   1.598   0.423  0.4401  0.3101 -0.5757
 7083TIP3    H142664   1.575   1.528   0.360  1.3264 -0.0226  0.0428
 7083TIP3    H242665   1.566   1.557   0.509 -0.3508  0.8619 -0.2066
 7084TIP3   OH242666   4.359   6.004   3.931 -0.0422  1.0127  0.1390
 7084TIP3    H142667   4.440   6.049   3.908  1.4360 -2.0809 -1.3718
 7084TIP3    H242668   4.367   5.987   4.025  0.1072  2.3962  0.3978
 7085TIP3   OH242669   4.022   2.823  15.926  0.4039  0.6095  0.0024
 7085TIP3    H142670   4.042   2.835  15.833  0.7608 -1.0199 -0.1570
 7085TIP3    H242671   3.940   2.774  15.926  0.7097  0.1012  0.5407
 7086TIP3   OH242672   3.136   2.283  15.326 -0.2361  0.0783 -0.1293
 7086TIP3    H142673   3.069   2.237  15.376  2.1835 -0.5075  2.9214
 7086TIP3    H242674   3.176   2.215  15.271  0.4204 -0.5093  1.0451
 7087TIP3   OH242675   2.030   5.195  12.637 -0.0630 -0.3816  0.0474
 7087TIP3    H142676   1.965   5.172  12.703 -1.3105  0.6859 -0.7511
 7087TIP3    H242677   2.058   5.111  12.600 -1.8950 -0.8408 -0.3947
 7088TIP3   OH242678   2.413   0.823   0.964  0.2296  0.1478  0.8222
 7088TIP3    H142679   2.353   0.749   0.951 -0.4032  0.8105 -0.1961
 7088TIP3    H242680   2.380   0.866   1.043 -1.5950  1.3347 -0.4891
 7089TIP3   OH242681   0.497   1.769   2.366 -0.3409  0.1541  0.3991
 7089TIP3    H142682   0.497   1.695   2.305  3.7340 -0.0589  0.3557
 7089TIP3    H242683   0.456   1.840   2.317 -2.6790 -1.5296 -0.2325
 7090TIP3   OH242684   3.607   6.334  16.655 -0.2645 -0.2821  0.0413
 7090TIP3    H142685   3.545   6.313  16.725 -0.4768  1.7293  0.5014
 7090TIP3    H242686   3.559   6.318  16.574 -0.2335 -1.9840  0.3146
 7091TIP3   OH242687   1.274   4.537  16.580  0.1902  0.4307 -0.4142
 7091TIP3    H142688   1.311   4.449  16.568 -0.2537 -0.0462  1.3848
 7091TIP3    H242689   1.332   4.578  16.644  1.0565  1.9167 -2.0719
 7092TIP3   OH242690   4.990   5.739  11.052  0.2162 -0.1364  0.0054
 7092TIP3    H142691   5.048   5.682  11.001  1.2948  0.3505  0.6656
 7092TIP3    H242692   4.907   5.737  11.003  0.4072 -1.7566 -0.3335
 7093TIP3   OH242693   3.526   4.870   5.831  0.3269 -0.7024  0.2402
 7093TIP3    H142694   3.578   4.846   5.908 -0.2145 -2.8415  0.0028
 7093TIP3    H242695   3.479   4.790   5.808 -1.4592  0.5930 -0.8302
 7094TIP3   OH242696   4.555   4.278  10.299 -0.4398  0.7912 -0.0714
 7094TIP3    H142697   4.544   4.373  10.292 -1.1575  0.7237  0.1429
 7094TIP3    H242698   4.636   4.268  10.350  0.2638  1.2721 -1.0446
 7095TIP3   OH242699   4.713   3.032   3.616 -0.1528  0.2215 -0.2437
 7095TIP3    H142700   4.741   3.038   3.707  0.3283 -0.2266 -0.3563
 7095TIP3    H242701   4.778   2.974   3.575 -0.8663 -0.2813 -0.6725
 7096TIP3   OH242702   2.400   2.810  11.703 -0.1290  0.0219  0.3105
 7096TIP3    H142703   2.400   2.904  11.682 -0.5785 -0.0393  0.0098
 7096TIP3    H242704   2.465   2.801  11.773 -1.4241  0.8654  1.6926
 7097TIP3   OH242705   5.820   1.071  13.148  0.3872  0.2754 -0.4283
 7097TIP3    H142706   5.887   1.003  13.143  1.3694  1.0380  1.4124
 7097TIP3    H242707   5.859   1.140  13.201 -0.8424  1.9979 -1.6366
 7098TIP3   OH242708   0.443   2.986  11.855 -0.2536  0.5079  0.4809
 7098TIP3    H142709   0.474   2.984  11.946  1.2066  1.0572  0.0205
 7098TIP3    H242710   0.505   2.932  11.807  0.0552  1.6969 -0.4967
 7099TIP3   OH242711   3.833   5.870  16.306 -0.2469  0.1656  0.5790
 7099TIP3    H142712   3.810   5.784  16.271  0.2770  0.1418  0.2831
 7099TIP3    H242713   3.750   5.918  16.310 -0.7692 -0.7871  1.9970
 7100TIP3   OH242714   6.457   5.770  15.800  0.2241  0.0861 -0.2719
 7100TIP3    H142715   6.512   5.808  15.732  0.7486 -0.3226 -0.0816
 7100TIP3    H242716   6.476   5.676  15.798 -0.5665 -0.0855 -0.2934
 7101TIP3   OH242717   1.099   2.659   2.261  0.2615 -0.0959 -0.1603
 7101TIP3    H142718   1.037   2.726   2.234  1.2803  1.2132  0.6693
 7101TIP3    H242719   1.183   2.689   2.227  0.5761 -1.5466 -0.7693
 7102TIP3   OH242720   0.833   1.394  12.250 -0.4583 -0.2401 -0.0531
 7102TIP3    H142721   0.882   1.440  12.318 -0.1957  1.3947 -1.2908
 7102TIP3    H242722   0.744   1.427  12.257 -0.5859 -0.5721 -0.0748
 7103TIP3   OH242723   4.213   2.998   1.382 -0.3499 -0.1638  0.0456
 7103TIP3    H142724   4.229   3.050   1.461 -1.9657  1.1201 -0.4323
 7103TIP3    H242725   4.273   2.923   1.391 -1.7502 -1.0654  3.3758
 7104TIP3   OH242726   1.674   0.379   3.440 -0.2608  0.7785 -0.0381
 7104TIP3    H142727   1.601   0.440   3.449 -1.4889 -0.6181 -0.3625
 7104TIP3    H242728   1.697   0.356   3.530 -0.1153  1.3054  0.0670
 7105TIP3   OH242729   4.153   0.563   4.279  0.6348  0.1274 -0.1236
 7105TIP3    H142730   4.118   0.514   4.204  0.4000  0.4636 -0.2345
 7105TIP3    H242731   4.248   0.553   4.271  0.5904 -0.3003 -0.1506
 7106TIP3   OH242732   4.160   6.038   3.268  0.4362  0.2499  0.2523
 7106TIP3    H142733   4.194   6.096   3.336 -0.7324  0.6098  0.5600
 7106TIP3    H242734   4.157   5.952   3.309 -0.2785  0.4687  0.6697
 7107TIP3   OH242735   0.984   5.876  13.419 -0.0156 -0.4831 -0.6376
 7107TIP3    H142736   0.909   5.933  13.435  1.3593  1.8156 -1.7824
 7107TIP3    H242737   1.053   5.911  13.475  0.5973 -1.7105 -0.5905
 7108TIP3   OH242738   5.038   1.269   1.425 -0.1835 -0.1231  0.1215
 7108TIP3    H142739   5.102   1.198   1.430 -0.7625 -1.0149 -2.8637
 7108TIP3    H242740   4.965   1.232   1.376 -1.0678  2.1664 -0.4386
 7109TIP3   OH242741   4.855   2.630  16.168 -0.4054 -0.2097  0.1735
 7109TIP3    H142742   4.892   2.684  16.238 -1.4185  0.5992  0.1152
 7109TIP3    H242743   4.862   2.685  16.089 -2.0481  0.1545  0.2318
 7110TIP3   OH242744   5.372   1.873   5.331 -0.3902 -0.1974  0.0643
 7110TIP3    H142745   5.307   1.942   5.343  0.1277  0.3720 -0.3724
 7110TIP3    H242746   5.423   1.873   5.411 -0.2500  0.0755 -0.0260
 7111TIP3   OH242747   5.556   1.418  12.909 -0.4889  0.5295 -0.4601
 7111TIP3    H142748   5.610   1.436  12.986  0.8861 -0.4721 -1.1309
 7111TIP3    H242749   5.527   1.327  12.921 -3.4764  1.5169  0.6739
 7112TIP3   OH242750   5.029   2.029   6.098  0.6838 -0.6312 -0.1684
 7112TIP3    H142751   5.123   2.048   6.098  0.4923  0.6462  1.7593
 7112TIP3    H242752   5.010   2.004   6.189 -1.1631  1.1519  0.0089
 7113TIP3   OH242753   4.057   6.751   4.152  0.3913 -0.9224 -0.2957
 7113TIP3    H142754   4.078   6.660   4.169 -2.0342 -1.1948  1.9942
 7113TIP3    H242755   4.113   6.800   4.212  1.2437 -0.9003 -1.0810
 7114TIP3   OH242756   3.694   5.665  17.106  0.6608  0.1015 -0.6078
 7114TIP3    H142757   3.714   5.758  17.119 -0.5086  0.4778 -1.4406
 7114TIP3    H242758   3.607   5.663  17.068  0.0746 -1.4135  0.6946
 7115TIP3   OH242759   6.635   6.415   5.728  0.4757  0.4452 -0.0036
 7115TIP3    H142760   6.720   6.399   5.687  0.8371  1.2825  0.3831
 7115TIP3    H242761   6.624   6.344   5.791 -0.1774 -0.9781 -1.6470
 7116TIP3   OH242762   5.903   3.168   3.618  0.0356 -0.4722  0.1251
 7116TIP3    H142763   5.862   3.186   3.533 -0.4905  1.0050  0.6718
 7116TIP3    H242764   5.899   3.251   3.665 -0.4488 -1.4704  1.9299
 7117TIP3   OH242765   4.869   4.769  16.949  0.0089 -0.5730 -0.1086
 7117TIP3    H142766   4.935   4.809  16.893  1.0110 -0.2764  1.2435
 7117TIP3    H242767   4.905   4.684  16.972 -0.1545 -0.4824  0.4977
 7118TIP3   OH242768   1.410   4.609   4.082 -0.8309  0.7360  0.3752
 7118TIP3    H142769   1.360   4.689   4.100 -0.3934  0.5725  2.4914
 7118TIP3    H242770   1.374   4.577   3.999 -2.7308  1.7849  0.7382
 7119TIP3   OH242771   6.556   4.400   4.427  0.1293 -0.1256  0.7508
 7119TIP3    H142772   6.589   4.376   4.513  2.7171 -0.2681 -0.1951
 7119TIP3    H242773   6.615   4.357   4.365 -2.3275 -0.9721 -1.1643
 7120TIP3   OH242774   3.407   4.761   3.262 -0.3550  0.5619  0.6063
 7120TIP3    H142775   3.390   4.732   3.351  0.2081  2.4748  1.4029
 7120TIP3    H242776   3.364   4.847   3.256  0.7545  1.0774 -0.4862
 7121TIP3   OH242777   4.711   4.175   1.903 -0.0875  0.7551 -0.3484
 7121TIP3    H142778   4.626   4.165   1.860 -0.2656  0.9316 -0.0417
 7121TIP3    H242779   4.727   4.090   1.945 -0.3028  0.8546 -0.0645
 7122TIP3   OH242780   5.865   3.043   2.829 -0.6304 -0.2039  0.2770
 7122TIP3    H142781   5.907   2.962   2.801  0.0978  0.2367  0.0811
 7122TIP3    H242782   5.937   3.103   2.847 -0.9429 -0.5976  3.6740
 7123TIP3   OH242783   5.377   0.083   3.072 -0.2815  0.3786  0.1032
 7123TIP3    H142784   5.306   0.030   3.108  0.1150  0.3891  0.9309
 7123TIP3    H242785   5.337   0.167   3.052 -0.2936  0.7412  1.5530
 7124TIP3   OH242786   1.554   5.311  16.225  0.3835 -0.1747  0.0364
 7124TIP3    H142787   1.617   5.380  16.243  0.6377 -0.2448 -0.5415
 7124TIP3    H242788   1.488   5.353  16.170  0.1054 -0.1864  0.3595
 7125TIP3   OH242789   0.566   2.212  14.678 -0.2261  0.3091 -0.5520
 7125TIP3    H142790   0.600   2.272  14.611  0.8094  0.0525 -0.2697
 7125TIP3    H242791   0.472   2.209  14.661  0.1556 -0.7902 -2.8795
 7126TIP3   OH242792   4.395   6.629  17.105  0.4668 -0.6437 -0.0100
 7126TIP3    H142793   4.355   6.637  17.191 -1.9324 -1.1571 -0.9954
 7126TIP3    H242794   4.339   6.682  17.047  2.2691  0.0614 -1.2015
 7127TIP3   OH242795   4.285   2.340  14.910 -0.1622  0.0935  0.0023
 7127TIP3    H142796   4.359   2.366  14.855  0.9734 -0.7680  1.0620
 7127TIP3    H242797   4.281   2.245  14.902 -1.8735  0.2021 -0.8863
 7128TIP3   OH242798   4.830   3.106   3.878 -0.1601  0.4790 -0.2742
 7128TIP3    H142799   4.783   3.178   3.921  0.1864  0.3843  0.2772
 7128TIP3    H242800   4.912   3.145   3.848 -0.5533  0.6302 -1.1875
 7129TIP3   OH242801   0.749   5.560  16.956 -0.0504 -0.3804 -0.2852
 7129TIP3    H142802   0.743   5.654  16.936 -0.7557 -0.4326 -0.3507
 7129TIP3    H242803   0.672   5.522  16.913  0.0767 -0.9499 -0.0155
 7130TIP3   OH242804   2.690   3.425  12.129 -0.0156  0.3747 -0.1676
 7130TIP3    H142805   2.651   3.426  12.217  3.1428  0.1858  1.3519
 7130TIP3    H242806   2.652   3.348  12.087 -0.3136 -0.5415  1.6811
 7131TIP3   OH242807   5.522   2.161  12.621  0.5994 -0.2440 -0.4483
 7131TIP3    H142808   5.480   2.093  12.568 -0.3099 -0.6382  0.7492
 7131TIP3    H242809   5.598   2.187  12.569  1.2321 -2.4755 -0.7663
 7132TIP3   OH242810   4.792   2.761  14.117 -0.0160  0.7868 -0.1002
 7132TIP3    H142811   4.697   2.752  14.124 -0.2678  2.9406 -0.0917
 7132TIP3    H242812   4.807   2.778  14.024  0.5262 -0.9101 -0.3404
 7133TIP3   OH242813   0.435   5.921  11.865 -0.1104 -0.0618  0.5468
 7133TIP3    H142814   0.466   5.985  11.802 -0.6538  0.6814  1.0079
 7133TIP3    H242815   0.339   5.925  11.857 -0.1805 -0.0194  1.3336
 7134TIP3   OH242816   4.823   4.939   2.748 -0.0569 -0.3504  0.2079
 7134TIP3    H142817   4.890   4.974   2.689  0.5392 -0.4369  0.8346
 7134TIP3    H242818   4.796   4.857   2.706 -1.6930  0.9221 -1.4448
 7135TIP3   OH242819   6.197   1.824   1.113 -0.9651  0.2930 -0.9747
 7135TIP3    H142820   6.216   1.748   1.168  0.0113 -0.1060 -1.8353
 7135TIP3    H242821   6.109   1.808   1.079 -1.7348  0.7164  0.7188
 7136TIP3   OH242822   4.647   5.897  15.411 -0.0254  0.1666  0.1326
 7136TIP3    H142823   4.706   5.867  15.480  2.1838  1.8292 -0.8986
 7136TIP3    H242824   4.601   5.817  15.383  0.7968 -0.9751  1.8285
 7137TIP3   OH242825   1.826   5.927  13.301  0.2246  0.2015  0.3906
 7137TIP3    H142826   1.840   5.834  13.319 -1.3406 -0.1552 -0.0565
 7137TIP3    H242827   1.745   5.929  13.249 -0.3648  1.8967  1.3133
 7138TIP3   OH242828   4.279   0.895   4.077 -0.3105  0.5340  0.0274
 7138TIP3    H142829   4.345   0.827   4.058 -0.9300  0.0728 -0.4981
 7138TIP3    H242830   4.246   0.921   3.991  0.3374  1.9401  0.1801
 7139TIP3   OH242831   1.845   3.376   2.261 -0.3412  0.1495 -0.6757
 7139TIP3    H142832   1.918   3.438   2.257  1.8676 -2.2303 -0.4473
 7139TIP3    H242833   1.806   3.379   2.174 -0.8765  2.4073 -0.4129
 7140TIP3   OH242834   5.655   5.778  12.918  0.1199 -0.1099 -0.6543
 7140TIP3    H142835   5.652   5.700  12.863 -0.1701 -0.2805 -0.3998
 7140TIP3    H242836   5.722   5.833  12.878  1.0316 -0.9169 -0.2795
 7141TIP3   OH242837   5.785   4.015  12.021 -1.0244 -0.6166 -0.5267
 7141TIP3    H142838   5.751   4.104  12.008 -0.8295 -0.6505 -1.3024
 7141TIP3    H242839   5.822   3.991  11.936  0.4979 -0.7748  0.1621
 7142TIP3   OH242840   2.752   5.282   4.517  0.2831 -0.0284 -0.2156
 7142TIP3    H142841   2.839   5.248   4.536  0.0897  0.2275  1.2600
 7142TIP3    H242842   2.755   5.305   4.424  2.1505  1.0018  0.0406
 7143TIP3   OH242843   0.657   3.694  17.053  0.0889 -0.2205 -0.5506
 7143TIP3    H142844   0.706   3.767  17.091 -0.0079 -0.7520  0.6441
 7143TIP3    H242845   0.591   3.735  16.998  0.6784  0.5602 -0.6885
 7144TIP3   OH242846   5.665   5.378  12.610 -0.1340  0.1200  0.0341
 7144TIP3    H142847   5.759   5.386  12.625  0.1827  0.3304 -1.8348
 7144TIP3    H242848   5.657   5.309  12.544 -1.3233 -0.0954  0.3826
 7145TIP3   OH242849   3.167   2.630   5.376  0.2223 -0.1356 -0.8987
 7145TIP3    H142850   3.196   2.539   5.372 -1.2077 -0.7407  0.9776
 7145TIP3    H242851   3.073   2.626   5.357 -0.3871  0.5665  1.6812
 7146TIP3   OH242852   6.716   2.463   1.244 -0.5505  0.7206  0.0744
 7146TIP3    H142853   6.711   2.440   1.337  0.7032 -0.7096 -0.1711
 7146TIP3    H242854   6.789   2.411   1.211 -2.6108 -0.8554 -2.2903
 7147TIP3   OH242855   0.162   3.343  11.742  0.1818  0.1319 -0.4219
 7147TIP3    H142856   0.082   3.366  11.695  0.2683  2.4676  0.4358
 7147TIP3    H242857   0.177   3.417  11.801  2.0593 -1.0252  0.6482
 7148TIP3   OH242858   3.024   2.267  14.405 -0.3179 -0.1061  0.0191
 7148TIP3    H142859   3.109   2.290  14.443  0.0283 -0.3193 -0.6059
 7148TIP3    H242860   2.962   2.278  14.477  0.4049 -1.1253  0.8225
 7149TIP3   OH242861   1.984   0.459  13.883 -0.4178  0.1964  0.2145
 7149TIP3    H142862   1.973   0.456  13.788 -1.2055  0.6285  0.2782
 7149TIP3    H242863   2.016   0.547  13.901  1.3779 -0.4203  0.2160
 7150TIP3   OH242864   6.177   0.361   5.495 -0.3741  0.1238  0.0593
 7150TIP3    H142865   6.252   0.418   5.479  0.4331 -1.2745 -1.4155
 7150TIP3    H242866   6.112   0.388   5.430 -1.5487  1.8610  1.8315
 7151TIP3   OH242867   6.170   3.984  16.416 -0.1900  0.2586  0.8535
 7151TIP3    H142868   6.110   3.917  16.383  0.5488  0.3310 -0.7382
 7151TIP3    H242869   6.118   4.036  16.476 -1.0051 -1.2345  1.4701
 7152TIP3   OH242870   1.704   3.693  14.422 -0.3643 -0.5408 -0.3598
 7152TIP3    H142871   1.753   3.636  14.363  0.8232 -0.6418  0.6842
 7152TIP3    H242872   1.616   3.696  14.384  0.1255 -1.2956 -1.6359
 7153TIP3   OH242873   2.475   5.010   5.948 -0.3516 -0.3195  0.4190
 7153TIP3    H142874   2.482   4.920   5.979 -0.7883 -1.0026 -1.3465
 7153TIP3    H242875   2.431   5.003   5.864  1.4596  1.3425 -0.7618
 7154TIP3   OH242876   2.033   4.416   2.561  0.0891  0.3032 -0.1888
 7154TIP3    H142877   2.087   4.486   2.599  0.9234  0.0832 -0.9268
 7154TIP3    H242878   1.995   4.456   2.482 -0.7934  0.4318  0.2830
 7155TIP3   OH242879   4.626   1.194   5.659 -0.1959  0.2441  0.2525
 7155TIP3    H142880   4.639   1.259   5.590  0.1776  0.2486  0.3288
 7155TIP3    H242881   4.533   1.172   5.653  0.0251 -0.4911 -0.9178
 7156TIP3   OH242882   6.542   5.245  15.562 -0.2602  0.4576 -0.0969
 7156TIP3    H142883   6.466   5.210  15.517  0.2464 -0.3532 -0.3432
 7156TIP3    H242884   6.538   5.206  15.650  0.6576 -0.7845 -0.5768
 7157TIP3   OH242885   2.721   3.257  17.022  0.3131  0.5172  0.7239
 7157TIP3    H142886   2.650   3.199  16.991  1.5113 -1.4367  1.4419
 7157TIP3    H242887   2.708   3.338  16.973 -1.8183 -0.1175  0.0941
 7158TIP3   OH242888   1.677   2.395   5.505  0.4506  0.2607  0.0161
 7158TIP3    H142889   1.707   2.405   5.595 -0.5034  0.6093  0.3125
 7158TIP3    H242890   1.727   2.322   5.471  1.0000  0.2828  0.7555
 7159TIP3   OH242891   2.182   4.503   3.318  0.2071  0.2349 -0.4070
 7159TIP3    H142892   2.184   4.598   3.306 -0.2478  0.1700 -0.9976
 7159TIP3    H242893   2.166   4.491   3.412  0.2688  0.7400 -0.3297
 7160TIP3   OH242894   5.185   4.982  17.090 -0.3202 -0.0271  0.6879
 7160TIP3    H142895   5.163   4.982  17.183  1.1221 -1.7323  1.0922
 7160TIP3    H242896   5.277   5.009  17.088 -0.4792  0.4896 -0.3179
 7161TIP3   OH242897   2.417   2.289   2.390  0.3613  0.3896 -0.2760
 7161TIP3    H142898   2.458   2.284   2.477  0.5817  0.8722 -0.3559
 7161TIP3    H242899   2.468   2.353   2.342 -0.1800  0.6278 -0.5406
 7162TIP3   OH242900   2.685   1.568   2.163 -0.5633  0.0251 -0.5965
 7162TIP3    H142901   2.664   1.495   2.105 -1.8438  0.0697 -0.2052
 7162TIP3    H242902   2.608   1.624   2.161 -0.0765  0.7507  0.0688
 7163TIP3   OH242903   0.915   1.239   0.427 -0.1400  0.4067 -0.5396
 7163TIP3    H142904   0.874   1.188   0.357 -2.2355  0.3255  0.6641
 7163TIP3    H242905   0.898   1.330   0.404 -1.2534  0.3676  0.0658
 7164TIP3   OH242906   5.428   0.378  11.875 -0.7438 -0.4913  0.3615
 7164TIP3    H142907   5.492   0.416  11.935 -0.4866  2.2137 -1.4194
 7164TIP3    H242908   5.475   0.308  11.830  1.1693  1.5805 -1.0585
 7165TIP3   OH242909   3.881   3.381   6.373 -0.2336  0.2294 -0.2707
 7165TIP3    H142910   3.954   3.424   6.417 -1.5398  1.7117  0.5588
 7165TIP3    H242911   3.856   3.442   6.303 -0.6180 -0.3101 -0.6157
 7166TIP3   OH242912   6.046   4.421   1.342 -0.2671 -0.5229 -0.0551
 7166TIP3    H142913   6.086   4.415   1.429 -0.2021  0.7138  0.0302
 7166TIP3    H242914   5.973   4.359   1.345 -0.9787  0.3144  1.3125
 7167TIP3   OH242915   0.055   0.703  12.376  0.0819  0.3030  0.0250
 7167TIP3    H142916   0.006   0.733  12.300  1.4971 -0.7244 -1.3588
 7167TIP3    H242917   0.015   0.748  12.450 -2.3733  0.1341 -1.1139
 7168TIP3   OH242918   6.073   1.512   2.896  0.1090 -0.2895  0.4359
 7168TIP3    H142919   6.045   1.470   2.977  1.4538  1.5303  1.9453
 7168TIP3    H242920   6.156   1.469   2.874 -0.8552 -1.6520 -0.7625
 7169TIP3   OH242921   4.942   5.746   2.456  0.1511 -0.1308 -0.4872
 7169TIP3    H142922   4.962   5.817   2.395 -2.9000 -0.7435 -2.4287
 7169TIP3    H242923   4.979   5.668   2.416  3.0805  0.1376  1.4088
 7170TIP3   OH242924   2.965   5.124  16.958  0.4530 -0.4449  0.4398
 7170TIP3    H142925   2.963   5.036  16.920 -0.6506 -0.9047  1.5108
 7170TIP3    H242926   2.910   5.119  17.036  0.9512  1.0194  0.9374
 7171TIP3   OH242927   5.970   6.125  10.977  0.1383 -0.0608  0.4617
 7171TIP3    H142928   5.890   6.132  11.028  0.9634  0.1749  1.7916
 7171TIP3    H242929   5.959   6.186  10.904 -0.7526  0.1964  0.8113
 7172TIP3   OH242930   4.310   1.202   3.316  0.1613 -0.1303  0.4857
 7172TIP3    H142931   4.277   1.172   3.232 -2.2124  1.6053  0.7276
 7172TIP3    H242932   4.264   1.148   3.381  1.3272 -0.8635  0.7357
 7173TIP3   OH242933   4.441   1.387  12.794  0.4718  0.4846  0.2089
 7173TIP3    H142934   4.351   1.411  12.770 -0.0359 -0.5071  1.0009
 7173TIP3    H242935   4.494   1.461  12.766 -0.7248  1.5391  0.6007
 7174TIP3   OH242936   4.817   2.764  12.839  0.4583  0.5980  0.4550
 7174TIP3    H142937   4.865   2.683  12.858 -1.4398 -0.6009  0.3239
 7174TIP3    H242938   4.764   2.780  12.917 -1.2134  0.1721 -0.5425
 7175TIP3   OH242939   1.127   1.679  17.216  0.9338  0.3195  0.9016
 7175TIP3    H142940   1.123   1.605  17.276  0.9006  0.2261  0.7849
 7175TIP3    H242941   1.199   1.732  17.249  0.6185  0.5044  1.2941
 7176TIP3   OH242942   2.538   0.130   3.933 -0.7672 -0.2023  0.3343
 7176TIP3    H142943   2.575   0.094   3.852 -1.0833 -0.6597  0.3892
 7176TIP3    H242944   2.450   0.160   3.907 -1.1688 -1.0489  0.6690
 7177TIP3   OH242945   2.385   0.461  13.348 -0.7098 -0.2448 -0.0445
 7177TIP3    H142946   2.405   0.369  13.366  1.7353 -0.0399 -1.2679
 7177TIP3    H242947   2.414   0.508  13.426  1.4588 -0.2294 -0.7813
 7178TIP3   OH242948   2.030   1.022   5.686  0.3168  0.4381  0.0551
 7178TIP3    H142949   2.022   0.927   5.695 -3.7294  0.6707  0.9181
 7178TIP3    H242950   2.075   1.035   5.602  2.6669 -2.1381  0.7928
 7179TIP3   OH242951   3.603   6.482  11.419 -0.3056 -0.3474  0.6307
 7179TIP3    H142952   3.634   6.537  11.347 -2.2013  0.7273  0.5684
 7179TIP3    H242953   3.620   6.533  11.498 -0.3877 -0.4764  0.7315
 7180TIP3   OH242954   5.304   5.633   1.473  0.4281 -0.2632  0.0824
 7180TIP3    H142955   5.302   5.646   1.378 -1.9633  2.5664  0.3785
 7180TIP3    H242956   5.227   5.579   1.491  0.5342 -0.2812  0.4949
 7181TIP3   OH242957   1.398   6.549   1.219  0.3911  0.0311  0.2295
 7181TIP3    H142958   1.306   6.530   1.198  0.3179 -0.6109  1.0942
 7181TIP3    H242959   1.393   6.617   1.286  0.5125 -0.6583  0.9493
 7182TIP3   OH242960   3.765   6.486   1.300  0.4404 -0.4343  0.0098
 7182TIP3    H142961   3.739   6.524   1.216 -1.0092  0.0159  0.6331
 7182TIP3    H242962   3.854   6.519   1.314 -0.0326  1.1185 -0.4315
 7183TIP3   OH242963   0.427   5.020   4.248 -0.0914 -0.0892  0.2224
 7183TIP3    H142964   0.438   5.112   4.227 -1.9138  0.0233 -0.4473
 7183TIP3    H242965   0.385   5.021   4.334  0.9268 -0.3413  0.7305
 7184TIP3   OH242966   0.189   5.929  12.473 -0.5212  0.4462  0.1919
 7184TIP3    H142967   0.143   5.972  12.400 -0.5033 -1.8049 -1.2584
 7184TIP3    H242968   0.262   5.883  12.431 -1.0867 -1.7425  1.4646
 7185TIP3   OH242969   1.871   5.997   6.918 -0.3204  0.4372  0.7927
 7185TIP3    H142970   1.898   5.971   6.830 -0.7874 -0.3712  0.8871
 7185TIP3    H242971   1.878   5.917   6.970 -2.3761  0.3254  0.9452
 7186TIP3   OH242972   4.342   5.486   3.245  0.0330  0.1820  0.5414
 7186TIP3    H142973   4.376   5.464   3.332 -1.9005 -0.3393  1.2063
 7186TIP3    H242974   4.392   5.431   3.185  2.1172  1.2816  1.1632
 7187TIP3   OH242975   1.281   1.439   5.182  0.0962 -0.4281 -0.2354
 7187TIP3    H142976   1.236   1.386   5.117 -2.8442 -0.4771  1.6410
 7187TIP3    H242977   1.256   1.529   5.162 -0.4065 -0.3979  0.4715
 7188TIP3   OH242978   2.065   6.736  15.405  0.0413 -0.0888  0.1905
 7188TIP3    H142979   2.111   6.653  15.388 -1.5647 -1.0714  0.4270
 7188TIP3    H242980   2.135   6.797  15.428  1.2581 -1.4453  0.2932
 7189TIP3   OH242981   5.091   2.189   4.711  0.2422 -0.4761 -0.3533
 7189TIP3    H142982   5.102   2.109   4.659  0.2088  0.1921 -1.4151
 7189TIP3    H242983   5.054   2.253   4.649 -2.1295 -0.3467  1.0849
 7190TIP3   OH242984   6.230   4.513  13.391 -0.1427  0.0328 -0.4099
 7190TIP3    H142985   6.248   4.500  13.298  1.0808  0.1684 -0.2067
 7190TIP3    H242986   6.283   4.590  13.415 -1.4507  0.7975  0.1106
 7191TIP3   OH242987   1.561   0.686  13.033 -0.2420 -0.7500 -0.6046
 7191TIP3    H142988   1.510   0.614  13.070 -1.4029  0.7493  0.8485
 7191TIP3    H242989   1.648   0.677  13.073 -0.8003 -0.5168  0.6873
 7192TIP3   OH242990   4.788   3.215   0.710 -0.2688 -0.6562  0.1745
 7192TIP3    H142991   4.698   3.247   0.715 -0.4323 -0.9169 -0.8125
 7192TIP3    H242992   4.780   3.124   0.684  0.2579 -0.9511  1.0089
 7193TIP3   OH242993   0.006   6.244  15.126 -0.5254  0.4047  0.0482
 7193TIP3    H142994   0.088   6.271  15.086 -1.1839  0.7447 -1.1319
 7193TIP3    H242995  -0.035   6.188  15.060 -0.1285 -1.8668  1.6058
 7194TIP3   OH242996   5.279   1.531   6.576  0.2735 -0.1244  0.0486
 7194TIP3    H142997   5.243   1.603   6.525  0.9879  0.8555  0.8830
 7194TIP3    H242998   5.374   1.545   6.574  0.7570 -2.8050 -2.3444
 7195TIP3   OH242999   4.957   4.292   1.866  0.1057 -0.0724  0.3104
 7195TIP3    H143000   5.029   4.297   1.929  0.9952  0.8904 -0.7367
 7195TIP3    H243001   4.894   4.233   1.906  0.0131  1.5266  2.7125
 7196TIP3   OH243002   3.671   1.813   2.475  0.5708  0.0731 -0.0453
 7196TIP3    H143003   3.744   1.762   2.509  2.1990 -0.4800 -3.8113
 7196TIP3    H243004   3.624   1.751   2.418 -0.3753  1.5037 -0.8718
 7197TIP3   OH243005   4.772   0.604   1.450  0.3420 -0.0522 -0.1758
 7197TIP3    H143006   4.799   0.571   1.535  1.4004 -2.3287 -1.2877
 7197TIP3    H243007   4.742   0.525   1.403 -2.4444  1.4518 -1.1397
 7198TIP3   OH243008   3.470   3.143   6.540  0.0162  0.1734  0.2362
 7198TIP3    H143009   3.552   3.183   6.570 -0.7669  0.7786  1.7057
 7198TIP3    H243010   3.450   3.187   6.458  0.9923  0.2447  0.0215
 7199TIP3   OH243011   4.339   5.478  13.591  0.1434  0.2220  0.3464
 7199TIP3    H143012   4.317   5.562  13.550  0.8474 -0.5343 -1.6868
 7199TIP3    H243013   4.255   5.439  13.614 -0.2176  1.1226  0.5942
 7200TIP3   OH243014   4.504   4.054  17.073 -0.5826 -0.2845  0.6574
 7200TIP3    H143015   4.430   4.016  17.120 -1.7944  0.3291 -0.6907
 7200TIP3    H243016   4.464   4.107  17.004  1.1167 -1.0426 -0.9871
 7201TIP3   OH243017   0.080   2.965  10.818 -0.0880  0.4002 -0.4234
 7201TIP3    H143018   0.035   3.022  10.756 -0.0501  1.0678  0.1512
 7201TIP3    H243019   0.077   2.878  10.777 -0.6273  0.7049 -1.0534
 7202TIP3   OH243020   1.864   5.986   0.777 -0.7357  0.5911 -0.3025
 7202TIP3    H143021   1.919   5.982   0.856 -1.3880 -1.5910  0.0882
 7202TIP3    H243022   1.863   5.897   0.744 -3.4689  0.7122 -0.7193
 7203TIP3   OH243023   0.888   4.168   1.256  0.4385  0.2940 -0.2988
 7203TIP3    H143024   0.814   4.224   1.235 -0.4194 -0.5166  0.5039
 7203TIP3    H243025   0.863   4.081   1.224  0.3135 -0.3514  1.4479
 7204TIP3   OH243026   4.149   2.090  10.748 -0.2229 -0.3857  0.0321
 7204TIP3    H143027   4.228   2.141  10.732 -0.5319 -0.1119 -0.6484
 7204TIP3    H243028   4.142   2.030  10.674 -1.4045  0.5673 -0.6754
 7205TIP3   OH243029   5.232   4.419  11.645  0.2240 -0.5157 -0.2499
 7205TIP3    H143030   5.192   4.492  11.597 -0.8663 -0.4097  0.7880
 7205TIP3    H243031   5.179   4.343  11.621 -0.7475 -0.3505  1.2394
 7206TIP3   OH243032   2.118   1.650   5.149 -0.3372  0.8020  1.2022
 7206TIP3    H143033   2.076   1.596   5.082  0.4118  1.8577 -0.1640
 7206TIP3    H243034   2.210   1.625   5.145 -0.3113  0.7327  2.0034
 7207TIP3   OH243035   3.608   2.521  10.432 -0.0308 -0.1694  0.0384
 7207TIP3    H143036   3.694   2.510  10.472  0.4597  3.6316  0.3380
 7207TIP3    H243037   3.550   2.541  10.506 -0.1497  1.9336 -0.5863
 7208TIP3   OH243038   2.161   1.831   4.867  0.2647 -0.1053 -0.3792
 7208TIP3    H143039   2.160   1.881   4.949 -0.5616 -0.6420 -0.0521
 7208TIP3    H243040   2.204   1.890   4.804  0.3103  0.5761  0.2731
 7209TIP3   OH243041   6.086   3.582   5.904 -0.1989 -0.0246  0.0761
 7209TIP3    H143042   6.127   3.545   5.982  0.6490  3.0865  1.2232
 7209TIP3    H243043   6.039   3.659   5.935 -0.5537  0.8325 -2.3540
 7210TIP3   OH243044   1.508   2.472  17.067 -0.0413  0.7449 -0.3127
 7210TIP3    H143045   1.603   2.480  17.053  0.4281 -0.7391  1.4673
 7210TIP3    H243046   1.499   2.393  17.121 -2.2655  1.1095 -0.0543
 7211TIP3   OH243047   4.299   0.612   0.443 -0.3590 -0.1244 -0.8596
 7211TIP3    H143048   4.368   0.583   0.383 -1.0767 -2.1664 -0.7854
 7211TIP3    H243049   4.344   0.663   0.509  0.8347 -0.0583 -1.6928
 7212TIP3   OH243050   1.121   6.113   3.533  0.3115  0.2729 -0.2078
 7212TIP3    H143051   1.095   6.139   3.622  1.1821  1.6972 -0.3356
 7212TIP3    H243052   1.047   6.138   3.478  0.5259  1.1622 -0.1138
 7213TIP3   OH243053   6.261   3.398  12.260 -0.1080 -0.5669 -0.0809
 7213TIP3    H143054   6.176   3.366  12.290  0.4643 -0.8346  1.3410
 7213TIP3    H243055   6.266   3.488  12.294 -0.1208 -0.3051 -0.7723
 7214TIP3   OH243056   2.767   3.782  15.741 -0.0687  0.4915 -0.1731
 7214TIP3    H143057   2.846   3.761  15.790  0.8693  2.0077 -0.9507
 7214TIP3    H243058   2.772   3.876  15.725 -1.2983  0.3847 -1.4956
 7215TIP3   OH243059   2.371   6.584   3.096  0.0182 -0.2979 -0.1789
 7215TIP3    H143060   2.408   6.581   3.008 -1.8321  0.0864 -1.0255
 7215TIP3    H243061   2.446   6.584   3.154  1.3029 -0.0125 -1.7807
 7216TIP3   OH243062   6.564   2.553  11.931  0.3951 -0.1726  0.2229
 7216TIP3    H143063   6.522   2.469  11.947 -0.2952 -0.1510 -1.2771
 7216TIP3    H243064   6.636   2.532  11.871 -0.3425  0.3846 -0.9064
 7217TIP3   OH243065   1.429   4.404   2.022 -0.3729 -0.1860  0.1344
 7217TIP3    H143066   1.447   4.382   1.931  0.1515  1.3334 -0.1517
 7217TIP3    H243067   1.388   4.325   2.058  0.7566 -1.3397 -1.0032
 7218TIP3   OH243068   6.575   5.639  13.567  0.8511 -0.6974 -0.1375
 7218TIP3    H143069   6.656   5.620  13.519  0.0235 -1.2273 -1.3865
 7218TIP3    H243070   6.561   5.733  13.555  0.3334 -0.9298 -1.5044
 7219TIP3   OH243071   3.730   2.191  12.709 -0.2259  0.7163  0.6637
 7219TIP3    H143072   3.645   2.206  12.667  0.1103  0.2103 -0.2305
 7219TIP3    H243073   3.771   2.277  12.712 -0.7174  0.9466  1.0074
 7220TIP3   OH243074   0.074   0.527   6.401  0.6617  0.0537 -0.7759
 7220TIP3    H143075   0.153   0.581   6.405  0.8568 -0.1985 -1.2112
 7220TIP3    H243076   0.103   0.444   6.364  0.5102 -0.6294  0.5993
 7221TIP3   OH243077   3.944   5.033   5.470  0.0360  0.5539 -0.0847
 7221TIP3    H143078   3.883   5.055   5.541  2.1525  2.7981  1.2162
 7221TIP3    H243079   3.898   5.058   5.390 -1.4395  0.4314  0.6996
 7222TIP3   OH243080   1.881   4.802  16.249 -0.1818 -0.4483  0.4874
 7222TIP3    H143081   1.813   4.855  16.291  0.7259  0.6993  0.5432
 7222TIP3    H243082   1.932   4.766  16.322 -0.7030 -1.2895  0.4459
 7223TIP3   OH243083   1.473   1.834   0.920 -0.2675 -0.5686 -0.6623
 7223TIP3    H143084   1.380   1.819   0.902 -0.3021 -1.4793  0.1643
 7223TIP3    H243085   1.490   1.782   0.998 -0.1530  3.1593  2.0580
 7224TIP3   OH243086   4.124   5.562  16.791  0.3083 -0.5422 -0.9802
 7224TIP3    H143087   4.103   5.610  16.872 -1.1923 -1.5194 -0.7413
 7224TIP3    H243088   4.118   5.627  16.722 -2.1957 -0.4105 -0.7190
 7225TIP3   OH243089   0.755   1.036   4.310 -0.0679 -0.7065 -0.0944
 7225TIP3    H143090   0.711   1.120   4.317 -0.3731 -0.9589  1.3863
 7225TIP3    H243091   0.689   0.972   4.336  0.1927 -1.4012 -1.0826
 7226TIP3   OH243092   4.978   3.901   4.465  0.0064 -0.7732  0.5279
 7226TIP3    H143093   4.920   3.843   4.515 -0.9011 -1.3260 -1.0835
 7226TIP3    H243094   5.045   3.843   4.428  1.2162 -0.2380  1.7953
 7227TIP3   OH243095   5.395   1.479   3.375  0.0450 -0.2412  0.2309
 7227TIP3    H143096   5.376   1.387   3.356 -0.3051 -0.0429 -0.4091
 7227TIP3    H243097   5.317   1.526   3.347  0.4345  0.3110  0.0521
 7228TIP3   OH243098   4.524   5.021  15.295 -0.0407  0.6842  0.1035
 7228TIP3    H143099   4.451   5.083  15.295  0.9706  1.9536 -1.5616
 7228TIP3    H243100   4.602   5.075  15.279  0.7964 -1.0433 -2.3515
 7229TIP3   OH243101   2.959   5.473   1.380 -0.5345  0.0888  0.3159
 7229TIP3    H143102   3.014   5.465   1.302 -0.5429 -1.2207  0.4319
 7229TIP3    H243103   2.871   5.452   1.350 -0.4401 -1.0740  0.7850
 7230TIP3   OH243104   0.110   0.247  15.883  0.0827 -0.1787  1.0303
 7230TIP3    H143105   0.168   0.256  15.808 -1.4195 -1.1212 -0.3070
 7230TIP3    H243106   0.121   0.156  15.911 -1.9980 -0.9442 -0.3911
 7231TIP3   OH243107   2.160   4.179  12.961  0.0033 -0.0188 -0.2647
 7231TIP3    H143108   2.156   4.106  13.023 -0.2930 -0.0718 -0.3448
 7231TIP3    H243109   2.130   4.255  13.011  0.7368  0.1388 -0.0530
 7232TIP3   OH243110   1.694   1.188  13.647 -0.7639  0.4523  0.2505
 7232TIP3    H143111   1.684   1.109  13.593  1.0166  0.3642  0.0030
 7232TIP3    H243112   1.681   1.260  13.585  1.5274  0.3560 -0.4351
 7233TIP3   OH243113   5.508   1.330  11.607  0.7107 -0.0744 -0.0232
 7233TIP3    H143114   5.562   1.316  11.529  0.9411 -0.9489  0.2829
 7233TIP3    H243115   5.486   1.242  11.637  1.8513  0.1987  1.7501
 7234TIP3   OH243116   6.014   3.572   1.718  0.2388  0.6287 -0.1871
 7234TIP3    H143117   5.944   3.532   1.666 -0.5523  1.3125  0.3264
 7234TIP3    H243118   5.992   3.665   1.719  0.1068  0.6082  1.5512
 7235TIP3   OH243119   0.099   0.773   4.993  0.4239  0.4665 -0.2971
 7235TIP3    H143120   0.175   0.780   4.936  0.2198 -1.9568 -1.0002
 7235TIP3    H243121   0.135   0.753   5.079  0.6422 -1.7863 -0.8486
 7236TIP3   OH243122   1.716   0.392   1.900  0.0907  0.2342  0.0145
 7236TIP3    H143123   1.772   0.423   1.972  0.8589 -0.9084 -0.0674
 7236TIP3    H243124   1.711   0.297   1.913  0.8850 -0.1058 -1.8694
 7237TIP3   OH243125   4.760   2.618   5.194 -0.5610 -0.1692  0.5115
 7237TIP3    H143126   4.686   2.675   5.214 -0.5408  0.0330  0.0061
 7237TIP3    H243127   4.792   2.647   5.109 -1.0187 -1.4276 -0.1125
 7238TIP3   OH243128   3.870   6.230   5.968  0.3438  0.5132 -0.3964
 7238TIP3    H143129   3.929   6.169   6.013  0.6556 -0.2693 -1.7891
 7238TIP3    H243130   3.815   6.266   6.037 -1.7760 -3.4191  0.3071
 7239TIP3   OH243131   1.061   3.180   1.830 -0.3592 -0.3199 -0.7030
 7239TIP3    H143132   1.143   3.218   1.799  0.0166  2.3759  2.8760
 7239TIP3    H243133   1.087   3.118   1.898 -1.2653 -0.7711 -0.7496
 7240TIP3   OH243134   0.527   2.798   4.861 -0.1421 -0.3020  0.1972
 7240TIP3    H143135   0.456   2.859   4.879  0.2695  0.2197  0.0911
 7240TIP3    H243136   0.597   2.853   4.826  1.4157 -0.3176  2.9803
 7241TIP3   OH243137   0.335   0.238   2.373  0.2591 -0.4387 -0.1821
 7241TIP3    H143138   0.378   0.287   2.443 -2.1812 -0.8499  1.7466
 7241TIP3    H243139   0.278   0.302   2.330 -0.8645 -0.8990  0.5543
 7242TIP3   OH243140   3.689   3.263   6.189 -0.0620 -0.3739 -0.0109
 7242TIP3    H143141   3.652   3.176   6.201 -1.3472 -0.0129 -1.0811
 7242TIP3    H243142   3.779   3.256   6.221 -0.8096 -1.4892  1.9955
 7243TIP3   OH243143   0.036   4.147   3.631  0.0625 -0.3249 -0.4829
 7243TIP3    H143144   0.060   4.098   3.552  0.3286 -1.3517  0.2067
 7243TIP3    H243145  -0.059   4.155   3.626  0.2062  1.0184 -1.6791
 7244TIP3   OH243146   2.694   1.777   1.320  0.4674 -0.0620  0.5558
 7244TIP3    H143147   2.606   1.794   1.286  0.3896 -1.8133 -0.1715
 7244TIP3    H243148   2.680   1.750   1.411  0.0597 -2.1204 -0.0837
 7245TIP3   OH243149   0.152   4.042  16.425 -0.0325 -0.0831  0.1098
 7245TIP3    H143150   0.221   4.004  16.478  0.6050 -0.8931 -1.2576
 7245TIP3    H243151   0.177   4.134  16.415 -0.2714  0.1332  1.3451
 7246TIP3   OH243152   3.572   0.767   5.263 -0.0682 -0.3500  0.2513
 7246TIP3    H143153   3.617   0.835   5.314 -0.4239 -0.8001  1.1849
 7246TIP3    H243154   3.551   0.699   5.327 -4.1663  0.8118  0.3916
 7247TIP3   OH243155   3.991   1.255  13.498 -0.1224  0.6799 -0.0115
 7247TIP3    H143156   3.902   1.219  13.500 -0.2798  1.0654 -0.0757
 7247TIP3    H243157   3.983   1.343  13.535  0.4110  0.3337  0.9638
 7248TIP3   OH243158   6.721   3.645  16.378 -0.4152  0.4372 -0.6345
 7248TIP3    H143159   6.751   3.729  16.412  0.9115  0.0912 -0.8938
 7248TIP3    H243160   6.703   3.661  16.286  1.3072  0.1140 -1.0577
 7249TIP3   OH243161   0.683   3.965  16.648 -0.5194  0.0445 -0.5403
 7249TIP3    H143162   0.653   3.879  16.620 -0.2837 -0.1134 -0.3106
 7249TIP3    H243163   0.762   3.948  16.700 -0.4312  0.4015 -0.5512
 7250TIP3   OH243164   3.743   6.517  14.806 -0.3448 -0.4440  0.4002
 7250TIP3    H143165   3.788   6.445  14.850 -1.6202 -0.5805  1.5465
 7250TIP3    H243166   3.813   6.571  14.770  0.6660 -1.6758  0.4458
 7251TIP3   OH243167   5.039   2.787   4.468 -0.1075  0.0266  0.6641
 7251TIP3    H143168   5.009   2.760   4.381  1.1568  2.2119 -0.5609
 7251TIP3    H243169   5.063   2.706   4.512 -1.0244 -1.1675 -0.9226
 7252TIP3   OH243170   1.365   2.562   5.606  0.1642 -0.1301 -0.0559
 7252TIP3    H143171   1.402   2.500   5.669 -1.5862 -0.3329  0.8288
 7252TIP3    H243172   1.321   2.507   5.541 -0.8571  0.1453  0.3844
 7253TIP3   OH243173   2.599   1.243  14.271  0.4284 -0.4371  0.6064
 7253TIP3    H143174   2.540   1.169  14.258  0.7252 -0.2590 -2.5872
 7253TIP3    H243175   2.675   1.222  14.217  2.4140  0.3179  2.9535
 7254TIP3   OH243176   3.792   5.348   2.317 -0.7142  0.2517 -0.1716
 7254TIP3    H143177   3.859   5.363   2.250 -1.8402 -0.6163 -1.5547
 7254TIP3    H243178   3.829   5.386   2.397  1.5389 -0.4521 -0.7988
 7255TIP3   OH243179   3.159   4.031  11.379 -0.4898  0.5155  0.3378
 7255TIP3    H143180   3.148   4.124  11.360  0.8918  1.5234  3.7172
 7255TIP3    H243181   3.250   4.012  11.355 -0.5518  0.2181  0.3352
 7256TIP3   OH243182   2.590   5.941  15.714  0.2417  0.0898 -0.1199
 7256TIP3    H143183   2.531   5.868  15.736  0.0305 -0.3464 -1.9253
 7256TIP3    H243184   2.678   5.906  15.729  0.1122  0.4062  1.6126
 7257TIP3   OH243185   4.756   5.791   1.260  0.4231 -0.1728 -0.4119
 7257TIP3    H143186   4.843   5.752   1.256  0.7782  0.3899  1.1035
 7257TIP3    H243187   4.764   5.874   1.213  0.8235  0.0542  0.0480
 7258TIP3   OH243188   3.848   4.792  11.538  0.2980 -0.2399  0.3100
 7258TIP3    H143189   3.769   4.846  11.547  0.1379 -0.3223 -0.5498
 7258TIP3    H243190   3.816   4.707  11.508  0.8242  0.1315 -1.3840
 7259TIP3   OH243191   4.470   0.216  12.334  0.4863 -0.2421 -0.0777
 7259TIP3    H143192   4.398   0.161  12.365  0.2052  0.0121 -0.2800
 7259TIP3    H243193   4.548   0.179  12.375 -0.1461  1.6907  3.1950
 7260TIP3   OH243194   2.714   4.856  16.713  0.1812 -0.4347 -0.3207
 7260TIP3    H143195   2.761   4.939  16.704  0.3903 -0.2341  1.9509
 7260TIP3    H243196   2.779   4.789  16.692  0.2339 -0.0609 -1.4020
 7261TIP3   OH243197   1.165   2.204  13.638 -0.1362  0.1611 -0.2700
 7261TIP3    H143198   1.128   2.292  13.651 -0.0492  0.3387 -1.2006
 7261TIP3    H243199   1.229   2.215  13.568 -1.4039 -0.9907 -1.6559
 7262TIP3   OH243200   2.286   1.784  17.091 -0.0226  0.5953 -0.3615
 7262TIP3    H143201   2.361   1.796  17.148  0.1403  2.6853 -0.9325
 7262TIP3    H243202   2.316   1.724  17.023  1.3554  1.8253 -0.8896
 7263TIP3   OH243203   4.814   4.320   2.122  0.3118 -0.2104 -0.3554
 7263TIP3    H143204   4.770   4.263   2.058 -0.6721 -0.1153  0.2184
 7263TIP3    H243205   4.743   4.364   2.168  1.0303  0.3955  0.2060
 7264TIP3   OH243206   2.532   2.259   2.656  0.2409  0.1928  0.2646
 7264TIP3    H143207   2.625   2.238   2.645 -0.0811 -1.3561  0.2322
 7264TIP3    H243208   2.519   2.258   2.751 -0.2811 -2.4763  0.2592
 7265TIP3   OH243209   0.536   5.251  14.258 -0.4012 -0.0331 -0.2848
 7265TIP3    H143210   0.498   5.176  14.303  2.3587 -0.0711  2.3354
 7265TIP3    H243211   0.493   5.327  14.298  2.0701 -0.0605  2.8836
 7266TIP3   OH243212   2.613   1.341   1.923  0.9724  0.1290 -0.3497
 7266TIP3    H143213   2.624   1.307   1.834  0.9412 -2.7348  0.6270
 7266TIP3    H243214   2.613   1.263   1.978 -1.6987  1.5647  1.9330
 7267TIP3   OH243215   6.758   0.023  17.147 -0.5539 -0.5781  0.1661
 7267TIP3    H143216   6.851   0.028  17.168 -0.5898 -0.9310  0.4191
 7267TIP3    H243217   6.745   0.088  17.078 -0.0316 -0.8439 -0.1883
 7268TIP3   OH243218   1.520   5.266  14.898  0.0972 -0.0565 -0.4516
 7268TIP3    H143219   1.590   5.206  14.923 -1.7078 -1.8169  0.7362
 7268TIP3    H243220   1.502   5.245  14.806 -0.7277 -1.6571  0.0393
 7269TIP3   OH243221   2.119   6.001  12.595  0.5171  0.1231  0.2324
 7269TIP3    H143222   2.177   6.077  12.586 -0.7562  1.3090  1.5610
 7269TIP3    H243223   2.179   5.927  12.608  1.7701  1.1432  0.4868
 7270TIP3   OH243224   3.627   1.577   0.288 -0.4563  0.0614  0.2221
 7270TIP3    H143225   3.596   1.594   0.199 -0.8670  2.6147  0.7607
 7270TIP3    H243226   3.692   1.507   0.279 -3.3986 -2.6801 -1.4662
 7271TIP3   OH243227   5.207   2.427   1.547 -0.6047  0.7283  0.2118
 7271TIP3    H143228   5.256   2.439   1.466  0.2362 -2.9425 -0.0038
 7271TIP3    H243229   5.146   2.356   1.529  0.2498 -0.8651  2.9707
 7272TIP3   OH243230   0.626   5.365  15.884 -0.2589  0.0225 -0.1740
 7272TIP3    H143231   0.709   5.319  15.873 -0.0908  0.4435 -0.7063
 7272TIP3    H243232   0.642   5.453  15.851 -0.9620  0.0650 -0.4266
 7273TIP3   OH243233   2.888   0.589   5.609  0.0724 -0.2175 -0.0711
 7273TIP3    H143234   2.804   0.622   5.640 -0.4042 -1.1266 -0.3525
 7273TIP3    H243235   2.943   0.667   5.601 -0.3290  0.2522  1.3400
 7274TIP3   OH243236   5.872   0.943   1.170 -0.1344 -0.8024  0.1011
 7274TIP3    H143237   5.901   0.855   1.196  0.4264 -0.7945 -0.4654
 7274TIP3    H243238   5.803   0.964   1.232  0.5390 -1.1528  1.0045
 7275TIP3   OH243239   3.202   5.669  16.666 -0.8669  0.1187  0.7100
 7275TIP3    H143240   3.190   5.605  16.736 -0.8850 -0.5787  0.0708
 7275TIP3    H243241   3.114   5.687  16.635 -0.8313  0.1717  0.6397
 7276TIP3   OH243242   4.929   6.420  12.990  0.1673 -0.0382  0.4144
 7276TIP3    H143243   4.841   6.454  12.975 -0.0204 -0.8481 -0.3551
 7276TIP3    H243244   4.921   6.367  13.070 -0.3875 -1.3013 -0.4585
 7277TIP3   OH243245   3.439   3.390   3.677  0.0984 -0.1008 -0.0890
 7277TIP3    H143246   3.432   3.403   3.582  0.4201 -0.1736 -0.1232
 7277TIP3    H243247   3.506   3.452   3.705  0.3510 -0.4225  0.0184
 7278TIP3   OH243248   3.965   2.991   3.393  0.2082  0.5999  0.0239
 7278TIP3    H143249   3.881   3.036   3.379  0.7445  1.1805 -1.5034
 7278TIP3    H243250   3.943   2.898   3.385 -0.5471  0.6525  1.1775
 7279TIP3   OH243251   3.130   3.552   3.829 -0.0029 -0.0324  0.1639
 7279TIP3    H143252   3.111   3.604   3.751  1.5286  0.0924 -0.1701
 7279TIP3    H243253   3.150   3.616   3.897  0.3815 -0.1626  0.1757
 7280TIP3   OH243254   6.217   4.858  11.792 -0.2288 -0.1087  0.3639
 7280TIP3    H143255   6.185   4.943  11.821  1.2090  0.3945  0.5542
 7280TIP3    H243256   6.208   4.801  11.868 -1.0142 -0.0853  0.2944
 7281TIP3   OH243257   0.357   1.728  12.252 -0.5033 -0.1253  0.2495
 7281TIP3    H143258   0.432   1.670  12.237  0.2456  0.6080  0.9992
 7281TIP3    H243259   0.361   1.748  12.345 -2.7781 -1.5575  0.7190
 7282TIP3   OH243260   6.492   0.549   5.911 -0.6674 -0.3886 -0.0916
 7282TIP3    H143261   6.468   0.546   6.004 -0.0040  1.4360  0.1766
 7282TIP3    H243262   6.460   0.466   5.876 -2.6935 -0.2865  1.3332
 7283TIP3   OH243263   5.474   3.082  15.643  0.0999 -0.1482 -0.0999
 7283TIP3    H143264   5.392   3.064  15.689  0.6347  1.2386  1.5099
 7283TIP3    H243265   5.501   2.997  15.608 -0.3206 -1.3260  2.2356
 7284TIP3   OH243266   2.186   0.028  15.021  0.5562 -0.1761 -0.7743
 7284TIP3    H143267   2.102  -0.009  14.995 -0.5160 -2.1732  4.2782
 7284TIP3    H243268   2.247  -0.045  15.018  0.5986 -0.2664  0.9363
 7285TIP3   OH243269   4.807   5.676   5.233  0.2269  0.2939  0.0365
 7285TIP3    H143270   4.759   5.597   5.209  1.0685  0.0320 -0.8336
 7285TIP3    H243271   4.876   5.646   5.292  0.4791  0.3913 -0.2056
 7286TIP3   OH243272   5.556   5.274  14.655  0.1522  0.0981 -0.1756
 7286TIP3    H143273   5.501   5.327  14.597 -1.0293 -1.1934 -0.2858
 7286TIP3    H243274   5.612   5.338  14.700  0.2640  1.2385 -1.8423
 7287TIP3   OH243275   3.376   0.708   0.713 -0.5344 -0.2687  0.0934
 7287TIP3    H143276   3.294   0.661   0.699 -0.1404 -0.9367 -0.0024
 7287TIP3    H243277   3.403   0.734   0.625 -0.1569 -0.8885  0.0208
 7288TIP3   OH243278   0.225   0.971  12.181 -0.9711  0.1716 -0.2145
 7288TIP3    H143279   0.228   1.021  12.262  1.5556  1.7751 -1.1663
 7288TIP3    H243280   0.307   0.994  12.136 -2.3115 -0.5528 -3.2607
 7289TIP3   OH243281   4.273   4.878   5.454 -0.3748  0.7690  0.3789
 7289TIP3    H143282   4.258   4.921   5.538  1.8285  2.1355  0.1431
 7289TIP3    H243283   4.288   4.949   5.392 -1.5541 -0.2217 -1.1276
 7290TIP3   OH243284   5.974   4.564  12.857  0.0356  0.5905  0.0958
 7290TIP3    H143285   5.894   4.606  12.888  0.0178 -0.0498  0.9739
 7290TIP3    H243286   6.038   4.580  12.926  0.0153 -0.8168  0.4831
 7291TIP3   OH243287   5.193   1.242  15.400 -0.4493 -0.2670 -0.1621
 7291TIP3    H143288   5.154   1.277  15.320  0.9425 -0.1029 -0.7878
 7291TIP3    H243289   5.135   1.169  15.424 -0.1618 -1.1969 -2.0893
 7292TIP3   OH243290   2.651   1.273  11.028  0.5049 -0.9504 -0.1492
 7292TIP3    H143291   2.646   1.281  11.124 -1.9662  0.1351 -0.2929
 7292TIP3    H243292   2.743   1.285  11.008  0.6288  2.8505  1.8130
 7293TIP3   OH243293   1.156   5.541   3.655  0.1080  0.5072 -0.3687
 7293TIP3    H143294   1.066   5.525   3.685  0.1386  0.3892 -0.3433
 7293TIP3    H243295   1.165   5.637   3.661  0.6081  0.3884  1.4057
 7294TIP3   OH243296   1.157   4.280   1.244  0.5820 -0.4260 -0.9238
 7294TIP3    H143297   1.102   4.246   1.315 -1.1772  0.5842 -1.7524
 7294TIP3    H243298   1.098   4.330   1.189  2.1236 -0.2738 -2.5380
 7295TIP3   OH243299   4.662   3.047   0.128 -0.3650 -0.2989 -0.4976
 7295TIP3    H143300   4.732   3.024   0.189  2.2093  1.5442 -2.5211
 7295TIP3    H243301   4.638   3.136   0.152 -2.3429 -0.9929  0.3364
 7296TIP3   OH243302   1.239   2.461  13.381  0.3979 -0.5468  0.3740
 7296TIP3    H143303   1.296   2.387  13.399 -2.0635 -2.8517 -0.7427
 7296TIP3    H243304   1.171   2.455  13.447  0.7207  1.4617  0.9637
 7297TIP3   OH243305   6.452   0.525  13.445  0.5938 -0.5012 -0.6591
 7297TIP3    H143306   6.472   0.529  13.351  0.7992 -0.7047 -0.6241
 7297TIP3    H243307   6.495   0.445  13.475  0.7601 -0.2910 -0.3361
 7298TIP3   OH243308   2.802   0.832  14.032  0.5018 -0.2436 -0.1687
 7298TIP3    H143309   2.748   0.782  14.094  0.1532  1.0701  0.6149
 7298TIP3    H243310   2.885   0.785  14.029  0.1462 -0.9352  0.4578
 7299TIP3   OH243311   1.402   3.574   2.551 -0.0899 -0.2046 -0.9795
 7299TIP3    H143312   1.493   3.586   2.525  1.4110 -2.4391  2.4866
 7299TIP3    H243313   1.380   3.485   2.524 -0.8705 -0.0930 -0.7502
 7300TIP3   OH243314   0.714   0.480  16.097 -0.1674 -0.0060  0.2010
 7300TIP3    H143315   0.649   0.518  16.157  0.1974 -1.9448  1.9101
 7300TIP3    H243316   0.712   0.386  16.115  2.8749 -0.1946  0.0939
 7301TIP3   OH243317   4.545   3.189  12.007 -0.2442 -0.0402  0.0215
 7301TIP3    H143318   4.567   3.181  12.100 -0.0360  1.7044  0.1499
 7301TIP3    H243319   4.491   3.111  11.989 -0.5665 -0.2505  1.6747
 7302TIP3   OH243320   4.864   3.316   1.187  0.5703 -0.5219  0.0762
 7302TIP3    H143321   4.878   3.323   1.093  0.1225 -1.5944 -0.0847
 7302TIP3    H243322   4.905   3.233   1.211  1.5539  0.2070  1.0112
 7303TIP3   OH243323   6.366   5.922   2.905  0.1967 -0.1390  0.2629
 7303TIP3    H143324   6.432   5.853   2.906  1.1555  0.7684  0.1224
 7303TIP3    H243325   6.405   5.993   2.856 -0.8642  0.4421  0.2257
 7304TIP3   OH243326   2.138   3.467  12.306  0.0780 -0.3854  0.3616
 7304TIP3    H143327   2.194   3.449  12.381 -0.1782 -0.0507  0.6383
 7304TIP3    H243328   2.077   3.394  12.303  0.8507 -1.0206 -0.2556
 7305TIP3   OH243329   0.883   2.857   4.663 -0.2466 -0.7322 -0.2717
 7305TIP3    H143330   0.831   2.785   4.698  0.7246 -2.5514 -2.3437
 7305TIP3    H243331   0.828   2.896   4.595 -1.2729  1.4304  1.6290
 7306TIP3   OH243332   5.873   2.315  15.457  0.4529  0.1663  0.3046
 7306TIP3    H143333   5.824   2.281  15.532 -1.0152 -0.5831 -0.9464
 7306TIP3    H243334   5.956   2.266  15.459  0.4641  0.1862  1.4191
 7307TIP3   OH243335   1.889   5.131   6.723 -0.2941 -0.2009  0.5749
 7307TIP3    H143336   1.866   5.215   6.765  1.0156  0.7778 -0.5870
 7307TIP3    H243337   1.959   5.153   6.662  0.8060 -2.3374  0.9622
 7308TIP3   OH243338   1.921   2.272  15.858  0.1786 -0.0069  0.0037
 7308TIP3    H143339   1.901   2.283  15.951 -1.4801 -2.5699  0.0576
 7308TIP3    H243340   1.896   2.356  15.818 -0.9799  0.4554  1.5970
 7309TIP3   OH243341   4.030   0.298  13.634 -0.3181 -0.4662  0.4872
 7309TIP3    H143342   3.964   0.234  13.659 -0.8786 -1.3071 -2.6662
 7309TIP3    H243343   4.095   0.248  13.584 -0.2529  1.1829 -1.2088
 7310TIP3   OH243344   5.815   4.248  13.996 -0.2323  0.3853 -0.3651
 7310TIP3    H143345   5.763   4.170  13.976  1.1486 -0.7836  0.3759
 7310TIP3    H243346   5.876   4.255  13.922  0.8479 -0.3433  0.4284
 7311TIP3   OH243347   2.465   6.185   5.188 -0.1211  0.0912  0.9569
 7311TIP3    H143348   2.478   6.098   5.226 -0.9443 -0.4969 -0.0517
 7311TIP3    H243349   2.378   6.211   5.217 -0.3586  0.0554  0.2950
 7312TIP3   OH243350   4.494   5.691  11.264  0.5554 -0.1755 -0.5859
 7312TIP3    H143351   4.409   5.724  11.294  1.4241  0.3852  1.4470
 7312TIP3    H243352   4.480   5.669  11.172 -1.7527 -0.0086 -0.3336
 7313TIP3   OH243353   2.892   4.837  12.453 -0.0452 -0.3207 -0.2061
 7313TIP3    H143354   2.875   4.925  12.421 -0.5083 -0.5857 -0.7054
 7313TIP3    H243355   2.953   4.800  12.388  0.2221 -0.3399  0.0520
 7314TIP3   OH243356   3.842   2.695   6.497 -0.9773  0.0080  0.7345
 7314TIP3    H143357   3.825   2.764   6.562 -0.1792  0.0993  0.8458
 7314TIP3    H243358   3.817   2.735   6.413  2.5475  1.6729  0.3133
 7315TIP3   OH243359   6.643   0.174   1.071 -0.3771 -0.2161 -0.1415
 7315TIP3    H143360   6.646   0.269   1.056 -1.3209 -0.2744 -0.7513
 7315TIP3    H243361   6.716   0.157   1.131 -0.3869  0.9375  0.2153
 7316TIP3   OH243362   4.538   3.835  14.858 -0.4981 -0.4803  0.2469
 7316TIP3    H143363   4.517   3.907  14.799  0.3378 -0.4162  0.0149
 7316TIP3    H243364   4.493   3.759  14.820 -0.2449 -0.3671 -0.2782
 7317TIP3   OH243365   6.214   3.766   5.773 -0.0964 -0.4506  0.1655
 7317TIP3    H143366   6.162   3.692   5.807 -1.7161  0.4093 -0.3328
 7317TIP3    H243367   6.261   3.799   5.850  1.2911 -2.4549  0.2447
 7318TIP3   OH243368   4.683   5.578   4.450 -0.5276  0.3075 -0.2256
 7318TIP3    H143369   4.696   5.672   4.457 -0.3561  0.2968 -0.4148
 7318TIP3    H243370   4.646   5.565   4.363 -2.7175  0.4419  0.6150
 7319TIP3   OH243371   5.718   1.246  12.357  0.1570  0.4491 -0.0893
 7319TIP3    H143372   5.690   1.194  12.281 -1.1917 -0.2221  0.8275
 7319TIP3    H243373   5.813   1.243  12.354  0.1455  0.6510 -1.8948
 7320TIP3   OH243374   0.580   1.383  11.216  0.1243  0.0288 -0.5321
 7320TIP3    H143375   0.492   1.418  11.200 -0.7784 -1.1260  1.5198
 7320TIP3    H243376   0.639   1.450  11.181 -1.5512  1.0898 -1.4713
 7321TIP3   OH243377   5.868   5.776   3.512 -0.3806 -0.9826  0.1694
 7321TIP3    H143378   5.890   5.772   3.605 -2.3022  2.1125  0.9249
 7321TIP3    H243379   5.944   5.817   3.472 -1.2260  1.9940  1.3137
 7322TIP3   OH243380   1.348   6.199  15.672  0.0562  1.2508  0.5137
 7322TIP3    H143381   1.419   6.224  15.613 -0.8492  1.9072 -0.3049
 7322TIP3    H243382   1.269   6.206  15.620 -0.7697  1.8719  1.8053
 7323TIP3   OH243383   4.259   5.822  10.783 -0.5382 -0.3823  0.0320
 7323TIP3    H143384   4.256   5.734  10.746 -0.6716 -0.4499  0.2011
 7323TIP3    H243385   4.174   5.833  10.826 -0.8252  0.1256 -0.6470
 7324TIP3   OH243386   4.457   5.406   4.617 -0.1310  0.0141  0.1642
 7324TIP3    H143387   4.471   5.500   4.619  2.7002 -0.3183  1.5556
 7324TIP3    H243388   4.391   5.389   4.683 -1.2427  1.0474 -0.6449
 7325TIP3   OH243389   2.819   3.815  12.834 -0.1259 -0.3124 -0.2872
 7325TIP3    H143390   2.819   3.802  12.929 -0.9511  0.8844 -0.1152
 7325TIP3    H243391   2.743   3.870  12.817  0.5659  0.2828 -1.5341
 7326TIP3   OH243392   2.101   2.622  11.660  0.4633 -0.6101 -0.0054
 7326TIP3    H143393   2.098   2.654  11.750 -3.7134  0.4088 -0.3114
 7326TIP3    H243394   2.016   2.581  11.646  0.2958  0.6565 -3.9220
 7327TIP3   OH243395   4.043   3.509   5.347  0.4080 -0.3085 -0.3526
 7327TIP3    H143396   4.101   3.566   5.296 -0.4047 -0.1741 -1.1558
 7327TIP3    H243397   3.979   3.476   5.283 -1.4610  0.9252  0.7788
 7328TIP3   OH243398   3.060   3.483   6.304  0.3880  0.2172  1.0965
 7328TIP3    H143399   3.002   3.418   6.265 -1.4121  1.8753  0.8103
 7328TIP3    H243400   3.001   3.543   6.351  1.9745  1.4341  1.6561
 7329TIP3   OH243401   2.675   3.070  16.271 -0.1223  0.3436  0.1399
 7329TIP3    H143402   2.751   3.017  16.250 -0.5443 -0.3568  0.3650
 7329TIP3    H243403   2.629   3.081  16.188 -1.1143 -1.3644  0.4166
 7330TIP3   OH243404   1.559   1.512  11.632 -0.2710  0.3933  0.4754
 7330TIP3    H143405   1.551   1.575  11.561 -2.6518 -1.1884 -0.8311
 7330TIP3    H243406   1.497   1.541  11.698 -2.2649 -1.0388 -0.6388
 7331TIP3   OH243407   4.690   6.702  11.923 -0.3397 -0.1223  0.6043
 7331TIP3    H143408   4.673   6.795  11.940  1.5601  0.1707  1.2148
 7331TIP3    H243409   4.760   6.702  11.858 -0.7130 -1.1439  0.1881
 7332TIP3   OH243410   5.530   1.204  14.582  0.0067  0.4829 -0.0708
 7332TIP3    H143411   5.585   1.282  14.595  0.2112  0.4898 -0.9177
 7332TIP3    H243412   5.507   1.176  14.671  2.4481 -0.2771  0.3975
 7333TIP3   OH243413   1.550   0.532  12.816  0.9362 -0.8153 -0.0407
 7333TIP3    H143414   1.509   0.541  12.730 -0.6828 -1.2603  0.6395
 7333TIP3    H243415   1.537   0.617  12.858  1.9225 -0.5256 -0.2937
 7334TIP3   OH243416   6.013   1.890   3.314  0.0960 -0.1401  0.2986
 7334TIP3    H143417   5.929   1.847   3.303 -0.3440  0.9898 -0.9581
 7334TIP3    H243418   6.064   1.865   3.237  0.2817  0.5827  0.1802
 7335TIP3   OH243419   2.947   4.785   0.814 -0.0037  0.1510 -0.2724
 7335TIP3    H143420   3.043   4.784   0.818  0.1414 -2.2487 -1.7967
 7335TIP3    H243421   2.919   4.790   0.905  1.5957  0.3372  0.2423
 7336TIP3   OH243422   4.269   4.582   3.128 -0.2242 -0.2221 -0.0290
 7336TIP3    H143423   4.280   4.663   3.177  0.3050  0.1766 -0.7794
 7336TIP3    H243424   4.215   4.607   3.053 -0.7993 -0.7618  0.2016
 7337TIP3   OH243425   4.810   2.044  13.338  0.3148 -0.6709  1.5229
 7337TIP3    H143426   4.862   2.118  13.305  1.0952 -1.3995  1.0829
 7337TIP3    H243427   4.859   1.966  13.311 -2.2135 -1.5310 -1.0410
 7338TIP3   OH243428   4.298   0.551   6.172 -0.3245  0.1087 -0.2973
 7338TIP3    H143429   4.226   0.580   6.228 -0.2814  0.7962 -0.5843
 7338TIP3    H243430   4.373   0.544   6.231 -0.2969  0.7572 -0.2516
 7339TIP3   OH243431   0.795   5.936   5.256  0.6095 -0.0062 -0.2179
 7339TIP3    H143432   0.727   5.870   5.241  0.2934 -0.0669  1.2932
 7339TIP3    H243433   0.844   5.939   5.174 -0.3731 -0.9431 -0.8717
 7340TIP3   OH243434   5.841   5.398  11.469  0.4667 -0.0010  0.2476
 7340TIP3    H143435   5.851   5.302  11.466  0.1957 -0.0007 -1.6603
 7340TIP3    H243436   5.930   5.432  11.460  0.4278 -0.0717 -0.4190
 7341TIP3   OH243437   1.682   6.291  16.923  0.8743 -0.0648  0.0466
 7341TIP3    H143438   1.652   6.248  16.842  0.2741 -0.1198  0.2941
 7341TIP3    H243439   1.612   6.274  16.986  1.5369 -0.3767  0.6980
 7342TIP3   OH243440   6.546   0.778   0.615  0.2011  0.2794  0.5577
 7342TIP3    H143441   6.575   0.706   0.671  0.4937 -0.3670 -0.3965
 7342TIP3    H243442   6.571   0.857   0.663  2.5008 -0.2372  0.3590
 7343TIP3   OH243443   2.179   6.337   1.378 -0.2787  0.7576 -0.4329
 7343TIP3    H143444   2.257   6.392   1.379 -0.7528  1.4394 -0.0515
 7343TIP3    H243445   2.136   6.358   1.295  0.2361 -0.0563 -0.9204
 7344TIP3   OH243446   6.397   5.697  16.898  0.1102 -0.8120 -0.0212
 7344TIP3    H143447   6.441   5.622  16.858 -1.3540 -1.4742 -0.4540
 7344TIP3    H243448   6.362   5.663  16.980 -1.2941 -0.8529 -0.6186
 7345TIP3   OH243449   2.830   0.038  16.284  1.1245 -0.1106  0.3615
 7345TIP3    H143450   2.864  -0.015  16.212  0.0976 -1.6536  0.9625
 7345TIP3    H243451   2.849  -0.012  16.363  0.4373  0.5782  0.9925
 7346TIP3   OH243452   1.700   2.223  10.465  0.0928 -0.1348 -0.0633
 7346TIP3    H143453   1.727   2.138  10.501  1.3663  0.5108  0.5862
 7346TIP3    H243454   1.709   2.284  10.539 -3.1218  0.2068  0.1841
 7347TIP3   OH243455   3.736   4.272  16.870 -0.0924 -0.8005  0.4255
 7347TIP3    H143456   3.781   4.187  16.877 -0.7525 -1.0715  1.5933
 7347TIP3    H243457   3.657   4.253  16.820  0.1202 -0.7261  0.0606
 7348TIP3   OH243458   6.228   3.037   2.578  0.2453 -0.6965 -0.1010
 7348TIP3    H143459   6.170   3.039   2.654  1.0882 -0.7114  0.5542
 7348TIP3    H243460   6.309   3.076   2.609  1.3904 -2.7644 -0.3170
 7349TIP3   OH243461   0.433   3.295   3.308  0.3513  0.0280 -0.0066
 7349TIP3    H143462   0.465   3.224   3.253  1.3279  0.4829 -0.0388
 7349TIP3    H243463   0.488   3.370   3.286 -1.1940  1.0568 -0.5853
 7350TIP3   OH243464   5.344   1.767   2.013  0.2436 -0.1688  0.0310
 7350TIP3    H143465   5.283   1.836   2.039 -0.1594  0.2223 -1.7623
 7350TIP3    H243466   5.407   1.761   2.084  0.2359  1.9931  0.2777
 7351TIP3   OH243467   5.191   0.344  17.161  0.5232 -0.2725 -0.6825
 7351TIP3    H143468   5.279   0.340  17.123  1.1243 -0.2337  0.6725
 7351TIP3    H243469   5.185   0.432  17.197  0.1958 -0.5116 -0.1445
 7352TIP3   OH243470   5.471   0.343  16.327 -0.1172 -0.2952  0.3884
 7352TIP3    H143471   5.515   0.285  16.389  0.8448 -1.7697 -1.5539
 7352TIP3    H243472   5.541   0.399  16.293 -0.4364 -0.1380 -0.0257
 7353TIP3   OH243473   5.395   4.806  15.501  0.0033 -0.8196  0.0021
 7353TIP3    H143474   5.356   4.893  15.503  0.7376 -0.4335 -1.3790
 7353TIP3    H243475   5.407   4.787  15.408 -1.0968 -2.8358  0.1868
 7354TIP3   OH243476   2.036   4.732   5.305 -0.6900  0.6016 -0.4651
 7354TIP3    H143477   1.947   4.696   5.311 -0.9244  1.3770  1.2541
 7354TIP3    H243478   2.044   4.788   5.382  0.6456  2.0106 -1.5741
 7355TIP3   OH243479   0.820   2.109   3.066 -0.7611 -0.1741  0.3851
 7355TIP3    H143480   0.781   2.114   3.154 -2.2120  0.0384 -0.2521
 7355TIP3    H243481   0.835   2.015   3.053  2.1882 -0.0501  1.9630
 7356TIP3   OH243482   6.267   2.426   0.473 -0.7373 -0.1511  0.5775
 7356TIP3    H143483   6.207   2.355   0.495 -0.8085 -0.2197  0.1630
 7356TIP3    H243484   6.354   2.389   0.486 -0.7692  0.2901  2.2891
 7357TIP3   OH243485   6.077   0.040  12.119 -0.3853  0.6717 -0.4976
 7357TIP3    H143486   6.138  -0.029  12.145 -0.0541  0.7705 -1.0013
 7357TIP3    H243487   6.079   0.040  12.023 -2.2271 -0.2465 -0.5787
 7358TIP3   OH243488   0.494   6.627   6.017  0.2445 -0.0051  0.2343
 7358TIP3    H143489   0.459   6.620   5.928  1.3985 -2.7217 -0.1044
 7358TIP3    H243490   0.490   6.538   6.052 -0.8628  1.0960  3.2433
 7359TIP3   OH243491   0.267   1.616  10.599  0.7189  0.0385  0.5496
 7359TIP3    H143492   0.286   1.703  10.634  1.1189 -1.0785  3.3520
 7359TIP3    H243493   0.350   1.569  10.605 -0.1908 -1.4491  2.0315
 7360TIP3   OH243494   1.619   3.098   1.875 -0.6321 -0.5860  0.1862
 7360TIP3    H143495   1.645   3.042   1.802 -1.4144 -0.6981 -0.0201
 7360TIP3    H243496   1.667   3.180   1.861 -0.7729 -0.6080 -0.4585
 7361TIP3   OH243497   0.882   0.254   4.701  0.6381 -0.2539 -0.3349
 7361TIP3    H143498   0.787   0.247   4.703  0.6240 -0.3013  2.3211
 7361TIP3    H243499   0.908   0.219   4.615 -1.5835 -2.0841 -0.3259
 7362TIP3   OH243500   0.188   5.416  13.745  0.8401 -0.4732 -0.0440
 7362TIP3    H143501   0.131   5.339  13.752 -0.8626  0.4553 -2.1343
 7362TIP3    H243502   0.276   5.382  13.757  0.0269 -2.4298  0.8521
 7363TIP3   OH243503   0.491   3.606  13.164  0.0459 -0.5687  0.0090
 7363TIP3    H143504   0.578   3.598  13.203  1.2518 -0.1194 -2.3829
 7363TIP3    H243505   0.483   3.529  13.108 -0.6883 -0.1044 -0.5446
 7364TIP3   OH243506   4.063   0.946   5.552 -0.6071 -0.0428 -0.0734
 7364TIP3    H143507   3.994   0.979   5.610 -0.6476  0.8547 -0.6032
 7364TIP3    H243508   4.129   0.910   5.611 -0.2902  1.5482  0.5888
 7365TIP3   OH243509   4.397   6.504   3.349 -0.5966 -0.0100 -0.2383
 7365TIP3    H143510   4.377   6.590   3.314 -0.2726 -0.0125 -0.4361
 7365TIP3    H243511   4.395   6.446   3.273  0.9860  0.1342 -0.4334
 7366TIP3   OH243512   6.274   6.250  13.728 -0.4149 -0.8605  0.2262
 7366TIP3    H143513   6.325   6.231  13.806  0.9395  0.8380 -0.2033
 7366TIP3    H243514   6.185   6.223  13.750  0.3396 -2.4270  1.5500
 7367TIP3   OH243515   6.354   6.742  15.381  0.2982 -0.2249  0.5724
 7367TIP3    H143516   6.268   6.701  15.393  0.1278 -0.0544 -0.0195
 7367TIP3    H243517   6.381   6.714  15.293 -0.2425  1.6702 -0.2527
 7368TIP3   OH243518   1.433   0.965   4.276 -0.4121  0.2134 -0.1181
 7368TIP3    H143519   1.438   0.952   4.371  0.4317 -1.7842 -0.3871
 7368TIP3    H243520   1.422   1.060   4.265 -0.2426  0.5145  1.9553
 7369TIP3   OH243521   1.578   2.959  14.233  0.2257 -0.5583  0.1730
 7369TIP3    H143522   1.504   2.984  14.289  1.3342 -1.5702  2.2046
 7369TIP3    H243523   1.578   3.024  14.163 -2.3263 -0.2981  0.3274
 7370TIP3   OH243524   6.658   4.384  16.562 -0.3227 -0.1200 -0.1812
 7370TIP3    H143525   6.569   4.368  16.532  0.0297 -1.2344 -0.6718
 7370TIP3    H243526   6.677   4.312  16.622  0.4845 -0.2772 -0.6033
 7371TIP3   OH243527   4.100   0.423   1.631  0.0792  0.2685 -1.4696
 7371TIP3    H143528   4.165   0.395   1.695 -1.8987 -2.0923 -0.3113
 7371TIP3    H243529   4.060   0.501   1.670 -0.2292 -0.4027 -0.4119
 7372TIP3   OH243530   2.004   1.394   2.216 -0.4044  0.7586  0.0215
 7372TIP3    H143531   2.060   1.361   2.287  0.3157 -1.3628 -1.4554
 7372TIP3    H243532   2.046   1.475   2.189  1.0561  0.0601  0.0617
 7373TIP3   OH243533   3.360   5.990  10.808 -0.1847 -0.1240 -0.1737
 7373TIP3    H143534   3.275   6.033  10.822  0.2096  0.0160  2.1390
 7373TIP3    H243535   3.422   6.042  10.858  0.6253 -2.2576  1.1871
 7374TIP3   OH243536   1.054   3.044  11.666  0.6008  1.0768 -0.1882
 7374TIP3    H143537   1.106   3.081  11.594  1.4893  1.8491  0.8170
 7374TIP3    H243538   1.022   3.121  11.714  2.3437  0.6105  1.8553
 7375TIP3   OH243539   6.366   2.529  14.907  0.0263 -0.6567 -0.5920
 7375TIP3    H143540   6.290   2.480  14.936 -0.3459 -0.1606 -0.7116
 7375TIP3    H243541   6.359   2.613  14.953  0.9028 -0.8827 -0.0257
 7376TIP3   OH243542   3.607   0.888   5.695 -0.2513  0.2068  0.1957
 7376TIP3    H143543   3.515   0.870   5.675 -0.1898  0.6833 -0.5683
 7376TIP3    H243544   3.627   0.831   5.769 -1.1459  0.0604  0.3375
 7377TIP3   OH243545   3.996   0.016   3.482  0.0092 -0.0049 -0.0725
 7377TIP3    H143546   4.077  -0.027   3.510 -0.0335  0.3223  0.5734
 7377TIP3    H243547   3.962  -0.040   3.412  0.0420 -0.9216  0.6298
 7378TIP3   OH243548   6.425   3.099   1.478  0.5887  0.0533 -0.0309
 7378TIP3    H143549   6.385   3.130   1.559  2.6874  1.4494  0.5587
 7378TIP3    H243550   6.416   3.171   1.416 -0.7261 -0.8888 -1.0060
 7379TIP3   OH243551   6.398   4.144  13.096  0.3856 -0.0076 -0.8979
 7379TIP3    H143552   6.376   4.059  13.059 -0.2470 -0.1194 -0.2905
 7379TIP3    H243553   6.315   4.191  13.101  0.3245 -0.2337  0.9205
 7380TIP3   OH243554   3.998   0.284   4.343  0.0925 -1.0319  0.7569
 7380TIP3    H143555   4.029   0.371   4.318 -1.5104 -0.5162  0.4662
 7380TIP3    H243556   3.929   0.264   4.279  1.7827 -3.4179 -0.5112
 7381TIP3   OH243557   5.953   2.740  16.055  0.0655 -0.8561  0.1486
 7381TIP3    H143558   5.943   2.722  15.962 -0.0768 -1.7969  0.3388
 7381TIP3    H243559   6.045   2.763  16.066 -0.3694  1.5703 -0.5831
 7382TIP3   OH243560   6.338   4.215   6.135  0.1658 -0.1607 -0.2606
 7382TIP3    H143561   6.297   4.232   6.051  0.1443  0.0785 -0.2025
 7382TIP3    H243562   6.423   4.257   6.130 -0.8136  2.1525  0.7582
 7383TIP3   OH243563   3.001   1.839   2.323 -0.1274 -0.2903 -0.7805
 7383TIP3    H143564   2.950   1.837   2.403  0.4285 -0.5961 -0.4268
 7383TIP3    H243565   3.014   1.933   2.304  0.2196 -0.2195 -0.2013
 7384TIP3   OH243566   3.245   2.993  15.616  0.2014  0.4809  0.1778
 7384TIP3    H143567   3.339   2.984  15.601 -0.0399 -1.0686 -0.6797
 7384TIP3    H243568   3.234   2.982  15.710  0.7978 -0.4106  0.1575
 7385TIP3   OH243569   3.622   5.534  11.197 -0.2812 -0.3813  0.2697
 7385TIP3    H143570   3.706   5.578  11.207  0.0053 -0.2209 -2.1403
 7385TIP3    H243571   3.645   5.441  11.190 -0.4097 -0.4364  0.5697
 7386TIP3   OH243572   5.885   2.844   1.883 -0.0800  1.0570 -0.0050
 7386TIP3    H143573   5.915   2.757   1.858 -1.2704  0.7309 -0.3167
 7386TIP3    H243574   5.833   2.875   1.809  1.4661  2.6357 -0.5157
 7387TIP3   OH243575   3.552   0.888   1.339 -0.9440 -0.6309  0.1952
 7387TIP3    H143576   3.542   0.815   1.277  0.3277 -0.2810 -0.4483
 7387TIP3    H243577   3.538   0.966   1.287 -0.4698 -0.3516  0.4845
 7388TIP3   OH243578   5.763   4.425  13.032 -0.2974 -0.0168  0.6473
 7388TIP3    H143579   5.724   4.339  13.017 -1.0845  0.3030  0.7667
 7388TIP3    H243580   5.837   4.409  13.090 -0.4774 -0.6077  0.7146
 7389TIP3   OH243581   0.197   1.728  17.077  0.1813  0.2040 -0.2224
 7389TIP3    H143582   0.182   1.763  16.990 -2.1556  0.3330  0.1601
 7389TIP3    H243583   0.177   1.801  17.136 -0.8312 -0.6068  0.4695
 7390TIP3   OH243584   0.800   2.533   6.523  0.2454  0.8997  0.1246
 7390TIP3    H143585   0.879   2.510   6.475  0.4012  1.5276  0.0754
 7390TIP3    H243586   0.774   2.619   6.489 -1.4698 -0.0421 -1.1402
 7391TIP3   OH243587   0.088   1.763   3.409 -0.2842 -0.0866  0.0947
 7391TIP3    H143588   0.067   1.690   3.468  1.2745  1.0743  2.2661
 7391TIP3    H243589   0.038   1.745   3.330 -2.1006 -2.0672  1.5466
 7392TIP3   OH243590   0.725   3.985   3.670  0.2406 -0.8350 -0.6054
 7392TIP3    H143591   0.810   3.964   3.709  0.1434  2.8665  2.1929
 7392TIP3    H243592   0.662   3.964   3.739 -0.2604  2.8875  0.2987
 7393TIP3   OH243593   3.143   3.941  15.814  0.3204  0.5851  0.0061
 7393TIP3    H143594   3.088   4.002  15.764  1.3422  1.2969 -0.2833
 7393TIP3    H243595   3.191   3.997  15.875 -0.0678 -0.1538  1.0089
 7394TIP3   OH243596   2.673   5.956  15.261 -0.2243  0.0017  0.0580
 7394TIP3    H143597   2.647   5.971  15.170 -0.5854 -1.1207 -0.0473
 7394TIP3    H243598   2.689   6.043  15.296 -0.0871  0.4549 -1.0786
 7395TIP3   OH243599   2.424   5.914   5.914 -0.2050 -0.1158  0.4098
 7395TIP3    H143600   2.392   5.830   5.881 -1.3972 -0.1869  1.6791
 7395TIP3    H243601   2.494   5.892   5.974 -1.2665 -0.3106  1.6169
 7396TIP3   OH243602   6.280   0.995   3.200 -0.1020 -0.3045 -0.1686
 7396TIP3    H143603   6.305   0.954   3.117  0.0950 -1.1276  0.2872
 7396TIP3    H243604   6.361   1.000   3.250 -0.3704 -0.6132  0.3099
 7397TIP3   OH243605   0.152   4.463   2.336  0.0340  0.2667  0.5803
 7397TIP3    H143606   0.070   4.454   2.289  0.1209  0.5197  0.3739
 7397TIP3    H243607   0.165   4.558   2.344 -0.4026  0.2423  1.8652
 7398TIP3   OH243608   2.425   4.016   5.628 -0.0379 -0.0030 -0.0392
 7398TIP3    H143609   2.437   4.000   5.722 -0.6567  0.3586  0.1070
 7398TIP3    H243610   2.348   3.965   5.604 -2.7393  3.3313  0.6820
 7399TIP3   OH243611   3.855   1.786   0.985  0.1594  0.1885  0.0068
 7399TIP3    H143612   3.926   1.841   1.020  0.6063 -0.7489  0.6190
 7399TIP3    H243613   3.779   1.808   1.040 -0.5411  2.4104 -1.6830
 7400TIP3   OH243614   4.378   6.645  13.216  0.1932  0.3484 -0.0305
 7400TIP3    H143615   4.453   6.692  13.252 -0.2581  0.4961  0.7597
 7400TIP3    H243616   4.316   6.641  13.289 -0.2179 -0.5189 -0.4089
 7401TIP3   OH243617   3.737   2.599   0.134  0.7818 -0.0010  0.2652
 7401TIP3    H143618   3.745   2.670   0.070 -0.3772  0.3787  0.5091
 7401TIP3    H243619   3.814   2.607   0.189  1.3359  0.2340 -0.5204
 7402TIP3   OH243620   1.448   6.074   6.765  0.3927 -0.5577  0.0876
 7402TIP3    H143621   1.359   6.074   6.800  0.2155 -0.3724 -0.3601
 7402TIP3    H243622   1.503   6.098   6.840  0.0268 -0.2602  0.2629
 7403TIP3   OH243623   6.776   5.381   2.905  0.0731 -0.0243  0.0280
 7403TIP3    H143624   6.741   5.365   2.817 -0.0139  0.0900  0.0412
 7403TIP3    H243625   6.703   5.419   2.953  0.5786  1.4931 -0.3275
 7404TIP3   OH243626   5.956   2.128  14.779  0.7877  0.2656  0.6290
 7404TIP3    H143627   5.945   2.111  14.686  1.1963 -0.6259  0.7283
 7404TIP3    H243628   5.921   2.216  14.792 -0.2272 -0.0013 -0.1708
 7405TIP3   OH243629   2.877   1.190  13.677 -0.4088 -0.0384  0.1362
 7405TIP3    H143630   2.785   1.204  13.653 -0.0740 -0.4347 -1.4528
 7405TIP3    H243631   2.878   1.102  13.714 -0.5368 -0.4022 -0.6935
 7406TIP3   OH243632   5.958   4.406  15.704 -0.6723  0.3818  0.1078
 7406TIP3    H143633   5.926   4.376  15.619  0.0164  1.4547 -0.5477
 7406TIP3    H243634   5.890   4.379  15.766 -0.6200 -1.4748 -0.5921
 7407TIP3   OH243635   0.922   2.988  11.283 -0.0908  0.0703 -0.7106
 7407TIP3    H143636   0.886   2.995  11.372  1.1894  1.9497 -0.2810
 7407TIP3    H243637   0.881   3.060  11.235  0.5475  0.1507 -1.1405
 7408TIP3   OH243638   5.999   1.885  16.976  0.3119 -0.3363 -0.3235
 7408TIP3    H143639   5.977   1.856  17.064  0.4606 -0.5564 -0.3577
 7408TIP3    H243640   6.003   1.804  16.924  1.5910 -0.3561 -0.2297
 7409TIP3   OH243641   2.190   2.154   4.927  0.4650  0.5698 -0.2061
 7409TIP3    H143642   2.200   2.173   5.020 -0.1642 -3.8037  0.9964
 7409TIP3    H243643   2.096   2.137   4.916  0.9344 -2.2035 -0.7227
 7410TIP3   OH243644   1.314   3.832  11.219  0.0016 -0.1504  0.1986
 7410TIP3    H143645   1.340   3.871  11.135  0.7266 -0.1489  0.4206
 7410TIP3    H243646   1.275   3.904  11.268 -1.2071 -0.3273 -0.4403
 7411TIP3   OH243647   6.523   0.382   0.152  0.2707  0.2242  0.1114
 7411TIP3    H143648   6.543   0.305   0.206  0.4259  0.3145  0.1831
 7411TIP3    H243649   6.496   0.345   0.068  0.3113  0.0892  0.1564
 7412TIP3   OH243650   3.792   2.476  12.438  0.0533  0.3640  0.1367
 7412TIP3    H143651   3.819   2.423  12.513  1.6088 -0.4278 -0.9133
 7412TIP3    H243652   3.837   2.560  12.450 -0.7785  0.7239  0.7652
 7413TIP3   OH243653   5.588   3.449   3.811  0.4862 -0.0755  0.1837
 7413TIP3    H143654   5.544   3.382   3.759  0.5528  0.0327 -0.0132
 7413TIP3    H243655   5.634   3.503   3.746  1.3148 -0.4819  0.4219
 7414TIP3   OH243656   4.138   0.683  13.727  0.2465 -0.0195 -0.2152
 7414TIP3    H143657   4.050   0.648  13.709  0.9075 -0.3284 -3.5352
 7414TIP3    H243658   4.193   0.605  13.735  0.4925  0.1918  0.1465
 7415TIP3   OH243659   3.835   5.807  12.622  0.5721  0.3820 -0.0025
 7415TIP3    H143660   3.888   5.857  12.685 -0.0479 -1.0783  1.7870
 7415TIP3    H243661   3.746   5.841  12.634  0.4317  0.0137 -0.0066
 7416TIP3   OH243662   4.586   6.626   4.264 -0.0446 -0.4763 -0.5165
 7416TIP3    H143663   4.615   6.536   4.273 -0.3650 -0.5244  0.0490
 7416TIP3    H243664   4.642   6.675   4.324 -0.4945 -0.4357 -0.1245
 7417TIP3   OH243665   0.132   4.074   4.840 -0.1567  0.0379 -0.0015
 7417TIP3    H143666   0.071   4.002   4.824 -1.0814  0.8996 -0.4406
 7417TIP3    H243667   0.105   4.110   4.924  1.7630 -1.5284  1.4058
 7418TIP3   OH243668   2.745   5.957   4.662  0.0614  0.1912  0.3296
 7418TIP3    H143669   2.814   5.891   4.648 -0.7389 -1.2697  2.7232
 7418TIP3    H243670   2.664   5.906   4.664 -0.6042  1.2479  2.1276
 7419TIP3   OH243671   6.331   0.569   4.220 -0.2413  0.2621  0.3130
 7419TIP3    H143672   6.277   0.496   4.253 -1.0466  0.2889 -0.8743
 7419TIP3    H243673   6.412   0.527   4.191 -1.0414 -0.3176 -1.1664
 7420TIP3   OH243674   1.061   5.361  13.466  1.1069  0.4052  0.1626
 7420TIP3    H143675   0.974   5.384  13.434  1.6302  1.7482 -0.3926
 7420TIP3    H243676   1.083   5.432  13.527  0.9521 -1.0590  2.0327
 7421TIP3   OH243677   0.012   4.405  14.747 -0.1476 -0.2143  0.0102
 7421TIP3    H143678   0.067   4.352  14.689  1.5297  0.0279  1.3117
 7421TIP3    H243679  -0.039   4.461  14.688  0.8682 -0.5733 -1.2479
 7422TIP3   OH243680   4.065   3.886  15.842  0.3514  0.1115  0.0958
 7422TIP3    H143681   4.086   3.833  15.919 -2.4138 -0.4634  0.5735
 7422TIP3    H243682   4.078   3.827  15.768  1.3844  0.1430  0.2334
 7423TIP3   OH243683   3.269   4.822  16.560  0.5268  0.4315  0.7547
 7423TIP3    H143684   3.339   4.764  16.589  0.1081 -0.6345 -0.2754
 7423TIP3    H243685   3.281   4.827  16.465 -0.9018  0.0582  0.5357
 7424TIP3   OH243686   0.620   1.585  12.345 -0.1737 -0.6814 -0.1592
 7424TIP3    H143687   0.624   1.618  12.435  1.6438  0.1834 -0.5327
 7424TIP3    H243688   0.657   1.655  12.291 -2.3807 -0.6480 -1.7786
 7425TIP3   OH243689   0.840   6.582   1.142 -0.5062 -0.0130 -0.1742
 7425TIP3    H143690   0.812   6.662   1.186  0.8326  0.3369  0.0812
 7425TIP3    H243691   0.872   6.525   1.212 -1.0096 -0.5913 -0.4015
 7426TIP3   OH243692   4.865   5.826  13.810  0.0506  0.0347  0.1656
 7426TIP3    H143693   4.894   5.744  13.770  0.7467  0.3523 -0.0015
 7426TIP3    H243694   4.773   5.810  13.833  0.0426 -0.6311 -0.2818
 7427TIP3   OH243695   3.426   0.215   3.017 -0.1415 -0.0111  0.2087
 7427TIP3    H143696   3.423   0.120   3.030 -1.4100 -0.0998 -0.5932
 7427TIP3    H243697   3.377   0.250   3.092  0.2477  0.0144  0.4548
 7428TIP3   OH243698   5.850   0.825   2.734  0.2951 -0.1983 -0.0132
 7428TIP3    H143699   5.864   0.863   2.821 -1.0374  0.8048 -0.2085
 7428TIP3    H243700   5.915   0.868   2.678  0.5126 -0.1359  0.2838
 7429TIP3   OH243701   2.388   0.985   6.569 -0.1111 -0.5096  0.3574
 7429TIP3    H143702   2.422   0.941   6.646 -2.6563  0.7885  2.3959
 7429TIP3    H243703   2.390   1.078   6.592  0.9947  0.1366 -2.0382
 7430TIP3   OH243704   2.335   1.089  12.161 -0.0943  0.1832 -0.5962
 7430TIP3    H143705   2.419   1.129  12.142  0.5468 -0.6592  0.3716
 7430TIP3    H243706   2.279   1.114  12.088  1.7719 -1.5319 -2.7642
 7431TIP3   OH243707   1.633   0.428  14.621  0.0408  0.4254 -0.6052
 7431TIP3    H143708   1.603   0.498  14.562  0.6531 -0.0089 -1.4487
 7431TIP3    H243709   1.563   0.362  14.617 -0.1592  0.6258 -0.4401
 7432TIP3   OH243710   6.333   5.085  13.161  0.3716 -0.1266  0.3565
 7432TIP3    H143711   6.406   5.031  13.130 -0.4997 -1.1280 -0.0408
 7432TIP3    H243712   6.330   5.159  13.100  3.3263  2.0070  2.5074
 7433TIP3   OH243713   5.076   1.880  16.071 -0.0436 -0.4195  0.3266
 7433TIP3    H143714   4.996   1.889  16.019  0.0252 -0.3324  0.2340
 7433TIP3    H243715   5.052   1.820  16.142  0.2816 -1.7764 -0.6707
 7434TIP3   OH243716   3.697   3.253  16.916  0.0759 -0.2632 -0.6100
 7434TIP3    H143717   3.712   3.254  17.011 -0.3942 -1.0573 -0.5141
 7434TIP3    H243718   3.641   3.328  16.900  2.0476  1.2725 -0.6147
 7435TIP3   OH243719   2.311   1.569  16.521 -0.4535 -0.3937 -0.8822
 7435TIP3    H143720   2.369   1.600  16.590 -1.2549  0.0363 -0.3840
 7435TIP3    H243721   2.281   1.484  16.550 -1.6076  0.2280 -0.1688
 7436TIP3   OH243722   6.609   1.583  17.031  0.8155  0.8871  0.0047
 7436TIP3    H143723   6.634   1.548  16.946 -0.9491 -1.5159  0.3556
 7436TIP3    H243724   6.519   1.613  17.019  0.9493  1.6237  0.7458
 7437TIP3   OH243725   3.808   5.325  15.618  0.0054  0.1086  0.2154
 7437TIP3    H143726   3.827   5.233  15.636  0.1725  0.2145  0.5847
 7437TIP3    H243727   3.721   5.324  15.578 -0.3088 -0.1442  0.9046
 7438TIP3   OH243728   3.904   5.760   5.793 -0.2853  0.0413 -0.1905
 7438TIP3    H143729   3.863   5.845   5.801  1.5375  0.9481  0.0068
 7438TIP3    H243730   3.995   5.774   5.818  0.4129 -1.6488 -1.5225
 7439TIP3   OH243731   1.617   5.103  13.307  0.0809 -0.0277  0.5778
 7439TIP3    H143732   1.526   5.124  13.331 -0.7904 -1.3594 -1.3171
 7439TIP3    H243733   1.615   5.010  13.283  1.3478  0.5354 -2.0267
 7440TIP3   OH243734   4.469   1.768  14.220 -0.1731 -0.0901  0.0665
 7440TIP3    H143735   4.492   1.731  14.305  0.4922 -0.7263 -0.3786
 7440TIP3    H243736   4.375   1.750  14.211 -0.5824  1.2533  1.2696
 7441TIP3   OH243737   3.352   2.960   6.127 -0.0538 -0.4239 -0.0494
 7441TIP3    H143738   3.295   2.999   6.193  0.6740  1.6689 -0.5652
 7441TIP3    H243739   3.441   2.979   6.157  0.3573 -1.9528 -0.2202
 7442TIP3   OH243740   4.819   1.417  12.383  0.2955 -0.3679  0.1514
 7442TIP3    H143741   4.751   1.451  12.325  0.7891 -0.3588 -0.4364
 7442TIP3    H243742   4.901   1.448  12.344  0.6121  0.1116  1.1662
 7443TIP3   OH243743   3.970   2.488   6.380  0.4574  0.0513 -0.5370
 7443TIP3    H143744   4.058   2.475   6.414  0.7941  0.2902 -1.3041
 7443TIP3    H243745   3.937   2.565   6.426  0.4340 -0.3761  0.1645
 7444TIP3   OH243746   4.789   5.490  13.596  1.0276  0.3090  0.0130
 7444TIP3    H143747   4.767   5.439  13.518  1.7713  0.1495 -0.0953
 7444TIP3    H243748   4.824   5.572  13.563 -0.4868  1.0664  0.1844
 7445TIP3   OH243749   2.334   4.151   4.450  0.5835  0.1690  0.4164
 7445TIP3    H143750   2.274   4.209   4.497 -1.0676 -1.9271  1.0193
 7445TIP3    H243751   2.279   4.081   4.416  1.9850  0.5602 -3.1110
 7446TIP3   OH243752   0.408   0.901   6.488 -0.2604 -0.2069 -0.6641
 7446TIP3    H143753   0.463   0.946   6.552  0.7011 -0.9522 -0.9569
 7446TIP3    H243754   0.449   0.918   6.404 -1.0271  0.0272 -1.0057
 7447TIP3   OH243755   3.865   2.366   1.579 -0.8842 -0.0377  0.0959
 7447TIP3    H143756   3.935   2.428   1.558  0.2897 -1.9359 -2.0601
 7447TIP3    H243757   3.892   2.327   1.663  0.5101 -0.4609 -0.5092
 7448TIP3   OH243758   2.301   1.054   1.197  0.5532  0.2224 -0.3638
 7448TIP3    H143759   2.336   1.141   1.217  1.8462 -0.3119 -0.1688
 7448TIP3    H243760   2.370   0.994   1.226 -0.7166 -0.9223  0.4257
 7449TIP3   OH243761   0.642   2.001  16.559 -0.1812  0.5546 -0.3385
 7449TIP3    H143762   0.569   1.976  16.502 -1.4539  1.1036  0.9867
 7449TIP3    H243763   0.625   1.955  16.642  0.4266  1.4711  0.3142
 7450TIP3   OH243764   3.840   6.619   5.573  0.9490  0.1021 -0.3523
 7450TIP3    H143765   3.829   6.567   5.494 -0.8485 -0.8674  0.4703
 7450TIP3    H243766   3.816   6.560   5.644 -1.3139  2.0602  0.6318
 7451TIP3   OH243767   1.945   4.161   1.822 -0.0975 -0.7665 -0.3789
 7451TIP3    H143768   1.894   4.238   1.796 -0.3934 -0.1697  1.7671
 7451TIP3    H243769   2.033   4.179   1.789 -0.2608  0.3229 -0.2582
 7452TIP3   OH243770   5.378   3.503   6.300  0.9868 -0.1758 -0.0497
 7452TIP3    H143771   5.470   3.476   6.301  1.2546  0.4765  2.9793
 7452TIP3    H243772   5.381   3.598   6.288  0.4896 -0.3688 -2.2472
 7453TIP3   OH243773   3.114   2.094   2.268  0.0463 -0.1784  0.4932
 7453TIP3    H143774   3.165   2.133   2.340  1.8347  1.0450 -1.3175
 7453TIP3    H243775   3.046   2.159   2.249  0.2795  0.0288  0.3574
 7454TIP3   OH243776   3.855   4.832  12.351 -0.2079  0.1134  0.0760
 7454TIP3    H143777   3.852   4.738  12.370  1.6650  0.0563  0.2314
 7454TIP3    H243778   3.851   4.837  12.255  0.0437 -0.1408  0.0518
 7455TIP3   OH243779   0.007   6.671   4.329  0.3002  0.1813  0.5488
 7455TIP3    H143780   0.051   6.635   4.252  0.3974  1.9716 -0.2924
 7455TIP3    H243781  -0.017   6.760   4.303 -1.6343  0.0947  1.8418
 7456TIP3   OH243782   3.279   2.280  17.241 -0.5039  0.9822  0.0257
 7456TIP3    H143783   3.189   2.280  17.208 -0.1222  2.3251 -1.0988
 7456TIP3    H243784   3.326   2.221  17.182 -1.2284 -2.6216  2.6513
 7457TIP3   OH243785   4.335   0.217   0.939 -0.6876 -0.1128 -0.0070
 7457TIP3    H143786   4.326   0.312   0.938  0.0443 -0.0349 -1.5464
 7457TIP3    H243787   4.252   0.185   0.975  0.2896  1.1781  3.9825
 7458TIP3   OH243788   0.177   6.617   3.878  0.6363  0.5615  0.1498
 7458TIP3    H143789   0.157   6.664   3.959  0.3770  0.2105  0.2908
 7458TIP3    H243790   0.136   6.669   3.810  1.2427  1.1066  0.1907
 7459TIP3   OH243791   6.009   4.241  13.329 -0.0804 -0.1798  0.4500
 7459TIP3    H143792   6.080   4.197  13.376 -0.6013 -0.3079  1.1360
 7459TIP3    H243793   5.929   4.204  13.367 -0.5304 -0.6406 -0.8661
 7460TIP3   OH243794   1.885   3.126  17.153  0.4182 -0.2101 -0.1430
 7460TIP3    H143795   1.902   3.148  17.061  0.5317 -1.3401 -0.4083
 7460TIP3    H243796   1.826   3.195  17.184 -0.6600 -0.5188 -1.4318
 7461TIP3   OH243797   1.429   5.969   2.673 -0.5200 -0.2271  0.1795
 7461TIP3    H143798   1.356   5.973   2.734  0.3777 -1.7814  1.4293
 7461TIP3    H243799   1.416   5.888   2.624 -0.1018 -0.0717 -0.1995
 7462TIP3   OH243800   3.081   5.176   3.265  0.4644 -0.3794  0.5748
 7462TIP3    H143801   3.079   5.251   3.325 -1.2410  0.1650 -0.0931
 7462TIP3    H243802   3.026   5.203   3.192 -1.7797 -2.9422  1.1419
 7463TIP3   OH243803   1.759   2.144  13.338  1.2448  0.0529 -0.2516
 7463TIP3    H143804   1.854   2.154  13.335  1.2959 -0.1423  0.5207
 7463TIP3    H243805   1.745   2.056  13.371  0.7930  0.1952 -0.0593
 7464TIP3   OH243806   0.593   5.032   3.416  0.0696 -0.3519  0.4184
 7464TIP3    H143807   0.563   5.005   3.503 -1.1555 -0.8941 -0.1581
 7464TIP3    H243808   0.515   5.065   3.373  0.9547  1.4276  0.0521
 7465TIP3   OH243809   1.871   6.777  14.066  0.7656 -0.1006 -0.1516
 7465TIP3    H143810   1.790   6.797  14.019  1.0238 -0.7148 -0.8597
 7465TIP3    H243811   1.903   6.863  14.094  0.1874  0.1996 -0.3862
 7466TIP3   OH243812   3.598   3.146   5.601 -0.0928  0.5511 -0.3140
 7466TIP3    H143813   3.518   3.097   5.582  0.0185 -0.0629  0.7107
 7466TIP3    H243814   3.597   3.156   5.697  1.7730 -0.7416 -0.1072
 7467TIP3   OH243815   2.113   6.594   3.218 -0.2507  0.0035 -0.5144
 7467TIP3    H143816   2.071   6.600   3.132  0.2438 -1.8275 -0.9323
 7467TIP3    H243817   2.206   6.584   3.198 -0.1313 -0.4248  0.2291
 7468TIP3   OH243818   0.538   5.866  13.440  0.4810 -0.0329  0.1295
 7468TIP3    H143819   0.461   5.842  13.492 -0.0045  2.1175  0.4874
 7468TIP3    H243820   0.503   5.913  13.365  1.4060  0.2163 -0.1599
 7469TIP3   OH243821   0.841   3.100   5.144 -0.1521 -0.4541 -0.0475
 7469TIP3    H143822   0.936   3.103   5.158 -0.1292 -0.2307 -0.2399
 7469TIP3    H243823   0.813   3.018   5.185  0.1992 -0.7745 -0.4404
 7470TIP3   OH243824   2.505   3.724  13.234  0.6690  0.3845  0.2863
 7470TIP3    H143825   2.543   3.669  13.303  1.8591 -1.4350 -1.6921
 7470TIP3    H243826   2.579   3.745  13.177 -0.6135 -0.0512 -1.6283
 7471TIP3   OH243827   0.493   6.760  15.238  0.0499  0.2259  0.0780
 7471TIP3    H143828   0.549   6.686  15.218 -0.6147 -0.1900 -0.3060
 7471TIP3    H243829   0.544   6.815  15.296  1.9698  1.3068 -2.4434
 7472TIP3   OH243830   3.440   4.826   1.458  0.4005  0.4081  0.3794
 7472TIP3    H143831   3.423   4.894   1.523 -1.2625  0.2685  0.1239
 7472TIP3    H243832   3.361   4.822   1.405 -0.0654 -2.5557  1.1205
 7473TIP3   OH243833   0.574   0.348   5.779 -0.7067 -0.2656  0.2124
 7473TIP3    H143834   0.613   0.354   5.866 -1.6312 -0.0399  0.6219
 7473TIP3    H243835   0.542   0.258   5.773  0.1945 -0.5718 -0.2768
 7474TIP3   OH243836   1.451   0.935  15.987  0.2457 -0.0988 -0.0761
 7474TIP3    H143837   1.356   0.935  15.989  0.2040  0.4444 -1.1866
 7474TIP3    H243838   1.477   0.978  16.068 -0.4609  0.0219  0.0909
 7475TIP3   OH243839   0.566   5.822  15.431  0.4094 -0.4048  0.0237
 7475TIP3    H143840   0.548   5.809  15.337 -0.3275  1.4544 -0.1327
 7475TIP3    H243841   0.479   5.820  15.472  0.7258 -1.1614  0.6899
 7476TIP3   OH243842   5.642   0.257   5.601 -0.3352 -0.0368 -0.0374
 7476TIP3    H143843   5.597   0.298   5.527 -1.9229  0.4080  1.1319
 7476TIP3    H243844   5.573   0.213   5.650  0.3466  1.2643  2.1970
 7477TIP3   OH243845   6.609   6.423  11.509  0.1944 -0.2174  0.4368
 7477TIP3    H143846   6.520   6.399  11.484  1.0098 -1.0654 -1.9520
 7477TIP3    H243847   6.617   6.515  11.483  0.0209 -0.1570  0.6004
 7478TIP3   OH243848   5.183   3.665  12.267  0.0357 -0.1366 -0.3119
 7478TIP3    H143849   5.200   3.744  12.318 -0.4373 -0.2624  0.0407
 7478TIP3    H243850   5.268   3.644  12.229 -0.2551  1.8046 -2.2515
 7479TIP3   OH243851   1.451   1.183   6.342 -0.1631 -0.0825 -0.5267
 7479TIP3    H143852   1.436   1.088   6.342 -0.9939 -0.0287  1.9322
 7479TIP3    H243853   1.545   1.193   6.328  0.3900 -1.4609  1.7414
 7480TIP3   OH243854   3.339   0.979  14.770 -0.5033 -0.0846 -0.0910
 7480TIP3    H143855   3.294   1.063  14.783  0.7835  0.4727  1.0450
 7480TIP3    H243856   3.290   0.917  14.824 -1.4893 -0.0917 -0.9724
 7481TIP3   OH243857   2.767   0.330  10.502 -0.6635 -0.3515 -0.2369
 7481TIP3    H143858   2.811   0.397  10.555 -1.1171 -0.8897  0.8402
 7481TIP3    H243859   2.677   0.328  10.535 -1.6667  0.9760 -2.6361
 7482TIP3   OH243860   2.297   0.916   0.370 -0.3485 -0.5430  0.6293
 7482TIP3    H143861   2.304   0.942   0.278  0.1431 -0.1097  0.7800
 7482TIP3    H243862   2.329   0.826   0.372  1.2588 -0.0034  0.6209
 7483TIP3   OH243863   0.302   1.909  14.570  0.7448 -0.2041  0.4342
 7483TIP3    H143864   0.367   1.913  14.500  0.6632 -0.8193  0.3177
 7483TIP3    H243865   0.254   1.828  14.554  0.9652 -0.5482  1.4078
 7484TIP3   OH243866   5.467   5.271   0.286  0.4122 -0.2548  0.1253
 7484TIP3    H143867   5.523   5.295   0.360 -1.0454  2.3296  0.4799
 7484TIP3    H243868   5.497   5.327   0.214 -1.6846  1.2458  0.3489
 7485TIP3   OH243869   6.175   4.960   5.606  0.3744 -0.6571 -0.5651
 7485TIP3    H143870   6.116   4.930   5.675  0.8620 -1.4212 -0.4618
 7485TIP3    H243871   6.180   4.886   5.545  0.4422 -0.2247 -1.0843
 7486TIP3   OH243872   0.820   2.649   4.847 -0.1719 -0.1169 -0.1250
 7486TIP3    H143873   0.735   2.660   4.890  0.6352  2.0863  1.0297
 7486TIP3    H243874   0.880   2.624   4.918  1.0844  3.1499  0.1309
 7487TIP3   OH243875   0.926   2.845   3.258  0.6974  0.1680 -0.2587
 7487TIP3    H143876   0.861   2.911   3.285  0.7808  0.0850  0.1488
 7487TIP3    H243877   0.948   2.799   3.339 -1.8796 -2.6697 -0.9682
 7488TIP3   OH243878   5.026   2.075  11.364 -0.0798 -0.0724 -0.0872
 7488TIP3    H143879   5.089   2.143  11.386 -0.5865 -0.4509  3.0377
 7488TIP3    H243880   4.964   2.075  11.437 -0.2694 -3.6140 -0.0399
 7489TIP3   OH243881   4.921   3.003   4.888 -0.3077  0.0379  0.0500
 7489TIP3    H143882   4.991   3.058   4.925  0.0202  0.0198 -0.5312
 7489TIP3    H243883   4.946   2.992   4.796 -0.4742 -0.9230  0.1109
 7490TIP3   OH243884   6.333   0.252  14.665  0.1289  0.1729 -0.1579
 7490TIP3    H143885   6.274   0.306  14.717  0.0652 -0.2958  0.2685
 7490TIP3    H243886   6.335   0.168  14.711  0.1187 -0.2321 -0.8790
 7491TIP3   OH243887   4.276   5.978   4.746  0.1804  0.0592  0.1040
 7491TIP3    H143888   4.257   5.957   4.655 -1.7415  1.0660  0.2235
 7491TIP3    H243889   4.289   5.893   4.789  0.6474 -0.4339 -0.9881
 7492TIP3   OH243890   6.186   4.410  14.305  0.0048  0.1491 -0.2552
 7492TIP3    H143891   6.166   4.424  14.213 -0.3003  1.6935  0.0159
 7492TIP3    H243892   6.278   4.381  14.305  0.8017  2.4737 -0.9337
 7493TIP3   OH243893   3.302   4.964   2.914  0.4812  0.4000  0.3202
 7493TIP3    H143894   3.360   4.892   2.889  0.1977  0.3166 -0.1091
 7493TIP3    H243895   3.250   4.981   2.836  1.9597  2.4513 -0.3178
 7494TIP3   OH243896   6.557   2.632  15.189 -0.6256 -0.2775 -0.2798
 7494TIP3    H143897   6.639   2.623  15.140 -0.8946 -2.7043 -0.4198
 7494TIP3    H243898   6.495   2.669  15.126 -0.0397  0.0754 -0.6527
 7495TIP3   OH243899   1.215   6.184   2.107 -0.2854  0.6178  0.0989
 7495TIP3    H143900   1.258   6.099   2.101  0.0392  0.7723  0.1645
 7495TIP3    H243901   1.228   6.210   2.198  0.0946  0.9796 -0.0556
 7496TIP3   OH243902   4.640   4.603  13.110  0.2548 -0.7186 -0.3313
 7496TIP3    H143903   4.659   4.638  13.198  1.6467 -0.9246 -0.5291
 7496TIP3    H243904   4.673   4.514  13.112 -0.6250 -1.0669 -0.7651
 7497TIP3   OH243905   2.624   0.011  13.285  0.5326  0.0152 -0.4251
 7497TIP3    H143906   2.585   0.024  13.199  0.5950  2.0749 -0.2077
 7497TIP3    H243907   2.595  -0.076  13.312 -1.6780  0.3622 -1.4109
 7498TIP3   OH243908   2.394   6.274   4.943 -1.2459 -0.0726  0.2227
 7498TIP3    H143909   2.432   6.362   4.946  0.5103 -0.7342 -1.0616
 7498TIP3    H243910   2.435   6.228   5.017 -1.0528 -0.2287  0.0185
 7499TIP3   OH243911   0.230   6.078  16.088 -0.1396  0.0064 -0.8632
 7499TIP3    H143912   0.196   6.150  16.142 -2.5107 -2.6622  1.5452
 7499TIP3    H243913   0.304   6.044  16.138 -1.4868 -1.6056  0.1463
 7500TIP3   OH243914   1.605   0.330  15.200  0.6868 -0.2497 -0.0406
 7500TIP3    H143915   1.684   0.292  15.240  1.3928 -0.6332 -1.7168
 7500TIP3    H243916   1.591   0.278  15.121  0.1377  1.3127 -1.0234
 7501TIP3   OH243917   5.499   6.467  15.658  0.1914 -0.1246 -0.0376
 7501TIP3    H143918   5.535   6.385  15.693  1.0036  0.4501  0.5193
 7501TIP3    H243919   5.514   6.531  15.728 -0.9281  0.3858 -0.2458
 7502TIP3   OH243920   6.166   5.867  17.207 -0.1576  0.0364 -0.8429
 7502TIP3    H143921   6.157   5.772  17.219 -0.1878  0.0155 -1.0319
 7502TIP3    H243922   6.105   5.887  17.136 -1.0703  0.3818  0.0152
 7503TIP3   OH243923   2.584   2.613   4.371  0.0282 -0.4861  0.7497
 7503TIP3    H143924   2.493   2.587   4.379 -0.5874  0.4889 -2.1665
 7503TIP3    H243925   2.625   2.543   4.319  0.9149 -0.7708  1.7872
 7504TIP3   OH243926   3.152   4.349  15.847 -0.0944  0.1560 -0.0986
 7504TIP3    H143927   3.229   4.390  15.807 -0.0828 -0.7754 -1.0682
 7504TIP3    H243928   3.188   4.279  15.902 -0.2099  0.2298  0.0710
 7505TIP3   OH243929   6.644   4.171   2.807 -0.1661  0.6548 -0.4710
 7505TIP3    H143930   6.729   4.130   2.794  0.0044  1.3735 -1.9019
 7505TIP3    H243931   6.581   4.107   2.772 -0.1118  0.6150 -0.4959
 7506TIP3   OH243932   1.905   2.125   0.235 -0.0611 -0.0339 -0.1149
 7506TIP3    H143933   1.994   2.158   0.249  0.0254 -0.5231  0.5756
 7506TIP3    H243934   1.900   2.046   0.289 -0.4875 -0.7638 -1.1993
 7507TIP3   OH243935   4.164   1.835   6.041  0.1956 -0.2200  0.3691
 7507TIP3    H143936   4.242   1.877   6.077  0.2021  1.2856 -1.2749
 7507TIP3    H243937   4.101   1.837   6.112  1.4383 -0.9546  1.5535
 7508TIP3   OH243938   2.570   3.229   4.943 -0.5064 -0.0806  0.2783
 7508TIP3    H143939   2.625   3.154   4.967 -2.3364 -2.2297 -1.7102
 7508TIP3    H243940   2.618   3.272   4.872 -0.4015 -0.7205 -0.0544
 7509TIP3   OH243941   1.461   0.532   4.447  0.1304  0.6105 -0.1878
 7509TIP3    H143942   1.515   0.604   4.480 -0.4190  0.9278  0.0286
 7509TIP3    H243943   1.374   0.550   4.481  0.3971 -1.3060  1.6989
 7510TIP3   OH243944   5.625   3.462   1.687 -0.6585 -0.1569  0.1153
 7510TIP3    H143945   5.536   3.429   1.673 -0.4505 -0.4350 -0.5940
 7510TIP3    H243946   5.674   3.431   1.612 -0.2708  1.1315 -0.1937
 7511TIP3   OH243947   0.529   3.605   1.223 -0.4066  0.0537 -0.6611
 7511TIP3    H143948   0.472   3.673   1.189  0.4766  0.2171 -1.8793
 7511TIP3    H243949   0.478   3.562   1.292 -1.2631  1.4204 -0.4247
 7512TIP3   OH243950   1.462   1.042  16.225  0.3423  0.1756  0.1174
 7512TIP3    H143951   1.427   1.131  16.216 -1.9865 -0.7533 -1.0262
 7512TIP3    H243952   1.398   0.997  16.280  1.0680 -0.9968  0.0356
 7513TIP3   OH243953   5.209   1.293   6.665 -0.1746 -0.3416 -0.0777
 7513TIP3    H143954   5.279   1.253   6.612 -0.9227 -0.8833 -0.6743
 7513TIP3    H243955   5.225   1.387   6.659  0.9219 -0.4776  0.3820
 7514TIP3   OH243956   3.562   5.636   0.688 -0.5719 -0.0116 -0.3392
 7514TIP3    H143957   3.517   5.627   0.772  1.5149 -0.3463  0.8323
 7514TIP3    H243958   3.493   5.654   0.625 -2.1689  0.8278  1.5427
 7515TIP3   OH243959   4.468   6.450  16.766  0.3183  0.4380  0.9289
 7515TIP3    H143960   4.407   6.518  16.795 -0.3858 -1.1606  3.5591
 7515TIP3    H243961   4.413   6.387  16.721  0.7772  0.9841 -0.4395
 7516TIP3   OH243962   6.481   0.926  16.389  0.0905 -0.4996 -0.3456
 7516TIP3    H143963   6.559   0.929  16.334  0.4935 -0.9466  0.1802
 7516TIP3    H243964   6.408   0.947  16.330  0.7700  1.5880 -0.5047
 7517TIP3   OH243965   0.069   5.917  15.292  0.0022  0.6724 -0.1375
 7517TIP3    H143966   0.069   5.866  15.212 -1.9971  0.2294  0.1062
 7517TIP3    H243967  -0.003   5.980  15.281 -1.8839 -0.8968  2.1649
 7518TIP3   OH243968   2.868   6.170  11.541 -0.1343  0.0748  0.3142
 7518TIP3    H143969   2.834   6.088  11.504  1.0731 -0.8900  1.2298
 7518TIP3    H243970   2.951   6.184  11.494 -1.5089  2.2073 -1.6596
 7519TIP3   OH243971   6.464   5.937  11.357 -0.3411  0.3970  0.3728
 7519TIP3    H143972   6.479   5.843  11.361 -3.0216 -0.0892  0.4054
 7519TIP3    H243973   6.436   5.961  11.446  1.2450  1.4576  0.6370
 7520TIP3   OH243974   3.587   4.291   3.479  0.2039  0.9445  0.6417
 7520TIP3    H143975   3.493   4.304   3.471  0.4033  1.6159 -1.1676
 7520TIP3    H243976   3.599   4.196   3.479 -0.5621  0.7929  2.8933
 7521TIP3   OH243977   2.360   3.491  12.819  0.2704  0.1265 -0.1546
 7521TIP3    H143978   2.343   3.572  12.771  0.0304  1.2820  1.7857
 7521TIP3    H243979   2.341   3.512  12.910 -3.0419 -2.9881  0.1150
 7522TIP3   OH243980   6.528   6.678   5.747  0.4439  0.0715  0.5920
 7522TIP3    H143981   6.572   6.593   5.753  0.3418 -0.0035  0.3288
 7522TIP3    H243982   6.450   6.660   5.694  0.3390  0.2978  0.6677
 7523TIP3   OH243983   0.485   4.075   4.526  0.3590  0.1950 -0.3073
 7523TIP3    H143984   0.443   4.160   4.523  1.3147  0.6505 -2.3631
 7523TIP3    H243985   0.414   4.012   4.516 -0.1014  0.8524 -1.2664
 7524TIP3   OH243986   2.877   4.066  16.773 -0.4264  0.2567  0.5658
 7524TIP3    H143987   2.798   4.097  16.819 -0.6727  1.5877 -0.6966
 7524TIP3    H243988   2.923   4.146  16.750  0.7028 -0.4811  0.2325
 7525TIP3   OH243989   5.714   1.086   0.502  0.1429  0.2934 -0.3285
 7525TIP3    H143990   5.677   1.161   0.548  0.7014 -0.2597  1.0832
 7525TIP3    H243991   5.656   1.013   0.526 -0.8692  0.3578 -2.3149
 7526TIP3   OH243992   3.241   5.738   0.277 -0.3154  0.5242  0.3682
 7526TIP3    H143993   3.155   5.727   0.238  0.4415 -0.4476 -1.1080
 7526TIP3    H243994   3.300   5.751   0.203  1.0067 -0.1949  1.2454
 7527TIP3   OH243995   0.555   2.777  16.194 -0.1662  0.3017  0.6569
 7527TIP3    H143996   0.553   2.841  16.265  1.0544 -0.4785  1.4134
 7527TIP3    H243997   0.494   2.708  16.222 -0.0832  0.2463  0.7012
 7528TIP3   OH243998   0.997   0.467  13.655 -0.0302 -0.2223 -0.6985
 7528TIP3    H143999   0.918   0.508  13.619 -0.1862 -1.9583 -2.5216
 7528TIP3    H244000   0.966   0.383  13.689  1.1022 -1.3303 -2.2637
 7529TIP3   OH244001   4.361   1.919   1.676  0.4521  0.3871 -0.4864
 7529TIP3    H144002   4.414   1.871   1.740 -0.2842  0.9907  0.6126
 7529TIP3    H244003   4.271   1.904   1.703  0.0991  0.2960 -1.6625
 7530TIP3   OH244004   2.168   2.991   4.706  0.1559  0.1688 -0.0618
 7530TIP3    H144005   2.241   2.981   4.767  1.6257  1.0622 -1.5774
 7530TIP3    H244006   2.114   3.060   4.745  0.5637  0.0679  0.6976
 7531TIP3   OH244007   4.282   0.492   0.933 -0.4824  0.4092  0.0568
 7531TIP3    H144008   4.372   0.482   0.967  0.0076 -0.6577 -1.4450
 7531TIP3    H244009   4.279   0.581   0.899  0.2496  0.2189 -0.5264
 7532TIP3   OH244010   6.179   1.974  15.423  0.3360 -0.3332  0.0991
 7532TIP3    H144011   6.137   1.966  15.337 -0.3996  0.4243  0.3834
 7532TIP3    H244012   6.172   2.066  15.445  0.2078 -0.5834  1.1396
 7533TIP3   OH244013   2.907   3.066   3.218  0.3885 -0.0423 -0.8818
 7533TIP3    H144014   2.817   3.038   3.200 -0.2503  1.3594  0.0019
 7533TIP3    H244015   2.905   3.099   3.308  1.9145 -0.4495 -0.6672
 7534TIP3   OH244016   2.857   3.802  13.550  0.4015 -0.3022  0.1460
 7534TIP3    H144017   2.944   3.838  13.534 -0.2685  2.0718  1.3548
 7534TIP3    H244018   2.798   3.859  13.502 -0.6582 -0.4836  1.1807
 7535TIP3   OH244019   0.077   5.185   2.159  0.1376  0.2388 -0.1793
 7535TIP3    H144020   0.154   5.237   2.181 -1.0168  1.9318  0.0611
 7535TIP3    H244021   0.003   5.241   2.183 -1.1750 -1.3184 -0.4268
 7536TIP3   OH244022   3.973   1.035   0.318 -0.1883 -0.3719  0.5903
 7536TIP3    H144023   4.028   0.979   0.374 -0.3360  0.3312  1.4759
 7536TIP3    H244024   3.886   1.030   0.358 -0.5994 -0.8446 -0.3346
 7537TIP3   OH244025   3.929   1.870  16.412  0.1780  0.1550  0.3872
 7537TIP3    H144026   3.940   1.940  16.347  0.4075  0.6276  0.9321
 7537TIP3    H244027   3.959   1.908  16.494 -2.2498  0.3272  1.2513
 7538TIP3   OH244028   3.085   5.787   1.121 -0.1385 -0.2350 -0.3446
 7538TIP3    H144029   3.078   5.739   1.038  0.2340 -0.4798 -0.2399
 7538TIP3    H244030   2.995   5.797   1.151 -0.3671  0.8366 -1.3250
 7539TIP3   OH244031   5.570   4.222  11.534  0.1096  0.2753 -0.0691
 7539TIP3    H144032   5.535   4.240  11.622 -0.7944 -0.6100 -0.2366
 7539TIP3    H244033   5.595   4.130  11.537  2.7126  0.9131  0.1209
 7540TIP3   OH244034   4.552   6.468  16.372  0.4133 -0.0614 -0.6001
 7540TIP3    H144035   4.513   6.509  16.450  2.6916 -0.4225  0.8162
 7540TIP3    H244036   4.629   6.521  16.353  0.3746 -0.4943 -2.1391
 7541TIP3   OH244037   0.470   0.373   3.835 -0.4073 -1.0281 -0.1359
 7541TIP3    H144038   0.546   0.345   3.784  0.7063 -0.8107  1.3403
 7541TIP3    H244039   0.474   0.468   3.835  0.8695 -1.0046  2.0571
 7542TIP3   OH244040   5.415   4.271  12.765 -0.0138 -0.3613 -0.0625
 7542TIP3    H144041   5.407   4.221  12.846  0.3486 -3.1208 -1.6017
 7542TIP3    H244042   5.509   4.269  12.745 -0.2148 -0.5832 -1.0326
 7543TIP3   OH244043   5.458   2.273   0.660 -0.2024  0.0495 -0.4867
 7543TIP3    H144044   5.404   2.206   0.617 -0.3980 -0.3572  0.3664
 7543TIP3    H244045   5.396   2.324   0.712  0.2215 -0.4049  0.4838
 7544TIP3   OH244046   4.328   5.523   3.911 -0.0160 -0.2013  0.4691
 7544TIP3    H144047   4.365   5.442   3.946  2.4619 -1.1218 -3.7155
 7544TIP3    H244048   4.385   5.592   3.945  0.0829 -0.6083  1.1465
 7545TIP3   OH244049   4.823   4.108  15.697  0.1867 -0.3528 -0.0792
 7545TIP3    H144050   4.857   4.150  15.618  2.1103 -1.2051  0.2375
 7545TIP3    H244051   4.767   4.174  15.737  0.0583  0.4894 -1.5857
 7546TIP3   OH244052   3.908   0.055   2.540  0.0961  0.4034  0.4741
 7546TIP3    H144053   3.844  -0.003   2.499  1.7819 -0.1032 -1.6500
 7546TIP3    H244054   3.869   0.142   2.536 -0.3198  0.1675 -1.1185
 7547TIP3   OH244055   4.707   5.650  10.905  0.8662 -0.0867  0.3335
 7547TIP3    H144056   4.642   5.661  10.835  0.9286  0.2210  0.3250
 7547TIP3    H244057   4.724   5.738  10.936  1.4519 -0.1427  0.1884
 7548TIP3   OH244058   1.364   6.112   2.339 -0.7655  0.3044 -0.0138
 7548TIP3    H144059   1.389   6.178   2.404 -0.9251  0.7173 -0.3630
 7548TIP3    H244060   1.430   6.120   2.271 -0.8270  0.1511 -0.0915
 7549TIP3   OH244061   3.549   6.313   1.301 -0.6807 -0.0557  0.6057
 7549TIP3    H144062   3.590   6.332   1.217 -0.2740 -0.0630  0.7967
 7549TIP3    H244063   3.584   6.379   1.361  0.0019 -0.7826  1.0480
 7550TIP3   OH244064   0.297   5.420   0.263 -0.1010 -0.6628  0.1194
 7550TIP3    H144065   0.210   5.460   0.257 -0.3481 -1.1501  0.4183
 7550TIP3    H244066   0.335   5.457   0.342 -0.0009 -0.3841 -0.0579
 7551TIP3   OH244067   2.335   2.198  14.881 -0.8067  0.5016 -0.2754
 7551TIP3    H144068   2.389   2.207  14.959 -3.1131  0.7778  1.3889
 7551TIP3    H244069   2.353   2.109  14.849 -1.2850 -0.3851  1.7728
 7552TIP3   OH244070   3.438   4.391  16.777 -0.2260 -0.3622  0.4243
 7552TIP3    H144071   3.516   4.436  16.810 -0.8698  0.1467  1.3130
 7552TIP3    H244072   3.366   4.429  16.827 -0.8263 -2.2969  1.1328
 7553TIP3   OH244073   6.491   0.608  15.710  0.3242 -0.0173 -0.1010
 7553TIP3    H144074   6.585   0.623  15.724  0.1635 -1.3477  3.5623
 7553TIP3    H244075   6.459   0.691  15.675  2.3362  1.7468  1.8988
 7554TIP3   OH244076   4.667   2.088   1.871  0.2524 -0.5786 -0.1386
 7554TIP3    H144077   4.586   2.138   1.879  0.9109  0.5262 -0.1587
 7554TIP3    H244078   4.659   2.043   1.786 -0.0002  0.1429 -0.5027
 7555TIP3   OH244079   2.764   3.043   5.075  0.4829 -0.4635 -0.2881
 7555TIP3    H144080   2.844   3.031   5.023  0.9177  0.0832  0.2390
 7555TIP3    H244081   2.795   3.060   5.163 -0.2106  0.0861 -0.1425
 7556TIP3   OH244082   2.326   6.381  12.678  0.1600  0.3358  0.2690
 7556TIP3    H144083   2.394   6.369  12.611  0.6161  0.6104  0.6697
 7556TIP3    H244084   2.357   6.457  12.728 -0.2527  0.2209  0.6948
 7557TIP3   OH244085   2.948   6.170  15.777 -0.0025  0.3726 -0.0699
 7557TIP3    H144086   2.959   6.088  15.825 -0.7906 -0.1914 -0.8486
 7557TIP3    H244087   3.006   6.232  15.823  0.9255 -0.7100  0.2657
 7558TIP3   OH244088   3.038   6.774   4.989  0.3225 -0.4070  0.5890
 7558TIP3    H144089   2.973   6.843   4.987 -1.5746 -2.0615  1.5817
 7558TIP3    H244090   3.056   6.760   5.083  3.3225  1.0132  0.3395
 7559TIP3   OH244091   4.495   5.761   3.414  0.0367 -0.0364  0.1265
 7559TIP3    H144092   4.503   5.693   3.347  1.2621  0.4618 -0.2576
 7559TIP3    H244093   4.440   5.828   3.373 -1.6743 -1.0145  0.7213
 7560TIP3   OH244094   3.691   0.867   2.853  0.5797 -0.4156  0.4092
 7560TIP3    H144095   3.683   0.777   2.820  1.6888 -0.9217  1.4295
 7560TIP3    H244096   3.778   0.895   2.827  0.4684  0.1449  0.6191
 7561TIP3   OH244097   2.822   1.416   3.792  0.9492  0.3290  0.3744
 7561TIP3    H144098   2.882   1.343   3.776  0.2901 -0.4503  1.3146
 7561TIP3    H244099   2.779   1.394   3.874 -1.2990  0.3904 -0.7023
 7562TIP3   OH244100   1.760   5.411   0.745  0.0782  0.6197  0.1457
 7562TIP3    H144101   1.760   5.478   0.813  0.0855  1.1620 -0.3859
 7562TIP3    H244102   1.715   5.451   0.671  0.4268  0.1820 -0.3122
 7563TIP3   OH244103   2.163   1.930   3.834  0.0956  0.2679  0.2182
 7563TIP3    H144104   2.118   1.884   3.764 -0.8574  0.7582  0.4967
 7563TIP3    H244105   2.112   2.009   3.848 -0.5539 -0.4656  2.3994
 7564TIP3   OH244106   2.085   6.377   5.313 -0.0776 -0.7297 -0.7670
 7564TIP3    H144107   2.056   6.380   5.222  0.7085  0.3455 -1.0015
 7564TIP3    H244108   2.172   6.336   5.309 -0.0174 -0.6303 -0.5151
 7565TIP3   OH244109   6.547   6.071   5.660  0.1748  0.6717 -0.2264
 7565TIP3    H144110   6.531   6.120   5.741  2.2555  0.0092  0.6624
 7565TIP3    H244111   6.642   6.064   5.655  0.0494 -0.1139 -2.2712
 7566TIP3   OH244112   1.685   2.611   4.493  0.1594 -0.7270 -0.7718
 7566TIP3    H144113   1.630   2.669   4.441  1.4168 -1.2617 -2.8116
 7566TIP3    H244114   1.693   2.656   4.578 -1.3932  0.5253 -1.2333
 7567TIP3   OH244115   6.102   6.139  12.947  0.2043 -0.0026  0.0943
 7567TIP3    H144116   6.011   6.160  12.968  0.7056  0.9633  1.4373
 7567TIP3    H244117   6.106   6.143  12.851 -0.9469  0.8716  0.0595
 7568TIP3   OH244118   6.453   5.003   1.540  0.0645 -0.0226 -0.2897
 7568TIP3    H144119   6.530   4.969   1.587 -0.7647 -1.4818  0.0723
 7568TIP3    H244120   6.431   4.935   1.477 -0.5396  0.6752 -0.8448
 7569TIP3   OH244121   0.872   5.964   2.923  0.1231 -0.0949 -0.1312
 7569TIP3    H144122   0.945   5.911   2.893  0.7701 -0.1188  1.3691
 7569TIP3    H244123   0.859   5.937   3.014 -1.9580 -0.2984 -0.4494
 7570TIP3   OH244124   5.568   3.581   2.917  0.1557  0.9301 -0.0012
 7570TIP3    H144125   5.510   3.654   2.939  0.6567  1.4366 -0.3512
 7570TIP3    H244126   5.517   3.503   2.939 -0.4315  1.3800  0.2591
 7571TIP3   OH244127   0.217   2.101   4.151  0.2375  0.1015  0.0298
 7571TIP3    H144128   0.234   2.006   4.150  0.2122  0.0957 -0.5209
 7571TIP3    H244129   0.229   2.127   4.242 -0.9844 -0.6534  0.4317
 7572TIP3   OH244130   0.264   0.662   0.676  0.1280 -0.1656  0.1020
 7572TIP3    H144131   0.333   0.724   0.699  0.9860 -1.2092  0.4021
 7572TIP3    H244132   0.229   0.632   0.760 -1.5718  1.2509 -0.0274
 7573TIP3   OH244133   0.398   6.658   3.013  0.4520  0.5253  0.2260
 7573TIP3    H144134   0.451   6.584   2.982  1.3953  1.4412 -0.4249
 7573TIP3    H244135   0.323   6.661   2.954 -0.7220 -1.1599  1.5244
 7574TIP3   OH244136   0.094   1.085   3.433  0.2989  0.4659 -0.2819
 7574TIP3    H144137   0.070   1.178   3.426  0.3791  0.6369  1.3172
 7574TIP3    H244138   0.091   1.053   3.343  2.0955  2.4751 -1.1523
 7575TIP3   OH244139   4.826   1.561  14.229  0.0023  1.0009 -0.5587
 7575TIP3    H144140   4.905   1.601  14.195  0.9426 -1.2402 -1.2249
 7575TIP3    H244141   4.754   1.606  14.185  1.0539  0.9756 -2.3803
 7576TIP3   OH244142   4.229   0.327   2.357 -0.1309 -0.4854 -0.3750
 7576TIP3    H144143   4.164   0.395   2.374  1.5102  1.0933 -0.1004
 7576TIP3    H244144   4.213   0.261   2.424 -0.7962  0.3514  0.3164
 7577TIP3   OH244145   5.480   6.678  15.425  0.4259 -0.2057  0.6552
 7577TIP3    H144146   5.476   6.629  15.507  0.3119 -0.8921  0.2407
 7577TIP3    H244147   5.520   6.618  15.363 -0.3001 -0.0006 -0.0221
 7578TIP3   OH244148   0.031   1.554   4.557 -0.2077  0.1442  0.0962
 7578TIP3    H144149   0.016   1.508   4.475 -1.4912  0.6399  0.0186
 7578TIP3    H244150   0.007   1.645   4.539  0.0465  0.3757  0.8608
 7579TIP3   OH244151   3.864   5.868   0.468  0.3917 -0.7287 -0.1868
 7579TIP3    H144152   3.820   5.810   0.406 -2.7105 -1.4722  2.4595
 7579TIP3    H244153   3.955   5.838   0.469 -0.2994 -3.0940 -1.5830
 7580TIP3   OH244154   0.286   1.259   0.907  0.2000  0.2280  0.0029
 7580TIP3    H144155   0.239   1.273   0.989 -0.7433 -1.2231 -0.2660
 7580TIP3    H244156   0.372   1.227   0.934  0.6170  1.6326  0.4554
 7581TIP3   OH244157   0.308   1.329  13.341 -0.2735  0.0798  0.0067
 7581TIP3    H144158   0.337   1.238  13.336  0.5859  0.3900 -1.0085
 7581TIP3    H244159   0.380   1.376  13.383 -0.9291  0.2195  1.0122
 7582TIP3   OH244160   5.718   0.833  12.202 -0.4457 -0.4144  0.0784
 7582TIP3    H144161   5.765   0.750  12.188 -0.9147 -0.4581 -1.3178
 7582TIP3    H244162   5.632   0.818  12.164  0.3226  1.5862 -2.7013
 7583TIP3   OH244163   2.749   6.632   6.428 -0.2374  0.1847 -0.1337
 7583TIP3    H144164   2.756   6.559   6.366 -2.8848  0.4303 -0.8561
 7583TIP3    H244165   2.823   6.689   6.406  1.1302 -1.5929 -0.4244
 7584TIP3   OH244166   5.448   4.233   5.558  0.2965 -0.7789 -0.1835
 7584TIP3    H144167   5.483   4.312   5.598  1.1207 -1.1288 -0.1785
 7584TIP3    H244168   5.410   4.262   5.475  1.4130 -0.4950 -0.6146
 7585TIP3   OH244169   0.129   5.386  16.642 -0.3229  0.0879  0.0493
 7585TIP3    H144170   0.079   5.340  16.709  0.3757 -0.2924  0.3236
 7585TIP3    H244171   0.067   5.403  16.572 -0.5249 -1.5123 -0.1735
 7586TIP3   OH244172   6.265   4.848  13.846  0.2268  0.0739 -0.1458
 7586TIP3    H144173   6.321   4.779  13.881 -1.3897 -0.1096  2.2855
 7586TIP3    H244174   6.269   4.918  13.910 -0.9781  0.7521 -0.7644
 7587TIP3   OH244175   2.998   0.774   5.835 -0.5216  0.7252  0.3279
 7587TIP3    H144176   3.089   0.790   5.808 -0.5910  3.4725  1.3933
 7587TIP3    H244177   3.005   0.732   5.921 -0.1747  2.4284  1.1763
 7588TIP3   OH244178   4.631   4.127  15.273 -0.0082  0.3425  0.1597
 7588TIP3    H144179   4.647   4.033  15.274 -0.6978  0.2224  0.7310
 7588TIP3    H244180   4.672   4.158  15.192 -0.2030 -0.5182 -0.2724
 7589TIP3   OH244181   3.997   5.495  14.274 -0.0924 -0.0451  0.2588
 7589TIP3    H144182   3.906   5.502  14.302 -0.0977 -0.9172  0.4693
 7589TIP3    H244183   3.996   5.518  14.181 -0.3090  1.3096  0.5684
 7590TIP3   OH244184   2.313   0.547  10.621 -0.4277 -0.9135  0.6308
 7590TIP3    H144185   2.369   0.624  10.635 -0.5827 -0.2204 -1.9209
 7590TIP3    H244186   2.239   0.560  10.680 -1.0868  1.6646 -0.5822
 7591TIP3   OH244187   5.439   4.648   1.460 -0.2482  0.4150 -0.2298
 7591TIP3    H144188   5.384   4.580   1.499  0.3338 -0.2920 -0.6168
 7591TIP3    H244189   5.528   4.617   1.475  0.0069  0.8267 -0.8875
 7592TIP3   OH244190   2.690   5.840  13.441 -0.3029 -0.2045  0.3803
 7592TIP3    H144191   2.598   5.854  13.418  0.1171  0.2795 -1.0970
 7592TIP3    H244192   2.714   5.916  13.494 -0.4519  0.2744 -0.2232
 7593TIP3   OH244193   1.402   1.572  16.960  0.4113  0.1379 -0.4118
 7593TIP3    H144194   1.476   1.607  17.011  0.0102 -1.5249  1.4387
 7593TIP3    H244195   1.352   1.521  17.024 -1.4550 -0.0970 -2.0007
 7594TIP3   OH244196   1.063   4.878  12.218 -0.0097 -0.6925 -0.8536
 7594TIP3    H144197   1.144   4.905  12.263 -0.0101 -1.7914 -0.1615
 7594TIP3    H244198   1.047   4.948  12.155 -0.1217  1.0418  0.9922
 7595TIP3   OH244199   2.858   2.775   3.488  0.0632  0.0636  0.0114
 7595TIP3    H144200   2.797   2.783   3.415 -1.8770  1.8537  1.6983
 7595TIP3    H244201   2.944   2.783   3.448 -0.6874 -2.3820 -2.4526
 7596TIP3   OH244202   1.740   1.544   6.567 -0.3552 -0.1270 -0.1661
 7596TIP3    H144203   1.701   1.475   6.620  0.5374 -0.1764  0.4653
 7596TIP3    H244204   1.835   1.527   6.573 -0.1428  0.9897 -0.2164
 7597TIP3   OH244205   3.891   5.171   0.251  0.2298  0.3326 -0.1225
 7597TIP3    H144206   3.980   5.173   0.215 -0.5858  0.6440 -2.2510
 7597TIP3    H244207   3.839   5.221   0.189 -2.2463 -3.3449 -1.3243
 7598TIP3   OH244208   4.517   2.046   0.841 -0.0673 -0.0904  0.3792
 7598TIP3    H144209   4.597   2.070   0.794  0.4005 -2.3721 -0.1378
 7598TIP3    H244210   4.446   2.069   0.781  0.2012  1.5596  0.6637
 7599TIP3   OH244211   2.481   2.293  11.237  0.5752 -0.0798  0.0770
 7599TIP3    H144212   2.494   2.274  11.144  1.4812  0.6925  0.0246
 7599TIP3    H244213   2.387   2.291  11.249  0.4556 -0.3578 -0.8266
 7600TIP3   OH244214   5.915   0.738  13.205 -0.3920 -0.5750 -0.2368
 7600TIP3    H144215   5.937   0.784  13.285  1.7298 -1.4616 -0.2406
 7600TIP3    H244216   5.872   0.657  13.234 -3.4477  0.9043 -0.2130
 7601TIP3   OH244217   3.725   2.628  15.725 -0.3257  0.3929 -0.1629
 7601TIP3    H144218   3.724   2.649  15.819 -0.5809 -1.3587  0.2672
 7601TIP3    H244219   3.778   2.698  15.686  2.4169 -0.4376  1.7302
 7602TIP3   OH244220   1.324   1.969  17.249  0.2539  0.0703 -0.3674
 7602TIP3    H144221   1.276   2.007  17.175 -2.5310 -0.9464  0.7898
 7602TIP3    H244222   1.331   2.041  17.312 -1.2530 -0.1499  0.0953
 7603TIP3   OH244223   1.161   2.661  14.688  0.3132 -0.6264  0.1942
 7603TIP3    H144224   1.085   2.689  14.637  1.1448  1.6736  0.0784
 7603TIP3    H244225   1.212   2.606  14.629  0.6751  1.0461 -1.1412
 7604TIP3   OH244226   1.223   2.907  11.885  0.4381  0.2774  0.1107
 7604TIP3    H144227   1.144   2.959  11.898  0.4959  0.3579  0.1393
 7604TIP3    H244228   1.286   2.942  11.948  1.0758  1.3947 -1.0838
 7605TIP3   OH244229   2.223   3.574   6.001 -0.0968  1.1381 -0.2870
 7605TIP3    H144230   2.265   3.502   6.049  0.0341  1.0918 -0.4705
 7605TIP3    H244231   2.257   3.653   6.043 -1.3015  1.0931  0.8277
 7606TIP3   OH244232   4.837   5.306   3.085 -0.0981 -0.6294  0.2388
 7606TIP3    H144233   4.873   5.368   3.021 -1.1430 -0.0106  0.2271
 7606TIP3    H244234   4.844   5.221   3.042  2.4070 -0.7250  0.7043
 7607TIP3   OH244235   4.053   3.984   0.864 -0.8858 -0.0661  0.6569
 7607TIP3    H144236   4.125   3.947   0.813 -1.1822 -1.4191  1.1796
 7607TIP3    H244237   4.044   4.074   0.831 -0.4535 -0.5975 -0.9984
 7608TIP3   OH244238   1.191   6.720  17.097  0.2310  0.2856  0.1833
 7608TIP3    H144239   1.134   6.783  17.141  1.1790  3.1274 -2.3042
 7608TIP3    H244240   1.267   6.712  17.155 -0.6849  0.0014  1.3771
 7609TIP3   OH244241   4.962   1.687  16.753  0.3877  0.4830 -0.6998
 7609TIP3    H144242   4.950   1.754  16.686  0.8726 -0.1701 -1.4565
 7609TIP3    H244243   5.053   1.660  16.744  0.1907 -0.3009 -0.4342
 7610TIP3   OH244244   5.003   0.547   4.915 -0.3905 -0.5082  0.2417
 7610TIP3    H144245   5.087   0.563   4.957 -0.2516 -1.8482  0.5098
 7610TIP3    H244246   5.006   0.599   4.835  1.2357 -1.5596 -0.4120
 7611TIP3   OH244247   3.972   6.675  15.438 -0.5985  0.8526 -0.5242
 7611TIP3    H144248   3.983   6.678  15.533 -3.9107  2.0698 -0.0583
 7611TIP3    H244249   4.062   6.671  15.404  0.6599 -1.5831  2.6263
 7612TIP3   OH244250   0.961   2.868  15.143  0.2148 -0.2087 -0.2437
 7612TIP3    H144251   0.973   2.781  15.182  1.3372 -0.3611 -0.8756
 7612TIP3    H244252   1.038   2.917  15.171  0.7621 -0.1416 -1.7431
 7613TIP3   OH244253   0.168   1.747   3.881 -0.0788 -0.3212  0.5004
 7613TIP3    H144254   0.075   1.729   3.894  0.0162 -0.3663  1.1333
 7613TIP3    H244255   0.207   1.740   3.968  0.8645 -2.2243 -0.0173
 7614TIP3   OH244256   0.567   3.150   3.076 -0.1010  0.3818 -0.4061
 7614TIP3    H144257   0.654   3.187   3.062  1.1015 -2.1173 -0.1180
 7614TIP3    H244258   0.534   3.130   2.989  0.4122 -0.3598 -0.4305
 7615TIP3   OH244259   3.156   1.055  14.176  0.0130  0.5924 -0.7254
 7615TIP3    H144260   3.183   1.142  14.146  0.2128  0.8419  0.1535
 7615TIP3    H244261   3.193   0.995  14.111 -0.2270  1.1705 -1.4026
 7616TIP3   OH244262   1.066   5.403   5.498 -0.2935  0.2412  0.5768
 7616TIP3    H144263   1.138   5.403   5.435 -0.7009  1.1144  0.0918
 7616TIP3    H244264   1.049   5.495   5.516 -1.5234  0.0725  0.3972
 7617TIP3   OH244265   6.697   2.181  12.693 -0.2642  0.3503 -0.4795
 7617TIP3    H144266   6.776   2.145  12.733 -0.0606  0.2793 -0.9380
 7617TIP3    H244267   6.629   2.115  12.708 -1.0494  1.6773  2.5801
 7618TIP3   OH244268   4.797   3.977  12.234  0.1464 -0.4396  0.7783
 7618TIP3    H144269   4.821   4.065  12.204  0.6421 -0.6959  0.4228
 7618TIP3    H244270   4.857   3.960  12.307  0.4433 -0.7189  0.4692
 7619TIP3   OH244271   6.441   3.672   4.449  0.2436  0.2937 -1.0265
 7619TIP3    H144272   6.470   3.637   4.365  0.0700 -3.1896  0.1822
 7619TIP3    H244273   6.347   3.687   4.439  0.1152 -0.6449 -1.3497
 7620TIP3   OH244274   2.725   2.271   3.506 -0.0372 -0.1071  0.6495
 7620TIP3    H144275   2.710   2.194   3.561  0.7307 -0.8131 -0.0994
 7620TIP3    H244276   2.819   2.271   3.490 -0.3828 -0.9470 -2.0510
 7621TIP3   OH244277   4.135   3.096  12.846 -0.4437 -0.1560  0.4534
 7621TIP3    H144278   4.201   3.030  12.825 -1.3295 -1.1392  0.6834
 7621TIP3    H244279   4.116   3.138  12.762 -2.7276 -2.9020 -0.5755
 7622TIP3   OH244280   4.041   0.253   2.908  0.2614  0.5835 -0.5478
 7622TIP3    H144281   4.135   0.242   2.922  0.3787 -0.5081 -2.0446
 7622TIP3    H244282   4.030   0.255   2.813 -1.4118 -1.1083 -0.4412
 7623TIP3   OH244283   3.654   2.824  13.213 -0.1821 -0.3372  0.2527
 7623TIP3    H144284   3.721   2.851  13.150 -1.0810 -1.6921 -1.3476
 7623TIP3    H244285   3.600   2.902  13.226  0.3655  0.1270 -0.1884
 7624TIP3   OH244286   4.040   2.783  16.785 -0.0547 -0.4550  1.1930
 7624TIP3    H144287   4.048   2.857  16.845 -0.6045 -0.7789  1.6814
 7624TIP3    H244288   4.018   2.709  16.841  0.2619 -0.9456  0.6853
 7625TIP3   OH244289   5.627   6.778   5.326 -0.3163  0.1607  0.1271
 7625TIP3    H144290   5.557   6.727   5.285  1.1027 -2.4816  0.7715
 7625TIP3    H244291   5.656   6.724   5.400  2.1139  1.3218  0.1139
 7626TIP3   OH244292   1.586   5.528   0.570  0.1333  0.0967  0.6149
 7626TIP3    H144293   1.620   5.550   0.483 -1.5946 -1.6510 -0.5640
 7626TIP3    H244294   1.561   5.613   0.608  1.1571  0.9092 -0.4424
 7627TIP3   OH244295   4.956   4.328   4.989  0.0979 -0.0494 -0.2983
 7627TIP3    H144296   4.977   4.399   4.929 -0.4156 -0.7517 -1.3287
 7627TIP3    H244297   4.867   4.348   5.019  0.0457 -0.1348 -0.3979
 7628TIP3   OH244298   6.511   1.292  17.329 -0.1199  0.1420  0.2771
 7628TIP3    H144299   6.425   1.252  17.340 -0.0206 -0.2574 -0.3084
 7628TIP3    H244300   6.502   1.380  17.365 -1.8186  1.3959 -2.7958
 7629TIP3   OH244301   3.271   5.915  15.958 -0.0311  0.6391  0.7744
 7629TIP3    H144302   3.268   5.972  15.880 -0.6361 -1.1434 -0.5737
 7629TIP3    H244303   3.362   5.919  15.987  0.7183 -0.2245 -1.2893
 7630TIP3   OH244304   1.699   0.838  12.363  0.2938 -0.0926 -0.5364
 7630TIP3    H144305   1.786   0.866  12.336  1.1952 -2.0993  0.1292
 7630TIP3    H244306   1.712   0.750  12.400 -2.0272 -0.5166 -0.5781
 7631TIP3   OH244307   6.059   3.259   1.420  0.1995  0.5239 -0.3433
 7631TIP3    H144308   6.090   3.284   1.507  1.8030  0.1452 -0.7824
 7631TIP3    H244309   5.988   3.196   1.437  0.8848  0.0016  0.6820
 7632TIP3   OH244310   3.663   0.563   0.355 -0.0065 -0.2249  0.6178
 7632TIP3    H144311   3.626   0.546   0.442  0.6915 -1.9471  0.6116
 7632TIP3    H244312   3.724   0.491   0.340 -0.0716  0.0566 -1.2848
 7633TIP3   OH244313   0.967   4.791   6.019  0.4388 -0.5337 -0.1181
 7633TIP3    H144314   0.884   4.831   5.996  0.4579  0.5820  1.5850
 7633TIP3    H244315   0.956   4.763   6.110  0.8737 -3.3186 -0.8171
 7634TIP3   OH244316   6.267   3.201  10.931 -0.4758 -0.1177 -0.2303
 7634TIP3    H144317   6.208   3.160  10.868  0.3535  1.5626 -2.2305
 7634TIP3    H244318   6.248   3.295  10.923  1.8140  0.3910 -0.2843
 7635TIP3   OH244319   4.154   2.803   3.254  0.8513 -0.8348  0.0637
 7635TIP3    H144320   4.234   2.751   3.256 -0.1063 -2.3693  0.3621
 7635TIP3    H244321   4.085   2.742   3.279 -0.3111  0.6610  0.7040
 7636TIP3   OH244322   0.135   6.679  14.759  0.1408  0.2336  0.2447
 7636TIP3    H144323   0.057   6.650  14.807  0.8063  0.1836  1.3289
 7636TIP3    H244324   0.208   6.636  14.804  0.8511  0.7360 -0.3995
 7637TIP3   OH244325   1.539   5.984  14.080  0.0126 -0.3578  0.4975
 7637TIP3    H144326   1.573   6.036  14.153  0.7042 -1.5191  1.0162
 7637TIP3    H244327   1.608   5.921  14.061 -1.0352 -1.4533  0.2430
 7638TIP3   OH244328   5.609   1.230   3.261 -0.4656 -0.3276  0.0031
 7638TIP3    H144329   5.520   1.263   3.278 -0.2904 -0.1434  0.5852
 7638TIP3    H244330   5.600   1.134   3.266 -0.3199 -0.2927  1.8237
 7639TIP3   OH244331   5.515   4.031  12.266  0.5113 -1.0572  0.3555
 7639TIP3    H144332   5.490   4.063  12.353 -0.4374  0.2606 -0.3705
 7639TIP3    H244333   5.510   4.108  12.210  2.6040 -1.5526 -0.5942
 7640TIP3   OH244334   4.341   5.707  14.122 -0.6752  0.1399 -0.0601
 7640TIP3    H144335   4.427   5.691  14.161 -0.9327 -0.3485  0.3340
 7640TIP3    H244336   4.353   5.690  14.029  0.0742  1.8078 -0.3069
 7641TIP3   OH244337   0.123   3.980   1.232  0.3173 -0.3016  0.5257
 7641TIP3    H144338   0.043   4.031   1.222 -0.1438 -1.2733 -1.4347
 7641TIP3    H244339   0.098   3.905   1.286  0.0910 -0.2293  0.5204
 7642TIP3   OH244340   5.310   1.389  11.784 -0.3846  0.2072  0.1936
 7642TIP3    H144341   5.366   1.313  11.771  0.2007  0.4951  0.9261
 7642TIP3    H244342   5.368   1.464  11.773 -0.4699  0.5034  1.5417
 7643TIP3   OH244343   1.713   4.117  13.960 -0.0714  0.1465  0.1290
 7643TIP3    H144344   1.720   4.119  14.056  1.1887 -1.6955  0.1404
 7643TIP3    H244345   1.804   4.113  13.930 -0.4617  0.3354 -1.1411
 7644TIP3   OH244346   1.605   5.733   1.866  0.0013  0.0763  0.2376
 7644TIP3    H144347   1.609   5.728   1.962 -0.5025 -1.0052  0.2211
 7644TIP3    H244348   1.526   5.786   1.848 -0.3262 -0.3433  0.4222
 7645TIP3   OH244349   0.124   1.221   6.004 -0.4685  0.1772  0.3205
 7645TIP3    H144350   0.125   1.310   5.969  0.0139  0.0218 -0.0759
 7645TIP3    H244351   0.205   1.215   6.056 -0.1299 -0.2544 -0.2489
 7646TIP3   OH244352   1.356   3.228   1.791 -0.2458 -0.1713  0.4483
 7646TIP3    H144353   1.444   3.194   1.809 -0.4997 -0.2397  1.6753
 7646TIP3    H244354   1.348   3.303   1.849 -0.1919  1.2216 -1.2573
 7647TIP3   OH244355   4.307   4.419  12.820 -0.2649 -0.2735 -0.0192
 7647TIP3    H144356   4.215   4.395  12.809 -0.3161 -0.1847  0.2038
 7647TIP3    H244357   4.311   4.459  12.907 -0.0986  0.1166 -0.2018
 7648TIP3   OH244358   0.490   6.109   1.858 -0.6484  0.4467 -0.7735
 7648TIP3    H144359   0.399   6.082   1.852 -0.8345  0.7282  0.4511
 7648TIP3    H244360   0.540   6.036   1.820 -1.3576  0.1679 -1.1785
 7649TIP3   OH244361   4.473   2.608  15.581 -0.3490 -0.5755 -0.1207
 7649TIP3    H144362   4.538   2.595  15.651  0.7749 -0.8000 -1.1741
 7649TIP3    H244363   4.398   2.648  15.626  1.0294  0.9969  0.9190
 7650TIP3   OH244364   1.543   6.719   4.246 -0.2595  0.0274 -0.4712
 7650TIP3    H144365   1.596   6.776   4.190 -0.5715  1.3389  0.5148
 7650TIP3    H244366   1.453   6.746   4.228 -0.3375  0.9601  1.1078
 7651TIP3   OH244367   4.257   2.295   0.007  0.0704 -0.6755  0.3290
 7651TIP3    H144368   4.256   2.199   0.005  2.4345 -0.7623  0.6968
 7651TIP3    H244369   4.254   2.321  -0.085  1.5147 -1.1863  0.1207
 7652TIP3   OH244370   4.067   1.159   5.414  0.3105  0.3386  0.3141
 7652TIP3    H144371   4.018   1.223   5.466 -1.8477 -2.2948  1.7398
 7652TIP3    H244372   4.053   1.076   5.459  0.8225 -1.6095 -2.8711
 7653TIP3   OH244373   0.370   3.711  11.952  0.0977  0.1538  0.1769
 7653TIP3    H144374   0.438   3.763  11.909 -0.4621  0.6743 -0.0916
 7653TIP3    H244375   0.403   3.699  12.041  0.4239  0.6212  0.1266
 7654TIP3   OH244376   2.040   3.446   3.026 -0.6786 -0.3176  0.2397
 7654TIP3    H144377   1.965   3.478   3.076 -1.5106 -1.5408 -0.1834
 7654TIP3    H244378   2.101   3.413   3.092 -1.1041 -0.5459  0.5189
 7655TIP3   OH244379   1.317   6.756   5.044  0.0623 -0.1548  0.6731
 7655TIP3    H144380   1.268   6.717   4.972  0.7207  1.9002 -0.9816
 7655TIP3    H244381   1.400   6.708   5.045 -0.0932 -0.4336  0.3128
 7656TIP3   OH244382   6.479   5.540  14.185 -0.4609 -0.1242  0.0414
 7656TIP3    H144383   6.514   5.612  14.237  0.6229 -0.2903 -0.4378
 7656TIP3    H244384   6.485   5.570  14.095 -1.8319 -0.0516 -0.0433
 7657TIP3   OH244385   6.088   5.360  15.910  0.1345  0.1815  0.4808
 7657TIP3    H144386   6.127   5.439  15.946 -0.2226  0.7551 -0.3650
 7657TIP3    H244387   6.055   5.312  15.987 -0.0865  1.0885  0.9603
 7658TIP3   OH244388   0.002   2.378   0.893  0.2303 -0.2478  0.8051
 7658TIP3    H144389  -0.033   2.300   0.937 -1.4077  0.9436  1.7151
 7658TIP3    H244390  -0.075   2.426   0.864  1.2128  1.0893  0.3005
 7659TIP3   OH244391   0.074   6.576   0.019 -0.8355  0.0604 -0.0687
 7659TIP3    H144392   0.007   6.522  -0.022 -0.1858  0.4307 -1.6629
 7659TIP3    H244393   0.043   6.666   0.005 -0.8633  0.1881  0.7420
 7660TIP3   OH244394   2.814   6.145   2.226 -0.2329 -0.5448 -0.4270
 7660TIP3    H144395   2.807   6.235   2.194 -0.8524  0.2189  1.7240
 7660TIP3    H244396   2.879   6.104   2.168  0.1075  1.2779 -1.4056
 7661TIP3   OH244397   4.450   1.938  11.792  0.6961  0.0249 -0.2538
 7661TIP3    H144398   4.482   1.930  11.882  2.0158  1.9113 -0.4924
 7661TIP3    H244399   4.377   1.876  11.787  1.5511 -1.2164  1.6447
 7662TIP3   OH244400   4.546   5.667  15.324 -0.1488 -0.1199 -0.8145
 7662TIP3    H144401   4.578   5.582  15.352 -1.3491 -0.5776 -0.7941
 7662TIP3    H244402   4.453   5.667  15.347  0.0644  1.6405  0.2404
 7663TIP3   OH244403   3.417   1.739   0.615  0.1546  0.3066  0.0144
 7663TIP3    H144404   3.447   1.782   0.535  1.2269  0.3129  0.3999
 7663TIP3    H244405   3.347   1.795   0.647  0.2653  0.7465 -0.4970
 7664TIP3   OH244406   3.849   5.111   0.929  0.0312 -0.3994  0.5661
 7664TIP3    H144407   3.885   5.072   0.850  1.0985  0.7186  0.4781
 7664TIP3    H244408   3.874   5.203   0.925 -1.9131  0.2014  1.0651
 7665TIP3   OH244409   1.149   0.622   3.563 -0.0815 -0.4352  0.1741
 7665TIP3    H144410   1.107   0.540   3.540 -0.6615  0.1075 -0.7620
 7665TIP3    H244411   1.111   0.646   3.647  0.3299 -1.2669  0.6121
 7666TIP3   OH244412   6.024   2.259   4.238 -0.4134 -0.4581  0.0603
 7666TIP3    H144413   5.929   2.270   4.231 -0.4457  0.3359  1.4409
 7666TIP3    H244414   6.036   2.167   4.261 -0.8798 -0.4673  0.2761
 7667TIP3   OH244415   4.753   1.711   1.460  0.1827  0.3595  0.0679
 7667TIP3    H144416   4.694   1.759   1.402  0.0294 -0.6202 -0.6215
 7667TIP3    H244417   4.699   1.686   1.534 -0.6079 -1.4017 -1.0203
 7668TIP3   OH244418   0.866   1.055   0.194 -0.6128  0.1461  0.3694
 7668TIP3    H144419   0.777   1.020   0.194 -0.4499 -0.2716  0.6459
 7668TIP3    H244420   0.906   1.018   0.115 -0.6621  0.2830  0.2793
 7669TIP3   OH244421   4.145   5.241   5.279 -0.5937  0.4005 -0.0075
 7669TIP3    H144422   4.154   5.327   5.238 -0.0010  0.1260 -0.4780
 7669TIP3    H244423   4.127   5.259   5.371 -0.2800  1.0242 -0.0675
 7670TIP3   OH244424   2.220   3.845  17.283  0.5637 -0.4451 -0.0001
 7670TIP3    H144425   2.133   3.806  17.273  0.3433  0.0862 -0.2285
 7670TIP3    H244426   2.212   3.899  17.362  0.1747  0.8899 -0.9063
 7671TIP3   OH244427   3.496   5.786   4.140  0.0060  0.1148  0.0338
 7671TIP3    H144428   3.577   5.735   4.132  1.4514  2.2795  0.2017
 7671TIP3    H244429   3.515   5.853   4.205 -2.0915  0.4204  0.4105
 7672TIP3   OH244430   4.793   2.559   2.969 -0.6418  0.5365  0.3055
 7672TIP3    H144431   4.878   2.598   2.950 -0.3800  0.1897  0.7374
 7672TIP3    H244432   4.787   2.484   2.911  0.6816 -1.2385  2.3444
 7673TIP3   OH244433   3.865   3.691  15.150 -0.1483 -0.2929 -0.2518
 7673TIP3    H144434   3.780   3.689  15.105  0.5816  0.7857 -1.7273
 7673TIP3    H244435   3.920   3.630  15.100  0.6429  0.8453 -0.7966
 7674TIP3   OH244436   2.084   1.981   1.740  0.1850  0.0304 -0.1342
 7674TIP3    H144437   2.178   1.983   1.722  0.2351 -0.9483 -0.0856
 7674TIP3    H244438   2.043   2.005   1.657  0.4753 -0.3235 -0.3879
 7675TIP3   OH244439   1.975   3.880  13.635  0.0605 -0.2413 -0.2525
 7675TIP3    H144440   1.985   3.808  13.696  2.1155 -0.4971 -0.8179
 7675TIP3    H244441   2.007   3.957  13.682  0.4784 -0.2138 -0.5737
 7676TIP3   OH244442   5.106   3.647  12.987 -0.5397 -0.0892  0.1701
 7676TIP3    H144443   5.047   3.605  12.925  0.9451 -0.7814 -0.8367
 7676TIP3    H244444   5.147   3.719  12.937  1.3953 -1.2575 -0.0375
 7677TIP3   OH244445   3.964   0.115   0.076  0.2579  0.7703  0.2470
 7677TIP3    H144446   3.916   0.143   0.154  1.5755 -2.2035  2.3239
 7677TIP3    H244447   3.901   0.062   0.027 -0.4266  2.2346 -0.5068
 7678TIP3   OH244448   5.484   5.668  11.297 -0.0921  0.6135 -0.0847
 7678TIP3    H144449   5.425   5.605  11.337  0.8077 -0.0922  0.1564
 7678TIP3    H244450   5.561   5.669  11.354  0.2590  1.2864 -0.5553
 7679TIP3   OH244451   6.240   3.439  16.198 -0.0035  0.1941  0.4889
 7679TIP3    H144452   6.212   3.348  16.191  0.6610  0.0262  0.0103
 7679TIP3    H244453   6.237   3.458  16.292  0.0524 -0.3773  0.6062
 7680TIP3   OH244454   2.440   4.226  13.020  0.0858 -0.0734  0.1864
 7680TIP3    H144455   2.485   4.288  12.961  0.8609  0.7368  1.5850
 7680TIP3    H244456   2.350   4.225  12.988  0.6435 -0.3096 -1.5274
 7681TIP3   OH244457   2.933   1.558  14.938 -0.1757  0.0235 -0.2090
 7681TIP3    H144458   2.948   1.501  15.014  0.0125  0.2459 -0.0774
 7681TIP3    H244459   2.852   1.604  14.959  0.3985  0.8264  0.3234
 7682TIP3   OH244460   0.644   5.124  11.765 -0.1550 -0.0135 -0.2205
 7682TIP3    H144461   0.663   5.215  11.789  2.8407 -0.4831 -0.5087
 7682TIP3    H244462   0.598   5.130  11.682 -1.0299  1.2367  0.3139
 7683TIP3   OH244463   6.511   1.017  16.013  0.0888 -0.1534 -0.6827
 7683TIP3    H144464   6.451   0.948  15.984  0.8443 -2.3378  2.4505
 7683TIP3    H244465   6.577   0.971  16.066  0.3582  2.9755  2.0103
 7684TIP3   OH244466   4.289   6.774   3.217  0.3791  0.1626 -0.5149
 7684TIP3    H144467   4.296   6.783   3.312 -1.6426 -2.7007  0.0246
 7684TIP3    H244468   4.378   6.788   3.185  1.1695  0.8714  1.7965
 7685TIP3   OH244469   5.540   1.431  15.719  0.0411 -0.0061  0.4028
 7685TIP3    H144470   5.480   1.445  15.793  0.7749  1.0889  0.8182
 7685TIP3    H244471   5.523   1.341  15.691 -1.8441  0.2718  0.4652
 7686TIP3   OH244472   3.772   2.653   1.534  0.6264 -0.4774  0.3235
 7686TIP3    H144473   3.827   2.697   1.599  0.2000  2.1928 -1.0076
 7686TIP3    H244474   3.833   2.598   1.484  1.1909 -1.4094  1.9480
 7687TIP3   OH244475   3.743   5.725   3.623 -0.4630  0.0827 -0.2717
 7687TIP3    H144476   3.773   5.775   3.547  1.7430 -1.4670 -0.4937
 7687TIP3    H244477   3.725   5.637   3.589  4.4942 -1.9249  1.4081
 7688TIP3   OH244478   3.640   6.292  13.600  0.1741 -0.4769  0.4572
 7688TIP3    H144479   3.585   6.241  13.660  1.9781 -1.7280  1.1213
 7688TIP3    H244480   3.703   6.336  13.657  0.0163  0.7698 -0.3027
 7689TIP3   OH244481   5.064   2.994   2.727 -0.2532 -0.2230  0.3510
 7689TIP3    H144482   5.093   2.979   2.637 -0.6138 -0.2312  0.2381
 7689TIP3    H244483   5.121   3.065   2.759 -1.0039  0.7088 -0.3183
 7690TIP3   OH244484   3.272   3.350  15.399 -1.0526 -0.2886 -0.2539
 7690TIP3    H144485   3.356   3.306  15.385 -1.2360 -1.5257  2.0447
 7690TIP3    H244486   3.210   3.279  15.412 -1.9616  0.6185  0.5354
 7691TIP3   OH244487   4.668   5.498   4.893 -0.5414 -0.0663  0.3858
 7691TIP3    H144488   4.591   5.517   4.839 -1.1018 -1.3152  0.7177
 7691TIP3    H244489   4.742   5.511   4.833 -0.9600  1.5201  0.1647
 7692TIP3   OH244490   5.269   2.939  16.198 -0.6020 -0.1038 -0.3782
 7692TIP3    H144491   5.354   2.969  16.164 -0.1679 -1.6879 -0.7977
 7692TIP3    H244492   5.210   3.013  16.184  0.1194  0.1405 -2.4142
 7693TIP3   OH244493   0.326   6.406   2.180 -0.1505 -0.1616  0.0965
 7693TIP3    H144494   0.394   6.387   2.115 -0.9367 -3.1191  0.0120
 7693TIP3    H244495   0.244   6.395   2.132 -0.7179  0.5282  0.8920
 7694TIP3   OH244496   3.271   4.184  13.758  0.2715  0.1020 -0.1645
 7694TIP3    H144497   3.327   4.125  13.707  2.8000  0.5544  1.9013
 7694TIP3    H244498   3.238   4.129  13.829  1.7367  0.8324  1.1331
 7695TIP3   OH244499   1.045   1.066  13.499 -0.4860  0.0763 -0.0449
 7695TIP3    H144500   0.980   1.066  13.429 -1.1279  0.1730  0.5332
 7695TIP3    H244501   0.993   1.065  13.580  0.1217  3.1361  0.5102
 7696TIP3   OH244502   4.798   6.748   1.467  0.3486 -0.3513 -0.0185
 7696TIP3    H144503   4.811   6.742   1.373 -0.8479  0.5384 -0.2607
 7696TIP3    H244504   4.716   6.702   1.483 -0.0295  0.4708  0.4355
 7697TIP3   OH244505   3.500   1.529  14.568  0.4421  0.1178 -0.0752
 7697TIP3    H144506   3.405   1.536  14.565  0.5119  1.3464  0.1048
 7697TIP3    H244507   3.517   1.449  14.619 -0.4808 -1.5437 -2.1984
 7698TIP3   OH244508   1.933   0.918   3.492  0.3484  0.5758 -0.4387
 7698TIP3    H144509   1.963   0.987   3.550  4.1264 -2.6809  2.0389
 7698TIP3    H244510   1.904   0.848   3.551  2.1385 -2.0187 -2.3950
 7699TIP3   OH244511   1.511   3.035  16.412  0.0731 -0.0888 -0.3302
 7699TIP3    H144512   1.435   3.084  16.381  1.0044  0.5192 -1.7231
 7699TIP3    H244513   1.509   2.953  16.364  1.2407  0.6495 -1.7014
 7700TIP3   OH244514   2.741   2.263  12.046  0.0261 -0.5029 -0.0375
 7700TIP3    H144515   2.679   2.225  12.108 -0.6987  1.8193  0.7745
 7700TIP3    H244516   2.709   2.236  11.960 -0.5049 -1.5780  0.4790
 7701TIP3   OH244517   5.775   6.299   2.334  0.3299 -0.3848  0.1978
 7701TIP3    H144518   5.765   6.300   2.238 -0.7170 -1.3808  0.2754
 7701TIP3    H244519   5.727   6.377   2.363 -1.0732 -1.1443  0.0217
 7702TIP3   OH244520   4.312   2.888  13.401  0.0530  0.0212 -0.3915
 7702TIP3    H144521   4.270   2.955  13.454 -0.9960 -0.3172 -0.7698
 7702TIP3    H244522   4.249   2.868  13.332  1.2195  0.1420 -1.5259
 7703TIP3   OH244523   2.404   1.452  12.750  0.3719 -0.1415 -0.7479
 7703TIP3    H144524   2.456   1.411  12.681 -0.8759  0.8570 -2.3557
 7703TIP3    H244525   2.416   1.546  12.736 -0.0377  0.0835  0.3138
 7704TIP3   OH244526   5.437   5.469  15.537 -0.0309 -0.2818  0.4617
 7704TIP3    H144527   5.407   5.489  15.448  1.7393  2.4940  0.3574
 7704TIP3    H244528   5.468   5.379  15.531 -3.3012 -1.4789 -0.6812
 7705TIP3   OH244529   2.193   1.813  13.853  0.6567  0.5507 -0.1158
 7705TIP3    H144530   2.229   1.793  13.940  0.2560 -1.1969 -0.3130
 7705TIP3    H244531   2.262   1.790  13.792 -0.2674 -1.6950 -0.4253
 7706TIP3   OH244532   6.076   0.736  15.552  1.1780  0.0724  0.2040
 7706TIP3    H144533   5.981   0.744  15.545  1.0900 -0.8897  0.1725
 7706TIP3    H244534   6.104   0.817  15.594  0.2770  0.0922  0.7893
 7707TIP3   OH244535   0.285   4.946  11.406  0.2428  0.2068  0.5295
 7707TIP3    H144536   0.199   4.934  11.366  0.9912 -0.3512 -1.0138
 7707TIP3    H244537   0.268   4.992  11.488 -1.3906  1.4756 -0.4536
 7708TIP3   OH244538   3.961   2.182  12.472  0.7098 -0.0088 -0.8333
 7708TIP3    H144539   3.876   2.147  12.446  0.8025 -1.1876  0.3476
 7708TIP3    H244540   3.984   2.133  12.551  1.0078  2.5090  0.7538
 7709TIP3   OH244541   5.663   0.474   5.975  0.8411  0.0498 -0.3566
 7709TIP3    H144542   5.638   0.536   6.044  2.0107 -0.7851  0.8664
 7709TIP3    H244543   5.757   0.464   5.985  0.8301 -1.1300 -1.2239
 7710TIP3   OH244544   2.334   0.211  14.540 -0.3614  0.3840  0.6689
 7710TIP3    H144545   2.275   0.221  14.615  0.4551 -1.9063  1.7203
 7710TIP3    H244546   2.359   0.119  14.541 -0.0488  0.3374 -2.2731
 7711TIP3   OH244547   5.736   4.509  10.719 -0.0159 -0.5754 -0.2673
 7711TIP3    H144548   5.725   4.581  10.657 -2.1827  0.2101  0.8903
 7711TIP3    H244549   5.680   4.439  10.686 -0.1967 -0.6232  0.1269
 7712TIP3   OH244550   2.876   3.468  10.701 -0.0428 -0.5895  0.5677
 7712TIP3    H144551   2.781   3.478  10.710 -0.1250  1.1840 -1.5454
 7712TIP3    H244552   2.911   3.556  10.719  1.1837 -1.1238  0.9127
 7713TIP3   OH244553   2.640   0.433   1.928  0.1603  0.4961 -0.0254
 7713TIP3    H144554   2.726   0.474   1.919  0.1646  0.8016  1.1625
 7713TIP3    H244555   2.632   0.375   1.852  2.0981 -0.7435  0.6450
 7714TIP3   OH244556   6.754   1.007  10.769  0.1409  0.4452 -0.0308
 7714TIP3    H144557   6.828   0.975  10.717  1.1034 -0.1094  1.5954
 7714TIP3    H244558   6.778   1.097  10.792 -0.2234  0.6482 -0.4361
 7715TIP3   OH244559   5.152   0.957  10.558  0.6503  0.0754  0.3700
 7715TIP3    H144560   5.095   0.904  10.614  1.0447 -0.4259  0.2976
 7715TIP3    H244561   5.240   0.943  10.593  0.6504  1.5042  1.0058
 7716TIP3   OH244562   1.707   0.190  12.258 -0.1486 -0.1253 -0.2711
 7716TIP3    H144563   1.707   0.268  12.203  0.2209  1.4657  1.8903
 7716TIP3    H244564   1.800   0.165  12.263 -0.1796 -0.2485 -0.2897
 7717TIP3   OH244565   0.455   0.495  12.468  0.0376  0.3557 -1.0497
 7717TIP3    H144566   0.403   0.563  12.511 -0.4185 -1.6153  1.8137
 7717TIP3    H244567   0.393   0.424  12.450  0.8870 -0.1986 -1.8899
 7718TIP3   OH244568   4.147   4.228   1.347  0.0079  0.1690 -0.3106
 7718TIP3    H144569   4.236   4.194   1.343 -0.7691 -1.9333 -1.0267
 7718TIP3    H244570   4.099   4.163   1.398 -1.7290 -0.3304 -2.4156
 7719TIP3   OH244571   1.007   3.122   0.888 -0.5187  0.1067 -0.3207
 7719TIP3    H144572   0.967   3.092   0.806  1.3215  1.1975 -1.6800
 7719TIP3    H244573   0.953   3.197   0.914 -0.7808  0.1119 -0.8598
 7720TIP3   OH244574   5.214   3.307  16.920  0.3921  0.7244  0.1975
 7720TIP3    H144575   5.193   3.229  16.972  0.5631  1.3117  1.1688
 7720TIP3    H244576   5.175   3.380  16.969  0.5771  1.3000 -0.4935
 7721TIP3   OH244577   3.808   4.001   5.449 -0.0489 -0.2898  0.3521
 7721TIP3    H144578   3.755   3.977   5.372 -0.0801  1.1002 -0.0748
 7721TIP3    H244579   3.755   3.972   5.523 -0.8893  0.0181 -0.1053
 7722TIP3   OH244580   1.511   4.917  16.640  0.4233 -0.1997  0.0599
 7722TIP3    H144581   1.488   4.984  16.703  1.4837  0.6648 -0.4299
 7722TIP3    H244582   1.598   4.943  16.608  0.3059 -1.1035 -1.0763
 7723TIP3   OH244583   6.616   3.656  14.100 -0.3293  0.0531  0.1401
 7723TIP3    H144584   6.668   3.592  14.150 -0.8213 -1.2771 -0.9643
 7723TIP3    H244585   6.533   3.611  14.084 -0.7339  1.0332 -0.5687
 7724TIP3   OH244586   4.568   1.332  15.889 -0.2974 -0.0420  1.1454
 7724TIP3    H144587   4.484   1.304  15.926  0.2815  1.5140  3.9635
 7724TIP3    H244588   4.567   1.427  15.895  0.9222  0.1309 -0.6287
 7725TIP3   OH244589   4.817   6.609  14.065  0.5561 -0.1793  0.1388
 7725TIP3    H144590   4.883   6.582  14.001 -0.6085 -0.5997 -0.9260
 7725TIP3    H244591   4.857   6.591  14.150  1.5199 -1.1203 -0.4933
 7726TIP3   OH244592   6.139   6.455   1.487 -0.0609 -0.3047 -0.0820
 7726TIP3    H144593   6.191   6.400   1.429 -1.0579 -0.2813 -1.0226
 7726TIP3    H244594   6.152   6.417   1.574  1.5610 -0.2579 -0.2737
 7727TIP3   OH244595   2.397   1.499  14.256  0.2943  0.5608  0.3424
 7727TIP3    H144596   2.323   1.458  14.301  0.6108  0.6232  0.9382
 7727TIP3    H244597   2.438   1.427  14.208 -0.6356  0.6934 -0.6706
 7728TIP3   OH244598   0.802   1.778   1.560 -0.4622  0.6178 -0.1061
 7728TIP3    H144599   0.846   1.698   1.533  1.1624  1.7800 -1.0565
 7728TIP3    H244600   0.868   1.847   1.549 -1.2471  1.8684  2.2808
 7729TIP3   OH244601   4.329   4.644   0.503 -0.2132 -0.0841  0.1240
 7729TIP3    H144602   4.236   4.640   0.528 -0.9252 -4.4789 -2.2329
 7729TIP3    H244603   4.375   4.601   0.575 -0.2056  0.4518  0.4484
 7730TIP3   OH244604   5.414   2.601   1.644  0.1792  0.5959 -0.0165
 7730TIP3    H144605   5.499   2.558   1.632 -0.1671  0.3422 -1.8317
 7730TIP3    H244606   5.350   2.536   1.616 -0.4373  1.7414 -1.4092
 7731TIP3   OH244607   5.255   6.268   4.092 -0.3631 -0.2854 -0.0611
 7731TIP3    H144608   5.261   6.300   4.002  1.3916 -1.9518 -0.6037
 7731TIP3    H244609   5.202   6.189   4.086  1.3669 -1.5048 -0.0190
 7732TIP3   OH244610   3.632   0.677   0.118 -0.2846  0.0237 -0.4028
 7732TIP3    H144611   3.602   0.630   0.195  1.1061 -1.6820 -0.8577
 7732TIP3    H244612   3.707   0.728   0.148  0.7960 -1.2997 -0.7500
 7733TIP3   OH244613   5.595   2.864   2.524 -0.2388 -0.5646  0.1605
 7733TIP3    H144614   5.564   2.811   2.596  0.0054 -0.2785  0.4793
 7733TIP3    H244615   5.683   2.831   2.505 -0.2656 -0.5784  0.0578
 7734TIP3   OH244616   0.001   2.606   3.281 -0.2093 -0.1439 -0.3891
 7734TIP3    H144617   0.052   2.623   3.202  0.5690  0.4248  0.2244
 7734TIP3    H244618  -0.015   2.512   3.280  1.4723 -0.4508 -0.2220
 7735TIP3   OH244619   1.185   2.112  17.016  0.0182  0.5869 -0.2177
 7735TIP3    H144620   1.195   2.021  16.988  1.3938  0.5691  0.2523
 7735TIP3    H244621   1.274   2.143  17.029 -0.4317  2.0298 -0.4127
 7736TIP3   OH244622   1.505   4.252  15.918  0.4987  0.2977 -0.3343
 7736TIP3    H144623   1.568   4.182  15.933 -0.1746 -0.3426 -0.4386
 7736TIP3    H244624   1.449   4.250  15.995 -1.1106 -1.0063 -1.4718
 7737TIP3   OH244625   5.689   5.032  15.231  0.6237  0.3438  0.5116
 7737TIP3    H144626   5.676   4.947  15.272  1.2682  0.5554  1.1785
 7737TIP3    H244627   5.601   5.065  15.215  0.3545  0.0304  1.2796
 7738TIP3   OH244628   5.128   0.641  14.891  0.4768 -0.0790  1.3086
 7738TIP3    H144629   5.136   0.575  14.960  0.5919 -1.1003  0.3559
 7738TIP3    H244630   5.196   0.617  14.827  0.8546  1.2697  1.1637
 7739TIP3   OH244631   3.331   0.724   5.074 -0.0798  0.4031  0.4948
 7739TIP3    H144632   3.403   0.717   5.137 -0.6351 -0.5159  1.0541
 7739TIP3    H244633   3.356   0.796   5.017  1.3945 -0.0398  0.5388
 7740TIP3   OH244634   4.566   1.862   4.294 -0.0931 -0.2892  0.0875
 7740TIP3    H144635   4.485   1.881   4.339 -0.4545 -2.0052  0.2131
 7740TIP3    H244636   4.626   1.833   4.363  0.9086  1.6665  0.1110
 7741TIP3   OH244637   1.982   5.795   5.460  0.0495  0.2862  0.3911
 7741TIP3    H144638   1.887   5.791   5.446  0.2571  0.6670 -1.4208
 7741TIP3    H244639   2.002   5.889   5.461  0.7996  0.2950 -2.9833
 7742TIP3   OH244640   0.990   0.510   4.728  0.5630  0.6947  0.3970
 7742TIP3    H144641   0.917   0.572   4.729  0.2844  0.4722 -1.4916
 7742TIP3    H244642   0.948   0.424   4.723  0.9472  0.3014  2.8409
 7743TIP3   OH244643   1.166   3.573   1.858  0.1745  0.3111  0.0370
 7743TIP3    H144644   1.165   3.590   1.764  0.2490  2.0746  0.3233
 7743TIP3    H244645   1.074   3.563   1.882  0.2401 -3.9131 -0.7645
 7744TIP3   OH244646   5.334   1.756  13.881  0.8311 -0.1421  0.2606
 7744TIP3    H144647   5.345   1.716  13.967  0.0672 -1.0001 -0.0238
 7744TIP3    H244648   5.286   1.838  13.898 -0.8670 -1.1400  0.5099
 7745TIP3   OH244649   1.036   5.080   4.166 -0.3419 -0.5943 -0.2923
 7745TIP3    H144650   1.067   5.062   4.077 -3.8683  1.4575 -2.1448
 7745TIP3    H244651   0.960   5.023   4.177 -0.1037 -0.6368  1.3317
 7746TIP3   OH244652   0.418   3.419  17.019  0.4595 -0.0305 -0.2890
 7746TIP3    H144653   0.324   3.433  17.031 -0.0680 -1.9878 -1.6203
 7746TIP3    H244654   0.439   3.467  16.938  0.4230 -0.2513 -0.4306
 7747TIP3   OH244655   3.424   6.562   3.684 -0.7115 -0.1883  0.0866
 7747TIP3    H144656   3.467   6.560   3.599 -0.2636  0.3643  0.2980
 7747TIP3    H244657   3.444   6.477   3.723 -1.1059 -0.5301 -0.4478
 7748TIP3   OH244658   2.548   4.143   4.619  0.0545  0.6398 -0.3411
 7748TIP3    H144659   2.497   4.160   4.540 -0.8599  0.1912  0.1425
 7748TIP3    H244660   2.540   4.223   4.670 -0.4629  0.4437 -0.1098
 7749TIP3   OH244661   4.546   2.931  11.307 -0.3470 -1.1439 -0.5231
 7749TIP3    H144662   4.460   2.891  11.304 -0.8022 -0.1643 -1.1173
 7749TIP3    H244663   4.551   2.986  11.228  0.6875 -0.9357 -0.3396
 7750TIP3   OH244664   6.027   1.268   5.962  0.0668  0.0106 -0.0874
 7750TIP3    H144665   5.980   1.195   5.922 -2.2540  0.2998  1.8489
 7750TIP3    H244666   6.044   1.238   6.052  0.9910  1.0432  0.0972
 7751TIP3   OH244667   6.353   6.074   5.915 -0.0837  0.2440 -0.1349
 7751TIP3    H144668   6.378   5.985   5.893  0.3383  0.5404 -0.8858
 7751TIP3    H244669   6.288   6.065   5.984  0.8766 -0.6074  0.6968
 7752TIP3   OH244670   1.049   5.265  13.056 -0.2616  0.2424  0.5454
 7752TIP3    H144671   0.979   5.329  13.043 -0.5095 -0.0262  0.5331
 7752TIP3    H244672   1.046   5.211  12.977 -1.1994 -0.8572  1.2998
 7753TIP3   OH244673   3.285   2.563  13.067 -0.1928  0.2401 -0.5392
 7753TIP3    H144674   3.195   2.577  13.097 -0.1201 -1.6536  0.7119
 7753TIP3    H244675   3.294   2.468  13.060  1.3189  0.4398 -1.9528
 7754TIP3   OH244676   5.730   6.746  15.185  0.1652  0.2827 -0.4256
 7754TIP3    H144677   5.734   6.728  15.091 -0.4305  0.5676 -0.5112
 7754TIP3    H244678   5.652   6.802  15.195  0.4989  0.6480  0.1721
 7755TIP3   OH244679   1.976   3.817  15.384 -0.1335 -0.4033  0.1604
 7755TIP3    H144680   1.912   3.864  15.437  0.0402 -0.3378  0.3126
 7755TIP3    H244681   2.049   3.800  15.443 -0.6865 -1.9247  0.4721
 7756TIP3   OH244682   2.563   3.124   3.440 -0.5483 -0.3281 -0.8215
 7756TIP3    H144683   2.615   3.105   3.518 -2.1046 -0.0808  0.3206
 7756TIP3    H244684   2.612   3.084   3.369  2.1010  1.3604 -0.1004
 7757TIP3   OH244685   4.214   2.826   0.287 -0.1957 -0.4605  0.2832
 7757TIP3    H144686   4.252   2.908   0.316 -1.4434 -0.3862  1.8819
 7757TIP3    H244687   4.201   2.837   0.193  1.0962  0.5434  0.1961
 7758TIP3   OH244688   4.188   6.037   5.308 -0.2488  0.0931  0.3660
 7758TIP3    H144689   4.162   6.031   5.216  0.9097 -0.8045  0.0647
 7758TIP3    H244690   4.139   6.111   5.343 -1.5807 -0.2688 -0.6702
 7759TIP3   OH244691   0.900   0.752   4.311  0.0323 -0.5068 -0.9365
 7759TIP3    H144692   0.995   0.765   4.309 -0.0409  0.0932 -0.7184
 7759TIP3    H244693   0.882   0.695   4.236  0.3273  1.0172 -2.2142
 7760TIP3   OH244694   2.717   4.078   6.217 -0.3599 -0.1870  0.2753
 7760TIP3    H144695   2.644   4.018   6.230 -0.1287 -0.2660  1.2327
 7760TIP3    H244696   2.734   4.116   6.303  0.9403 -0.4250  0.1475
 7761TIP3   OH244697   6.720   4.479   5.362 -0.2975 -0.2333 -0.0156
 7761TIP3    H144698   6.710   4.432   5.279 -0.6503  0.1873 -0.2132
 7761TIP3    H244699   6.777   4.552   5.342 -0.0414 -0.3681  0.2120
 7762TIP3   OH244700   2.236   2.334   4.551 -0.2577 -0.6811 -0.7101
 7762TIP3    H144701   2.160   2.316   4.495 -1.2300 -0.7435  0.5848
 7762TIP3    H244702   2.269   2.419   4.521 -2.9344  1.0458  0.8580
 7763TIP3   OH244703   2.552   1.744  17.223 -0.7402 -0.0691  0.5449
 7763TIP3    H144704   2.604   1.703  17.154 -2.6732  0.1086 -1.1351
 7763TIP3    H244705   2.615   1.790  17.277  0.9258 -0.6420 -0.8184
 7764TIP3   OH244706   1.770   1.627   4.161  0.3268  0.4768  0.7486
 7764TIP3    H144707   1.737   1.607   4.073  1.0310 -0.2711  0.6433
 7764TIP3    H244708   1.819   1.709   4.150  2.1518 -0.6503 -0.0217
 7765TIP3   OH244709   2.553   0.044   3.307  0.5243 -0.1911  0.1828
 7765TIP3    H144710   2.564  -0.051   3.303 -2.2561 -0.5975  0.1373
 7765TIP3    H244711   2.577   0.074   3.220 -0.0431 -1.0622 -0.2914
 7766TIP3   OH244712   3.040   0.304   1.274 -0.4901 -0.5191 -0.9311
 7766TIP3    H144713   3.043   0.208   1.269  0.2123 -0.6817  1.4442
 7766TIP3    H244714   3.074   0.333   1.190 -1.7477 -2.3284 -2.1443
 7767TIP3   OH244715   0.779   2.796  16.441 -0.0192  0.0349  0.2195
 7767TIP3    H144716   0.824   2.873  16.476 -1.4303  0.7159  0.6225
 7767TIP3    H244717   0.690   2.803  16.476 -0.0985 -1.9694  0.5570
 7768TIP3   OH244718   0.253   1.488   1.088 -1.0574  0.1517  0.4688
 7768TIP3    H144719   0.279   1.496   0.996 -2.0455  0.0167  0.1639
 7768TIP3    H244720   0.168   1.444   1.085 -0.6831 -0.6938  1.5002
 7769TIP3   OH244721   4.153   3.897   4.368 -0.1745  0.1268  0.4095
 7769TIP3    H144722   4.062   3.923   4.387 -0.2566  0.6483 -0.5692
 7769TIP3    H244723   4.152   3.876   4.275  0.7911  0.5337  0.2922
 7770TIP3   OH244724   1.920   2.957  14.050 -0.5121 -0.4092 -0.6580
 7770TIP3    H144725   1.840   3.008  14.038 -1.1528 -1.6165 -1.8004
 7770TIP3    H244726   1.915   2.925  14.140 -0.3857  0.9890 -0.1159
 7771TIP3   OH244727   0.841   6.758  12.571 -0.3971 -0.4896  0.3099
 7771TIP3    H144728   0.881   6.719  12.648 -1.6598  0.5906  1.5596
 7771TIP3    H244729   0.850   6.852  12.583 -1.4940 -0.2690 -0.3497
 7772TIP3   OH244730   5.820   0.415   4.616 -0.4605 -0.2869 -0.7007
 7772TIP3    H144731   5.852   0.326   4.608 -1.4864 -0.7548  0.2401
 7772TIP3    H244732   5.792   0.423   4.708 -1.2686  0.6873 -1.0110
 7773TIP3   OH244733   4.757   0.202   4.350  0.2072 -0.1802  0.2430
 7773TIP3    H144734   4.691   0.211   4.282  0.7425 -0.7074 -0.3664
 7773TIP3    H244735   4.710   0.168   4.426 -0.1571 -0.8797 -0.2906
 7774TIP3   OH244736   4.829   3.017   2.860  0.3289  0.2632 -0.2787
 7774TIP3    H144737   4.911   2.976   2.831  0.5100  0.2139  0.2918
 7774TIP3    H244738   4.851   3.110   2.869 -0.2425  0.6173 -2.1705
 7775TIP3   OH244739   3.787   5.863  14.331 -0.2988  0.3162 -0.2752
 7775TIP3    H144740   3.713   5.892  14.385 -0.1587  1.4251 -0.6581
 7775TIP3    H244741   3.778   5.767  14.328 -1.3486  0.3829  0.2108
 7776TIP3   OH244742   2.326   2.073  17.298 -0.3200  0.3757 -0.4237
 7776TIP3    H144743   2.303   2.151  17.349  0.2646  0.1075  0.2842
 7776TIP3    H244744   2.252   2.059  17.240 -1.2802  0.3590  0.7673
 7777TIP3   OH244745   2.469   2.945   3.774  0.3831  0.5851  0.0008
 7777TIP3    H144746   2.494   2.885   3.844 -0.5176  0.6945  0.4306
 7777TIP3    H244747   2.490   2.898   3.694 -2.5440 -1.4169  0.2376
 7778TIP3   OH244748   1.609   6.007   1.383 -0.1680  0.3114  0.2888
 7778TIP3    H144749   1.523   6.025   1.422  1.0340  1.5446  2.5799
 7778TIP3    H244750   1.619   6.073   1.315 -0.8327  0.4651  0.3383
 7779TIP3   OH244751   4.756   4.756   3.665  0.0116 -0.6287 -0.4287
 7779TIP3    H144752   4.699   4.720   3.597 -1.3716  0.3464  0.1598
 7779TIP3    H244753   4.715   4.839   3.690 -0.1535 -1.4178  2.3057
 7780TIP3   OH244754   2.458   3.524  12.348 -0.0009  0.0939  0.1909
 7780TIP3    H144755   2.526   3.589  12.336  0.0021  0.1795  0.6584
 7780TIP3    H244756   2.499   3.455  12.401 -0.6949  0.8374  1.7546
 7781TIP3   OH244757   2.720   6.318  12.882  0.2999  0.0767  0.0656
 7781TIP3    H144758   2.724   6.254  12.811  1.5545 -0.1657  0.3247
 7781TIP3    H244759   2.790   6.380  12.863  0.5397  0.1089  0.9860
 7782TIP3   OH244760   5.942   4.626  14.860 -0.1908 -0.2932 -0.3639
 7782TIP3    H144761   5.978   4.566  14.926  0.1511  1.2222  0.9060
 7782TIP3    H244762   5.878   4.678  14.908 -1.3608 -0.4348 -1.7246
 7783TIP3   OH244763   5.120   4.916  11.772  0.1245 -0.6689 -0.2733
 7783TIP3    H144764   5.042   4.966  11.794 -0.5458 -2.4107  1.6924
 7783TIP3    H244765   5.185   4.982  11.747 -0.5742  1.2905  2.5350
 7784TIP3   OH244766   6.198   5.302  11.223  0.1928  0.4158 -0.4915
 7784TIP3    H144767   6.147   5.229  11.188 -2.7160  2.0122  0.0870
 7784TIP3    H244768   6.199   5.288  11.318  2.6384 -0.6143 -0.6111
 7785TIP3   OH244769   0.894   2.714   2.816  0.2623  0.3390 -0.7039
 7785TIP3    H144770   0.857   2.694   2.730 -2.1708  1.9510 -0.1259
 7785TIP3    H244771   0.899   2.630   2.861  1.8537 -0.5728 -2.4480
 7786TIP3   OH244772   4.782   0.842  16.673 -0.6273  1.0587 -0.1664
 7786TIP3    H144773   4.806   0.925  16.713 -0.4854  0.9576 -0.0370
 7786TIP3    H244774   4.751   0.789  16.747  1.9481 -0.0006  0.2789
 7787TIP3   OH244775   0.181   5.412   1.640 -0.2154  0.4934  0.6544
 7787TIP3    H144776   0.237   5.477   1.597 -0.6174  0.7705  0.5440
 7787TIP3    H244777   0.190   5.431   1.733 -1.3146  1.5406  0.5698
 7788TIP3   OH244778   1.421   2.639   2.582  0.0390  0.1049  0.5107
 7788TIP3    H144779   1.343   2.681   2.544 -1.1279 -2.5864 -0.3000
 7788TIP3    H244780   1.485   2.641   2.511  0.1998  0.9585  0.6664
 7789TIP3   OH244781   1.123   3.371   6.429 -0.3782 -0.5904  0.3526
 7789TIP3    H144782   1.184   3.340   6.495 -0.2582 -0.5467  0.2641
 7789TIP3    H244783   1.110   3.464   6.449 -1.6809 -0.9562  1.3511
 7790TIP3   OH244784   5.143   6.075  15.477 -0.4338 -0.1002 -0.6003
 7790TIP3    H144785   5.097   6.029  15.407 -1.1323  0.0513 -0.2408
 7790TIP3    H244786   5.114   6.166  15.468 -0.0977  0.0216 -0.4590
 7791TIP3   OH244787   1.373   4.375  12.540 -0.5545 -0.1959 -0.6840
 7791TIP3    H144788   1.375   4.366  12.445 -0.0757  0.0098 -0.6973
 7791TIP3    H244789   1.436   4.310  12.571  0.4823  0.8155 -0.6021
 7792TIP3   OH244790   5.056   2.234   1.778 -0.1818  0.0957 -0.0787
 7792TIP3    H144791   5.048   2.327   1.756 -0.9608  0.7987  2.8252
 7792TIP3    H244792   5.149   2.221   1.793  0.2307 -0.1619 -2.4220
 7793TIP3   OH244793   4.719   2.239  13.692  0.0016 -0.2794 -0.0598
 7793TIP3    H144794   4.672   2.309  13.647  1.3154  0.7431  0.0871
 7793TIP3    H244795   4.809   2.272  13.700  0.8107 -2.2408 -0.5123
 7794TIP3   OH244796   3.265   5.716  17.323 -0.2527 -0.1384  0.3893
 7794TIP3    H144797   3.312   5.633  17.336  0.6957  0.2663 -0.3485
 7794TIP3    H244798   3.225   5.707  17.236  1.1914  0.7687 -0.4158
 7795TIP3   OH244799   2.123   3.127  15.842 -0.0317  0.0313  0.6029
 7795TIP3    H144800   2.091   3.056  15.899 -0.2160 -0.2927  0.0993
 7795TIP3    H244801   2.044   3.170  15.810  0.0575 -0.1141  0.1823
 7796TIP3   OH244802   0.160   4.688   0.473  0.6333 -0.2105 -0.3569
 7796TIP3    H144803   0.154   4.667   0.567 -0.6397 -2.0785 -0.8100
 7796TIP3    H244804   0.109   4.767   0.463  0.7052 -0.0415  0.5146
 7797TIP3   OH244805   3.901   1.720  14.041  0.1067  0.0411 -0.3108
 7797TIP3    H144806   3.885   1.642  14.093  1.2490  0.1175  0.1947
 7797TIP3    H244807   3.824   1.775  14.054 -0.6012 -0.8925 -0.4864
 7798TIP3   OH244808   3.699   4.223  14.786  0.4054 -0.0681 -0.2282
 7798TIP3    H144809   3.790   4.198  14.798  0.7864  1.3102 -0.0980
 7798TIP3    H244810   3.698   4.275  14.706  0.0214  1.1531  0.5290
 7799TIP3   OH244811   1.776   4.211  13.605  0.2290 -0.2406 -0.6861
 7799TIP3    H144812   1.858   4.200  13.654  0.0451  0.1718 -0.2840
 7799TIP3    H244813   1.769   4.305  13.591  0.1883 -0.3383 -1.3566
 7800TIP3   OH244814   4.717   5.314  16.976 -0.5294 -0.2025 -0.3022
 7800TIP3    H144815   4.769   5.254  16.921 -0.5953 -0.7968  0.2667
 7800TIP3    H244816   4.664   5.256  17.031 -1.1090  0.3938 -0.2244
 7801TIP3   OH244817   4.853   6.146  12.246 -0.7043  0.0467  0.0554
 7801TIP3    H144818   4.781   6.085  12.266  0.1991 -1.1422 -0.2291
 7801TIP3    H244819   4.875   6.183  12.332  0.5615 -2.1313  0.7572
 7802TIP3   OH244820   4.227   3.434   1.161 -0.0349  0.1299  0.2641
 7802TIP3    H144821   4.208   3.340   1.163 -0.4161  0.1676 -0.8020
 7802TIP3    H244822   4.270   3.452   1.244 -1.5365 -0.6509  1.2473
 7803TIP3   OH244823   2.472   4.713  11.925 -0.0099 -0.8623 -0.0003
 7803TIP3    H144824   2.465   4.750  11.837  1.1627 -1.6532 -0.4535
 7803TIP3    H244825   2.425   4.630  11.919  0.1628 -0.9667  0.0788
 7804TIP3   OH244826   0.379   1.220  14.201 -0.0363 -0.0961 -0.3784
 7804TIP3    H144827   0.468   1.219  14.238 -0.0810  0.1407 -0.2674
 7804TIP3    H244828   0.326   1.267  14.266 -0.1411  0.2022 -0.6794
 7805TIP3   OH244829   0.481   0.757   3.666  0.1302  0.2134  0.4606
 7805TIP3    H144830   0.483   0.723   3.756 -0.5394 -0.0974  0.3634
 7805TIP3    H244831   0.388   0.766   3.646 -0.0460 -4.1330 -1.8547
 7806TIP3   OH244832   4.933   0.297   6.153 -0.0678 -0.1802 -0.1802
 7806TIP3    H144833   4.849   0.323   6.190 -0.6081 -1.2215 -0.6562
 7806TIP3    H244834   4.977   0.251   6.225  0.4816  1.1164  0.3479
 7807TIP3   OH244835   0.078   4.793   4.992  0.4117  0.3820  0.0738
 7807TIP3    H144836   0.161   4.744   4.990 -0.5331 -1.2777 -0.6994
 7807TIP3    H244837   0.048   4.785   5.082 -0.2654 -1.5066 -0.2675
 7808TIP3   OH244838   3.922   1.755  13.602  0.0959 -0.2984  0.1731
 7808TIP3    H144839   3.971   1.818  13.549 -0.2287  0.2036  0.4647
 7808TIP3    H244840   3.833   1.790  13.604  0.0621 -0.4217  0.8883
 7809TIP3   OH244841   4.741   2.373   2.111  0.1166  0.0311 -0.4883
 7809TIP3    H144842   4.751   2.449   2.053 -0.1482 -0.0397 -0.6266
 7809TIP3    H244843   4.782   2.301   2.063  0.2500  0.0582 -0.4150
 7810TIP3   OH244844   1.839   0.133  14.359 -0.2233  0.5596 -0.5686
 7810TIP3    H144845   1.830   0.165  14.449  1.4735 -1.6903  0.4697
 7810TIP3    H244846   1.758   0.086  14.342 -0.8227  1.5269 -0.4958
 7811TIP3   OH244847   6.207   1.419   1.253 -0.0508 -0.5601  0.0243
 7811TIP3    H144848   6.232   1.399   1.163 -1.4750 -0.7986 -0.3311
 7811TIP3    H244849   6.253   1.353   1.305  1.2589 -0.0616 -0.4375
 7812TIP3   OH244850   5.032   5.524  13.747 -0.0181 -0.3403 -0.1648
 7812TIP3    H144851   5.095   5.499  13.680  0.2610 -2.8549  0.9287
 7812TIP3    H244852   4.950   5.539  13.699  0.5628 -0.4511 -1.2149
 7813TIP3   OH244853   3.893   1.225  15.752 -0.0546  0.2941 -0.2968
 7813TIP3    H144854   3.954   1.245  15.822 -0.7030  2.4327 -0.2895
 7813TIP3    H244855   3.811   1.204  15.797  0.3664 -1.7048 -0.3441
 7814TIP3   OH244856   0.355   3.705   5.756  0.3022  0.0406  0.7492
 7814TIP3    H144857   0.309   3.766   5.814  1.2973  2.0979 -0.4748
 7814TIP3    H244858   0.447   3.710   5.783  0.9924  1.9335 -1.5650
 7815TIP3   OH244859   1.067   3.848  16.055 -0.4101  0.7494  0.2297
 7815TIP3    H144860   1.028   3.928  16.090  1.6217  1.5078  0.9550
 7815TIP3    H244861   1.132   3.879  15.992 -0.0798 -0.3740 -0.0016
 7816TIP3   OH244862   3.130   3.072  15.404  0.4199  0.2058 -0.5499
 7816TIP3    H144863   3.035   3.069  15.413  0.3808 -1.0674 -1.2361
 7816TIP3    H244864   3.162   3.047  15.491  0.1330  0.6506 -0.3123
 7817TIP3   OH244865   3.244   3.466  13.946 -0.7620 -0.2246 -0.0493
 7817TIP3    H144866   3.193   3.466  14.027 -0.1366 -1.7359  0.3716
 7817TIP3    H244867   3.183   3.498  13.879 -1.6921 -0.2459  0.7681
 7818TIP3   OH244868   0.068   6.518   4.539  0.3666  0.6361 -0.3885
 7818TIP3    H144869   0.076   6.598   4.487 -1.0344  1.0631  0.0001
 7818TIP3    H244870   0.065   6.448   4.475 -0.0484  1.0453 -0.8261
 7819TIP3   OH244871   1.294   4.923   1.332  0.2584  0.3101  0.3153
 7819TIP3    H144872   1.205   4.928   1.368 -0.1543 -1.8404 -0.2669
 7819TIP3    H244873   1.301   4.834   1.298  2.7519  0.3341  0.5901
 7820TIP3   OH244874   3.553   4.278   1.659  0.4503  0.2901  0.2635
 7820TIP3    H144875   3.585   4.236   1.579  0.2383  0.7286 -0.0534
 7820TIP3    H244876   3.541   4.370   1.636 -0.5679  0.2376  0.5095
 7821TIP3   OH244877   0.291   3.893   4.633  0.1042 -0.0929 -0.1337
 7821TIP3    H144878   0.211   3.943   4.652 -0.6368 -1.6646  1.1133
 7821TIP3    H244879   0.261   3.803   4.623  1.4305 -0.3467 -2.2403
 7822TIP3   OH244880   2.508   2.399   3.112  0.2545 -0.3686  0.2684
 7822TIP3    H144881   2.434   2.376   3.169  0.6264 -2.4308 -0.0040
 7822TIP3    H244882   2.580   2.418   3.172 -0.7284  2.9392  0.5911
 7823TIP3   OH244883   2.954   2.617   4.208 -0.3005  0.2024 -0.1904
 7823TIP3    H144884   2.985   2.527   4.206 -0.0607  0.2891 -0.7766
 7823TIP3    H244885   3.001   2.660   4.136 -0.4705  0.7733  0.0295
 7824TIP3   OH244886   3.822   5.144   5.259 -0.2603  0.0605  0.1003
 7824TIP3    H144887   3.833   5.234   5.227  0.8992  0.1674  0.7693
 7824TIP3    H244888   3.803   5.093   5.180  0.8597  0.6109 -0.5543
 7825TIP3   OH244889   2.879   5.054  15.502  0.1155 -0.5992  0.3729
 7825TIP3    H144890   2.904   4.961  15.509 -0.1483 -0.7976 -1.0832
 7825TIP3    H244891   2.854   5.065  15.410  0.2973  0.9642  0.4937
 7826TIP3   OH244892   4.606   3.240  15.602 -0.6371  0.9757  0.6659
 7826TIP3    H144893   4.517   3.223  15.571 -0.2944  0.6698 -0.2057
 7826TIP3    H244894   4.596   3.305  15.671 -1.5265  1.0226  0.5069
 7827TIP3   OH244895   5.732   6.427   4.498 -0.1027  0.2455 -0.1590
 7827TIP3    H144896   5.693   6.507   4.532 -0.9097 -0.1819 -0.0729
 7827TIP3    H244897   5.757   6.449   4.408 -2.5359 -0.1004 -0.9836
 7828TIP3   OH244898   5.282   0.985  15.034  0.0825  0.2663 -0.4234
 7828TIP3    H144899   5.352   1.021  15.088 -0.9164  1.1105  0.3546
 7828TIP3    H244900   5.324   0.915  14.984  1.3207  0.2956  0.5216
 7829TIP3   OH244901   0.939   2.243   5.869 -0.1893 -0.0727  0.5693
 7829TIP3    H144902   0.938   2.303   5.944  0.7074  0.0346  0.4980
 7829TIP3    H244903   0.926   2.156   5.908 -1.6045  0.1603  0.6619
 7830TIP3   OH244904   0.845   0.420   3.236 -0.2771  0.4408  0.1204
 7830TIP3    H144905   0.877   0.437   3.147 -0.5914  1.7975  0.2463
 7830TIP3    H244906   0.809   0.331   3.232  0.6249  0.0971 -0.8382
 7831TIP3   OH244907   0.529   2.903  13.469  0.4433 -0.3385 -0.4515
 7831TIP3    H144908   0.526   2.984  13.418  1.4375  0.3657  0.5438
 7831TIP3    H244909   0.464   2.916  13.538 -0.1726 -0.8597 -0.9244
 7832TIP3   OH244910   0.808   3.476  14.153  0.2664  0.2884  0.1212
 7832TIP3    H144911   0.852   3.556  14.183  1.8690 -0.9434  1.2454
 7832TIP3    H244912   0.715   3.494  14.165  0.4572  2.6033 -1.2968
 7833TIP3   OH244913   4.473   5.480   0.296 -0.2576 -0.0441 -0.2705
 7833TIP3    H144914   4.447   5.514   0.382 -0.7412 -0.1624 -0.3673
 7833TIP3    H244915   4.463   5.555   0.237 -2.5216 -0.6455 -0.7154
 7834TIP3   OH244916   0.056   3.903  10.394 -0.3233  0.3908 -0.6382
 7834TIP3    H144917   0.110   3.980  10.412  0.9994 -0.4484 -0.8343
 7834TIP3    H244918   0.119   3.834  10.374 -1.3876 -1.1763  1.1071
 7835TIP3   OH244919   6.651   4.119   5.830 -0.6924 -1.0348  0.3425
 7835TIP3    H144920   6.562   4.114   5.865 -0.2990 -3.8395  1.1902
 7835TIP3    H244921   6.639   4.124   5.735 -1.7261  0.5340  0.5215
 7836TIP3   OH244922   2.631   3.076  11.689 -0.0049 -0.6138 -0.4098
 7836TIP3    H144923   2.546   3.083  11.733  0.2377  1.0709 -0.1362
 7836TIP3    H244924   2.619   3.122  11.606  0.8627  0.4468  0.0223
 7837TIP3   OH244925   1.746   1.125  10.995  0.9944 -0.0851  0.0203
 7837TIP3    H144926   1.819   1.156  10.941  0.0085  0.6618 -0.9219
 7837TIP3    H244927   1.703   1.205  11.025 -1.6816 -0.3825 -2.5651
 7838TIP3   OH244928   3.761   6.662   1.641  0.2315 -0.3797 -0.4620
 7838TIP3    H144929   3.666   6.664   1.629  0.0708 -0.7438  0.6023
 7838TIP3    H244930   3.785   6.754   1.652  0.1074 -0.2263 -1.4305
 7839TIP3   OH244931   4.022   6.679  11.991  0.3910 -0.5377 -0.1914
 7839TIP3    H144932   4.115   6.684  11.971  0.3274 -2.0319 -1.0020
 7839TIP3    H244933   4.015   6.606  12.053 -0.2502 -0.4853 -0.1983
 7840TIP3   OH244934   0.102   6.106   2.554  0.1287  0.7329 -0.1776
 7840TIP3    H144935   0.082   6.110   2.460  0.1058  0.5418 -0.1801
 7840TIP3    H244936   0.104   6.013   2.575 -2.1715  0.7684  0.5071
 7841TIP3   OH244937   2.283   0.239   3.890  0.0130 -0.1557  0.6812
 7841TIP3    H144938   2.245   0.313   3.938 -0.5684  0.4154 -0.6350
 7841TIP3    H244939   2.290   0.269   3.800 -0.3741 -1.7584  0.0800
 7842TIP3   OH244940   6.211   4.035  15.763 -0.8159 -0.0107  0.4417
 7842TIP3    H144941   6.268   4.111  15.770  0.0427 -0.6773  0.9325
 7842TIP3    H244942   6.180   4.036  15.672 -0.9292  0.9895  0.4860
 7843TIP3   OH244943   0.915   5.503  11.982  0.3968 -0.3143 -0.9417
 7843TIP3    H144944   0.920   5.409  12.000 -0.4477  0.2186  3.1389
 7843TIP3    H244945   0.967   5.543  12.051 -1.3116  2.2679 -1.0146
 7844TIP3   OH244946   5.714   1.157   2.081  0.3478  0.1217  0.2805
 7844TIP3    H144947   5.674   1.165   2.168  1.0021 -0.0038  0.5976
 7844TIP3    H244948   5.690   1.239   2.037 -0.6820 -0.1654  0.2818
 7845TIP3   OH244949   2.252   5.528   0.214  0.1009 -0.1747  0.4342
 7845TIP3    H144950   2.290   5.462   0.156 -0.5624 -0.6112  0.4876
 7845TIP3    H244951   2.252   5.487   0.301 -0.1983 -0.0632  0.4899
 7846TIP3   OH244952   2.017   6.074   1.224  0.6156  0.2106 -0.4938
 7846TIP3    H144953   2.007   6.092   1.318  0.7247  0.6611 -0.5665
 7846TIP3    H244954   2.110   6.090   1.207  0.3827  1.2213 -0.9052
 7847TIP3   OH244955   1.270   4.145   2.687  0.1003  0.0844  0.1235
 7847TIP3    H144956   1.248   4.151   2.594 -0.1627  1.7555  0.2707
 7847TIP3    H244957   1.312   4.059   2.696  0.1326 -0.0997 -1.5276
 7848TIP3   OH244958   4.707   6.358   4.175 -0.3330  0.2757 -0.7017
 7848TIP3    H144959   4.724   6.345   4.081  2.8256 -1.9945  0.0089
 7848TIP3    H244960   4.794   6.368   4.214 -1.5934  2.6200  1.9158
 7849TIP3   OH244961   3.167   4.466  14.220 -0.0811 -0.1489 -0.6297
 7849TIP3    H144962   3.191   4.414  14.143 -0.7988  0.3779 -1.2141
 7849TIP3    H244963   3.208   4.551  14.205 -0.6019  0.1001 -0.6474
 7850TIP3   OH244964   0.663   3.172  11.784  0.1676 -0.6228  0.6044
 7850TIP3    H144965   0.589   3.113  11.800  0.0959 -0.4513  0.9176
 7850TIP3    H244966   0.628   3.240  11.728  0.1742 -0.7240  0.4785
 7851TIP3   OH244967   3.313   4.217   3.437  0.2993 -0.2256 -0.3618
 7851TIP3    H144968   3.256   4.292   3.422  1.0370  0.3367 -0.4136
 7851TIP3    H244969   3.336   4.186   3.350 -0.5030 -0.9211 -0.3472
 7852TIP3   OH244970   4.376   3.975  13.397  0.6153  0.0317 -0.2034
 7852TIP3    H144971   4.349   3.930  13.477  0.3403 -3.2003 -1.9322
 7852TIP3    H244972   4.298   3.973  13.342  1.1222  1.1945 -0.9966
 7853TIP3   OH244973   4.940   5.710  13.508  0.1728  0.0186  0.5151
 7853TIP3    H144974   4.908   5.797  13.487  2.5596  0.5720 -1.3407
 7853TIP3    H244975   4.955   5.669  13.423  0.9076 -1.4827  1.3303
 7854TIP3   OH244976   5.435   3.574   5.580  0.1773 -0.1715  0.1118
 7854TIP3    H144977   5.383   3.542   5.507  0.6480  0.4471 -0.5103
 7854TIP3    H244978   5.387   3.650   5.613  0.3921  0.0523 -0.0914
 7855TIP3   OH244979   0.757   1.482   2.697 -0.3359  0.1027 -0.0418
 7855TIP3    H144980   0.829   1.420   2.691 -0.4862 -0.2323  1.3123
 7855TIP3    H244981   0.758   1.529   2.614  1.2291 -0.1245 -0.1747
 7856TIP3   OH244982   2.161   0.083   0.212  0.1901 -0.2321 -0.2895
 7856TIP3    H144983   2.209   0.150   0.163  1.0637 -0.3316  0.4114
 7856TIP3    H244984   2.190   0.095   0.303 -2.2468  0.6968  0.4455
 7857TIP3   OH244985   3.022   6.707   0.465 -0.5103  0.6554  0.1802
 7857TIP3    H144986   3.039   6.795   0.499  0.1437  0.1582  1.1963
 7857TIP3    H244987   3.086   6.651   0.510 -1.6533 -0.5224  0.4079
 7858TIP3   OH244988   3.168   0.145  17.260  0.6390  0.3730 -0.6283
 7858TIP3    H144989   3.262   0.160  17.269  0.1580  3.0514  0.8644
 7858TIP3    H244990   3.146   0.179  17.173  0.8429  1.0902 -0.4035
 7859TIP3   OH244991   0.488   5.850  13.056 -0.6655 -0.4640  0.4118
 7859TIP3    H144992   0.443   5.843  12.972  0.0879  0.7077 -0.1125
 7859TIP3    H244993   0.503   5.943  13.067  1.8895 -0.8043  0.4133
 7860TIP3   OH244994   1.559   4.922   2.017 -0.0079  0.4097  0.1349
 7860TIP3    H144995   1.517   4.871   1.948 -2.9812  0.3500  1.7859
 7860TIP3    H244996   1.581   4.858   2.084  0.9373  0.7138  0.1274
 7861TIP3   OH244997   2.683   3.912  15.464 -0.1809  0.2981 -0.2442
 7861TIP3    H144998   2.719   3.856  15.395  2.6129  1.4690  0.1474
 7861TIP3    H244999   2.688   3.859  15.543 -2.0086 -0.5099 -0.6097
 7862TIP3   OH245000   3.087   3.969  13.475 -0.0327  0.5668  0.1525
 7862TIP3    H145001   3.145   3.977  13.551 -0.9414  2.2408  0.7228
 7862TIP3    H245002   3.132   4.018  13.406 -0.2929  1.0510  0.3178
 7863TIP3   OH245003   5.815   0.444  15.498 -0.7407 -0.4005  0.3089
 7863TIP3    H145004   5.822   0.538  15.479 -0.2522 -0.6824 -1.0415
 7863TIP3    H245005   5.880   0.403  15.442  0.4173 -1.4220  2.3013
 7864TIP3   OH245006   5.029   5.328  16.384  0.7354 -0.5037  0.7973
 7864TIP3    H145007   5.081   5.274  16.324 -0.2860 -0.8878  0.2416
 7864TIP3    H245008   4.945   5.283  16.390 -0.2099  1.1070  0.2079
 7865TIP3   OH245009   5.899   3.985   5.456  0.2300 -0.5604  0.3518
 7865TIP3    H145010   5.815   3.939   5.446  0.1102 -0.1458 -0.7453
 7865TIP3    H245011   5.917   3.981   5.550 -1.2714 -0.2407  0.6941
 7866TIP3   OH245012   1.430   2.344  12.275 -0.8398  0.2593 -0.2049
 7866TIP3    H145013   1.496   2.409  12.300 -1.1206  0.4161  0.1287
 7866TIP3    H245014   1.473   2.260  12.290 -0.1244  0.3517 -1.5478
 7867TIP3   OH245015   2.938   5.559  13.481 -0.7591 -0.5740 -0.7741
 7867TIP3    H145016   2.996   5.609  13.423  0.0794 -1.7803 -1.0054
 7867TIP3    H245017   2.855   5.606  13.477 -0.1406  0.5181 -1.3670
 7868TIP3   OH245018   4.120   5.640  12.290  0.2382  0.0993 -0.2467
 7868TIP3    H145019   4.033   5.682  12.294  0.1896 -0.0683  3.1465
 7868TIP3    H245020   4.101   5.549  12.266 -0.7681 -0.3170  1.8918
 7869TIP3   OH245021   2.892   2.571  14.499  0.3371  0.4321 -0.2864
 7869TIP3    H145022   2.891   2.486  14.543 -0.1053  1.0051  0.8469
 7869TIP3    H245023   2.933   2.554  14.414 -1.1152 -1.1997 -0.6987
 7870TIP3   OH245024   0.267   5.293   0.946 -0.3088  0.2290 -0.3064
 7870TIP3    H145025   0.287   5.359   0.879  1.4009  0.8584  0.7754
 7870TIP3    H245026   0.294   5.334   1.028 -2.0135 -0.6784  0.7571
 7871TIP3   OH245027   4.614   0.972   0.433 -0.2032  0.8629 -0.2534
 7871TIP3    H145028   4.654   1.058   0.442 -1.2009  1.2126  1.2006
 7871TIP3    H245029   4.687   0.911   0.431  0.4596  1.6133  0.4835
 7872TIP3   OH245030   3.822   3.027  14.511 -0.2889 -0.3285 -0.2201
 7872TIP3    H145031   3.743   3.079  14.530 -0.8166 -0.1442 -2.6499
 7872TIP3    H245032   3.788   2.943  14.481  0.5094 -0.9732  0.6383
 7873TIP3   OH245033   1.758   4.435   2.658  0.0404 -0.3435  0.0661
 7873TIP3    H145034   1.709   4.372   2.604 -1.7208 -0.7057  1.9713
 7873TIP3    H245035   1.847   4.430   2.624 -0.8697 -0.8531 -2.5028
 7874TIP3   OH245036   3.142   5.244  17.115 -0.1226  0.1444  0.2636
 7874TIP3    H145037   3.081   5.200  17.055  0.3463  1.0566 -0.9181
 7874TIP3    H245038   3.092   5.254  17.196 -1.1798 -0.0713 -0.3334
 7875TIP3   OH245039   6.343   5.442  15.116  0.0936  0.4114  0.6931
 7875TIP3    H145040   6.428   5.441  15.162  0.5205 -1.2010 -0.0530
 7875TIP3    H245041   6.336   5.355  15.077 -1.6573  0.7185  0.2409
 7876TIP3   OH245042   1.157   4.545  11.297  0.4219 -0.2497  0.0904
 7876TIP3    H145043   1.199   4.547  11.211 -2.9829  1.8602 -1.7467
 7876TIP3    H245044   1.202   4.613  11.348 -0.0532  1.3736 -1.5316
 7877TIP3   OH245045   3.956   4.796  14.857 -0.1343  0.0488  0.1371
 7877TIP3    H145046   3.946   4.889  14.836  2.0348  0.6082  1.3401
 7877TIP3    H245047   4.050   4.779  14.848 -0.2943 -1.6755  1.3080
 7878TIP3   OH245048   2.869   1.226  14.431  0.1937  0.5050 -0.1777
 7878TIP3    H145049   2.803   1.172  14.388  1.4802  0.5702 -2.3798
 7878TIP3    H245050   2.827   1.311  14.444 -0.8137 -0.0645  0.4566
 7879TIP3   OH245051   6.046   1.879   2.748  0.2169  0.4085  0.0399
 7879TIP3    H145052   5.961   1.855   2.712  0.6655 -1.9838  0.3800
 7879TIP3    H245053   6.108   1.821   2.703  1.4492  0.9822  0.9406
 7880TIP3   OH245054   4.901   6.609  14.655 -0.2195 -0.4479 -0.0510
 7880TIP3    H145055   4.853   6.558  14.589 -1.5975  0.5671  0.1013
 7880TIP3    H245056   4.931   6.686  14.607  2.1729 -1.4935 -0.3746
 7881TIP3   OH245057   1.144   0.108  12.901 -0.1944 -0.5351 -0.2325
 7881TIP3    H145058   1.164   0.116  12.995  0.7574 -0.7555 -0.4103
 7881TIP3    H245059   1.211   0.160  12.857  2.0529 -3.7998 -1.0167
 7882TIP3   OH245060   3.836   1.627   1.468 -0.0900  0.1471  0.0942
 7882TIP3    H145061   3.897   1.664   1.531 -0.6280 -0.2337  0.8509
 7882TIP3    H245062   3.890   1.568   1.415  0.4793  0.9110 -0.1991
 7883TIP3   OH245063   3.815   3.657  11.515  0.2449 -0.1641 -0.1963
 7883TIP3    H145064   3.793   3.735  11.566 -0.3716 -0.3946 -0.0938
 7883TIP3    H245065   3.730   3.625  11.483  0.2124 -1.9724  1.4864
 7884TIP3   OH245066   2.541   3.662   0.860  0.3229  0.6447  0.1663
 7884TIP3    H145067   2.530   3.756   0.875  1.9839  1.0039 -0.7041
 7884TIP3    H245068   2.500   3.646   0.775 -0.9297  0.3366  0.7950
 7885TIP3   OH245069   4.803   3.732  12.109  0.1174 -0.3981  0.0083
 7885TIP3    H145070   4.793   3.822  12.142  1.5220  0.9301 -2.8841
 7885TIP3    H245071   4.714   3.698  12.106 -1.0508  2.4236 -2.5777
 7886TIP3   OH245072   4.943   0.106   3.840  0.2921  0.8293  0.2613
 7886TIP3    H145073   4.947   0.034   3.904  0.2618 -0.9230 -1.6131
 7886TIP3    H245074   4.858   0.147   3.856  0.5145  0.7875  1.6942
 7887TIP3   OH245075   5.691   5.113  17.232  0.2750  0.2732  0.3765
 7887TIP3    H145076   5.662   5.192  17.186 -0.0156 -0.7807 -1.3285
 7887TIP3    H245077   5.785   5.109  17.214  0.8572  1.5726  2.6521
 7888TIP3   OH245078   2.422   3.115  14.221 -0.5748 -0.4203  0.1967
 7888TIP3    H145079   2.434   3.081  14.310  2.0171 -0.2306 -0.0247
 7888TIP3    H245080   2.336   3.082  14.195 -1.0943 -1.0740  2.4957
 7889TIP3   OH245081   4.610   5.340   2.740 -0.1437 -0.0059 -0.8239
 7889TIP3    H145082   4.569   5.294   2.667 -2.6210  1.1149 -0.2442
 7889TIP3    H245083   4.629   5.271   2.804  0.5906 -0.7831 -1.8521
 7890TIP3   OH245084   2.220   3.965   2.515  0.1615 -0.0284 -0.0055
 7890TIP3    H145085   2.177   3.932   2.594 -0.9215 -0.8320 -0.8896
 7890TIP3    H245086   2.149   3.998   2.460  1.0360  1.9545 -0.0302
 7891TIP3   OH245087   4.828   2.946   4.127  0.2558 -0.4872 -0.0411
 7891TIP3    H145088   4.865   2.995   4.200  2.3000 -0.7449 -0.8190
 7891TIP3    H245089   4.835   3.006   4.052 -0.0229 -0.8833 -0.3901
 7892TIP3   OH245090   4.614   1.180  16.821 -0.3824 -0.1829  0.0434
 7892TIP3    H145091   4.608   1.275  16.807  2.4047  0.1335  0.3171
 7892TIP3    H245092   4.539   1.159  16.876 -1.5536  1.6841 -0.7346
 7893TIP3   OH245093   0.725   2.408   2.597 -0.3007  0.0893  0.2586
 7893TIP3    H145094   0.718   2.335   2.535 -1.1186 -0.0753  0.5401
 7893TIP3    H245095   0.797   2.461   2.563  1.4727 -1.7289  0.9832
 7894TIP3   OH245096   3.862   0.666  16.669 -0.2231 -0.0353  0.5735
 7894TIP3    H145097   3.779   0.679  16.714 -0.7311  0.2366 -0.4014
 7894TIP3    H245098   3.863   0.735  16.602  0.4364 -0.5041  0.0931
 7895TIP3   OH245099   4.474   0.649   3.992 -0.2605 -0.2250 -0.3593
 7895TIP3    H145100   4.514   0.716   3.936 -0.4023  0.0857 -0.0888
 7895TIP3    H245101   4.410   0.605   3.935 -1.0519  0.6906 -0.1954
 7896TIP3   OH245102   4.564   4.481   2.769 -0.0160 -0.1120 -0.7093
 7896TIP3    H145103   4.517   4.416   2.821 -0.2523 -1.3910 -2.4089
 7896TIP3    H245104   4.595   4.432   2.693  0.9118  1.5168 -1.4328
 7897TIP3   OH245105   1.509   5.001  13.862  0.2803  0.4182  0.5380
 7897TIP3    H145106   1.455   5.030  13.935  0.3427 -0.0534  0.7748
 7897TIP3    H245107   1.449   4.950  13.807  0.3814  0.2488  0.5841
 7898TIP3   OH245108   0.842   4.118   0.292 -0.4091 -0.0447 -0.6849
 7898TIP3    H145109   0.845   4.065   0.372  0.5108  0.0383 -0.6533
 7898TIP3    H245110   0.886   4.200   0.315  0.7558 -0.3944 -1.5303
 7899TIP3   OH245111   1.736   3.789  12.123 -0.1525  0.1613 -0.0624
 7899TIP3    H145112   1.723   3.777  12.029  0.2230 -1.1857  0.0322
 7899TIP3    H245113   1.800   3.722  12.147  2.9869  3.0680  0.4406
 7900TIP3   OH245114   4.785   5.179  16.064  0.3230  0.0889 -0.1475
 7900TIP3    H145115   4.711   5.233  16.091  0.5847  0.7708 -0.7526
 7900TIP3    H245116   4.858   5.241  16.055  0.3942 -0.1904 -1.8049
 7901TIP3   OH245117   3.429   2.082  17.077  0.1668 -0.1829  0.4265
 7901TIP3    H145118   3.453   2.126  16.995 -0.6849 -1.8067 -0.7673
 7901TIP3    H245119   3.487   2.006  17.082 -1.1210 -1.2272  0.2240
 7902TIP3   OH245120   0.519   3.374  11.625  0.0636 -0.3980  0.0466
 7902TIP3    H145121   0.494   3.407  11.712 -1.2471 -2.0604  0.3613
 7902TIP3    H245122   0.455   3.413  11.565 -0.0123 -0.5045  0.0591
 7903TIP3   OH245123   2.055   2.455  13.928 -0.3763  0.1974 -0.6038
 7903TIP3    H145124   2.088   2.528  13.980 -1.6512 -1.5053  2.9030
 7903TIP3    H245125   2.014   2.496  13.852  1.7016  2.8524 -0.4349
 7904TIP3   OH245126   0.002   5.255  14.909 -0.2739  0.1271  0.8432
 7904TIP3    H145127  -0.073   5.267  14.850 -0.9543 -1.6427  1.2640
 7904TIP3    H245128   0.042   5.341  14.916 -0.2311  0.4275 -2.0960
 7905TIP3   OH245129   3.285   3.527   1.325 -0.0232  0.6547 -0.1366
 7905TIP3    H145130   3.200   3.482   1.329  0.5678 -0.4065  1.6153
 7905TIP3    H245131   3.283   3.589   1.398  0.3588  1.3291 -0.6817
 7906TIP3   OH245132   0.285   6.375  16.272  0.7956  0.4680 -0.0022
 7906TIP3    H145133   0.241   6.454  16.306 -0.5169  0.0989 -0.7745
 7906TIP3    H245134   0.307   6.325  16.350 -1.3617  0.0564  0.4175
 7907TIP3   OH245135   3.996   1.531   2.369 -0.2849 -0.1934  0.1106
 7907TIP3    H145136   3.986   1.441   2.400  1.5792 -1.1080 -1.7753
 7907TIP3    H245137   4.089   1.542   2.354 -0.4769  2.0470  0.1489
 7908TIP3   OH245138   0.189   5.710   5.112 -0.2865 -0.4314 -0.1074
 7908TIP3    H145139   0.152   5.684   5.196 -0.0915 -2.0625 -0.4944
 7908TIP3    H245140   0.174   5.635   5.055 -1.7862  1.2058 -2.0097
 7909TIP3   OH245141   0.351   4.006  17.237 -0.5549 -0.1602  0.2961
 7909TIP3    H145142   0.288   4.001  17.308 -0.6490 -0.6849  0.1820
 7909TIP3    H245143   0.395   4.089  17.249  1.7034 -1.5908  2.8770
 7910TIP3   OH245144   5.411   3.326   2.949  0.0155  0.0522 -0.0922
 7910TIP3    H145145   5.472   3.271   2.901 -0.3364 -0.3350 -0.1037
 7910TIP3    H245146   5.430   3.308   3.041  1.1239  1.2711 -0.0568
 7911TIP3   OH245147   5.313   6.453  11.778 -0.0675  0.0149 -1.1194
 7911TIP3    H145148   5.367   6.532  11.781 -1.6094  1.1072 -0.8639
 7911TIP3    H245149   5.312   6.428  11.686 -1.5104  1.7775 -1.6691
 7912TIP3   OH245150   0.348   4.153   2.742 -0.1994 -0.2097 -0.1397
 7912TIP3    H145151   0.257   4.142   2.771 -0.2452 -0.2755 -0.3049
 7912TIP3    H245152   0.342   4.157   2.646 -0.0197 -0.3057 -0.1556
 7913TIP3   OH245153   4.338   1.441   1.805  0.4584  0.0902  0.2383
 7913TIP3    H145154   4.255   1.470   1.840 -0.0230 -0.8676 -0.0627
 7913TIP3    H245155   4.396   1.436   1.881 -0.3853 -1.3558  0.8235
 7914TIP3   OH245156   5.227   5.178   4.503 -0.0479 -0.3393  0.0097
 7914TIP3    H145157   5.189   5.191   4.416 -0.3133  2.1327  0.4194
 7914TIP3    H245158   5.154   5.194   4.564  0.0773 -2.2449  0.7525
 7915TIP3   OH245159   6.244   1.799  12.721  0.2413  0.0403  0.1758
 7915TIP3    H145160   6.301   1.866  12.686 -0.4716  0.5904  0.0397
 7915TIP3    H245161   6.239   1.732  12.652 -1.5682  1.3544 -1.0564
 7916TIP3   OH245162   5.450   1.768  11.409 -0.1136  0.0390  0.0355
 7916TIP3    H145163   5.363   1.806  11.408 -0.5154 -0.8702 -0.5799
 7916TIP3    H245164   5.478   1.768  11.317  0.3444 -0.0972  0.1712
 7917TIP3   OH245165   5.664   6.173   4.877 -0.3199 -0.2051  0.3966
 7917TIP3    H145166   5.568   6.170   4.871 -0.3725 -0.3475  1.2546
 7917TIP3    H245167   5.690   6.225   4.801 -1.1359  0.5815  0.6335
 7918TIP3   OH245168   5.991   0.063  13.150 -0.0793  0.4937  0.1686
 7918TIP3    H145169   5.942   0.007  13.210 -1.6679  0.2236 -1.3129
 7918TIP3    H245170   5.924   0.101  13.092  1.4104  0.3150 -1.7749
 7919TIP3   OH245171   2.430   5.103  11.359  0.0771 -0.3296  0.0076
 7919TIP3    H145172   2.386   5.023  11.387 -1.1197  0.7639  1.3906
 7919TIP3    H245173   2.470   5.138  11.439  0.3803  0.5779 -0.5253
 7920TIP3   OH245174   2.040   2.602   5.988 -0.0556 -0.3143 -0.0577
 7920TIP3    H145175   2.072   2.513   5.972 -0.7462 -0.3408 -1.4542
 7920TIP3    H245176   1.952   2.603   5.950 -0.4421  0.6937  0.8100
 7921TIP3   OH245177   2.260   3.536   5.285  0.6559  0.3750 -0.2646
 7921TIP3    H145178   2.184   3.479   5.294  0.0045  0.9165 -1.9244
 7921TIP3    H245179   2.333   3.476   5.272  0.5954 -0.1578  1.5644
 7922TIP3   OH245180   3.234   4.498  16.919 -0.1354 -0.3993  0.4244
 7922TIP3    H145181   3.162   4.546  16.879 -2.0343 -1.6541  2.1390
 7922TIP3    H245182   3.234   4.527  17.011  0.4254 -1.6545  0.8441
 7923TIP3   OH245183   0.031   3.006   0.370  1.0557 -0.3244  0.9268
 7923TIP3    H145184   0.095   2.955   0.419  0.5798 -1.1120  0.7517
 7923TIP3    H245185  -0.031   2.941   0.337  0.7021  0.3205  0.2873
 7924TIP3   OH245186   1.167   1.087   1.951 -0.2494 -0.1842 -0.2155
 7924TIP3    H145187   1.186   1.147   2.023 -0.4852 -1.6440  1.1031
 7924TIP3    H245188   1.205   1.129   1.874  0.1248  1.3476  0.7749
 7925TIP3   OH245189   3.720   3.241   0.209 -0.1663  0.8331 -0.2309
 7925TIP3    H145190   3.750   3.290   0.286 -1.7651  0.8151  0.4507
 7925TIP3    H245191   3.700   3.154   0.243  0.3792  0.4201 -0.9522
 7926TIP3   OH245192   1.015   4.300  16.746 -0.5467  0.0071 -0.0507
 7926TIP3    H145193   0.923   4.304  16.773 -0.5708  0.6251 -0.1965
 7926TIP3    H245194   1.029   4.382  16.698  0.2040  0.1350  0.3724
 7927TIP3   OH245195   3.179   5.673   5.032 -0.5399  0.3805  0.1474
 7927TIP3    H145196   3.094   5.681   5.077 -0.4602  1.3592  0.1428
 7927TIP3    H245197   3.244   5.690   5.100 -0.3856  0.8931 -0.1264
 7928TIP3   OH245198   6.236   0.238   1.183 -0.1540  0.2079  0.1567
 7928TIP3    H145199   6.204   0.151   1.161 -0.1014 -0.2918  1.8707
 7928TIP3    H245200   6.162   0.280   1.227 -0.0857  0.9427 -0.4134
 7929TIP3   OH245201   0.312   3.375  16.697 -0.1869 -0.5240  0.2108
 7929TIP3    H145202   0.249   3.445  16.678  1.0756  0.4884 -0.4796
 7929TIP3    H245203   0.363   3.366  16.616  1.3706 -0.3975  1.1361
 7930TIP3   OH245204   2.755   5.306  14.236 -0.1663  0.0539  0.6329
 7930TIP3    H145205   2.696   5.351  14.297 -0.0538  0.0566  0.7394
 7930TIP3    H245206   2.699   5.281  14.163 -0.0492  1.1474  0.1623
 7931TIP3   OH245207   1.433   6.494   2.973  0.4156 -0.2994 -0.7209
 7931TIP3    H145208   1.412   6.580   2.936 -1.6538 -1.1408 -1.5906
 7931TIP3    H245209   1.494   6.455   2.911  0.0672 -0.1273 -1.1690
 7932TIP3   OH245210   3.882   0.177  14.731  0.1673 -0.1862 -0.0575
 7932TIP3    H145211   3.825   0.252  14.745  0.6378  0.5438 -1.8349
 7932TIP3    H245212   3.841   0.127  14.661  0.1660 -1.3099  0.7009
 7933TIP3   OH245213   1.668   3.730  16.437 -0.3541  0.1580  0.4560
 7933TIP3    H145214   1.600   3.669  16.409 -0.7663  0.6269  0.4125
 7933TIP3    H245215   1.746   3.676  16.447 -0.9365 -0.5468  1.3525
 7934TIP3   OH245216   6.398   5.890  13.258 -1.0650  0.2920  0.3663
 7934TIP3    H145217   6.380   5.839  13.180  0.5723  0.3057 -0.0560
 7934TIP3    H245218   6.321   5.945  13.269 -0.7410  1.3913 -2.1384
 7935TIP3   OH245219   1.935   3.233   0.097 -0.4606  0.0162  0.4768
 7935TIP3    H145220   1.968   3.143   0.098 -0.5441 -0.0331 -0.2209
 7935TIP3    H245221   2.003   3.284   0.054 -1.8932 -0.3824 -2.5344
 7936TIP3   OH245222   5.224   5.318  15.900 -0.2430 -0.0781 -0.2105
 7936TIP3    H145223   5.258   5.375  15.831  0.7795  1.8823  1.8038
 7936TIP3    H245224   5.259   5.232  15.879  3.9519  1.2905  0.2369
 7937TIP3   OH245225   4.764   4.461   6.412  0.0235 -0.1891 -0.2491
 7937TIP3    H145226   4.804   4.404   6.478 -0.4554  1.2046  1.3141
 7937TIP3    H245227   4.687   4.414   6.382  0.7037 -1.2035 -0.4301
 7938TIP3   OH245228   2.714   4.891  11.553  0.1541  0.3086  0.4928
 7938TIP3    H145229   2.728   4.970  11.606  0.0720 -0.9613  2.5291
 7938TIP3    H245230   2.778   4.829  11.586 -0.4758 -0.8125 -0.3426
 7939TIP3   OH245231   5.816   6.349  14.859  0.4128  0.1619 -0.4720
 7939TIP3    H145232   5.883   6.319  14.920 -0.0037  0.9432  0.3943
 7939TIP3    H245233   5.860   6.349  14.773  1.2623 -0.1237 -0.0495
 7940TIP3   OH245234   1.223   4.478  17.018  0.4566  0.1379 -0.2246
 7940TIP3    H145235   1.187   4.536  16.951 -0.7138 -0.7583 -0.4084
 7940TIP3    H245236   1.168   4.493  17.095 -1.8071 -2.7006 -1.0897
 7941TIP3   OH245237   0.509   3.554  15.304  0.7330 -0.5665 -0.1349
 7941TIP3    H145238   0.553   3.511  15.230  0.1248  0.0692 -0.8805
 7941TIP3    H245239   0.420   3.520  15.302  1.0990 -1.6872  1.2448
 7942TIP3   OH245240   0.840   6.385  15.715 -0.0054 -0.0808 -0.1930
 7942TIP3    H145241   0.808   6.472  15.692 -1.6651 -0.7290 -0.4572
 7942TIP3    H245242   0.909   6.366  15.651  0.6304  1.1689  0.1035
 7943TIP3   OH245243   1.605   0.444  16.646  0.6366 -0.2710  0.4211
 7943TIP3    H145244   1.697   0.438  16.621  0.5739  1.2319 -0.3121
 7943TIP3    H245245   1.558   0.407  16.571  0.5810  1.1972 -0.3116
 7944TIP3   OH245246   5.878   3.546  12.205 -0.2805 -0.0222 -0.6060
 7944TIP3    H145247   5.914   3.470  12.250 -1.2326 -1.5634 -2.3299
 7944TIP3    H245248   5.954   3.590  12.167  0.6275  1.6228  2.7171
 7945TIP3   OH245249   1.634   4.457   0.846 -0.1615  0.8955 -0.3266
 7945TIP3    H145250   1.675   4.450   0.932 -2.4177  0.8319  0.7991
 7945TIP3    H245251   1.627   4.551   0.831 -2.7922  1.0391  1.1783
 7946TIP3   OH245252   6.632   3.862  10.591  0.3400 -0.2887 -0.2638
 7946TIP3    H145253   6.701   3.868  10.524  2.7104  0.0068  2.0679
 7946TIP3    H245254   6.554   3.896  10.547  1.5273 -0.9873 -3.1538
 7947TIP3   OH245255   0.214   2.994  11.301  0.1785 -0.7346  0.5466
 7947TIP3    H145256   0.219   3.084  11.332  0.8875  0.1435 -1.8861
 7947TIP3    H245257   0.136   2.993  11.246  1.0074 -1.1585 -0.6599
 7948TIP3   OH245258   3.785   6.000   3.533  0.1765  0.3319  0.4064
 7948TIP3    H145259   3.756   5.992   3.443 -0.9538  0.1995  0.7698
 7948TIP3    H245260   3.859   6.060   3.529  0.0448  0.4415 -0.5865
 7949TIP3   OH245261   2.656   1.550   2.680 -0.1842  0.4663 -0.0217
 7949TIP3    H145262   2.620   1.601   2.608 -0.3031 -1.0842 -1.1276
 7949TIP3    H245263   2.583   1.497   2.711  0.2093  0.0713  0.2596
 7950TIP3   OH245264   6.725   2.537  14.992  0.1807  0.4118 -0.5913
 7950TIP3    H145265   6.681   2.476  14.932  3.0127 -0.0587 -2.4169
 7950TIP3    H245266   6.738   2.486  15.073 -1.9131  0.3601 -0.2526
 7951TIP3   OH245267   4.567   2.539   4.528  0.1310  0.0410  0.4322
 7951TIP3    H145268   4.554   2.577   4.615  1.5872 -1.1142  1.1962
 7951TIP3    H245269   4.578   2.615   4.470 -1.2514  0.8309  1.1514
 7952TIP3   OH245270   5.145   3.513   1.846  0.3925 -0.1237 -0.0760
 7952TIP3    H145271   5.100   3.504   1.762 -1.0972 -2.4717  0.8630
 7952TIP3    H245272   5.076   3.538   1.908  0.4860 -2.7043  1.1994
 7953TIP3   OH245273   3.530   3.727   1.220 -0.1636  0.1794 -0.8454
 7953TIP3    H145274   3.493   3.769   1.298 -0.6389 -0.4467 -0.7268
 7953TIP3    H245275   3.544   3.799   1.158 -1.6339  0.4399 -0.9130
 7954TIP3   OH245276   5.767   1.153   4.199  0.0279  0.2781 -0.0016
 7954TIP3    H145277   5.769   1.068   4.243 -1.3563 -0.3189 -1.0377
 7954TIP3    H245278   5.768   1.132   4.106  0.9243  1.4546 -0.2815
 7955TIP3   OH245279   1.451   0.909  11.247 -0.7865  0.0470 -0.2405
 7955TIP3    H145280   1.535   0.945  11.275  0.1906 -1.6458 -0.8810
 7955TIP3    H245281   1.458   0.815  11.265 -1.8618 -0.3897 -1.9067
 7956TIP3   OH245282   5.199   1.466   0.402 -0.8923  0.0712  0.0019
 7956TIP3    H145283   5.233   1.520   0.330 -1.0641 -2.5547 -2.1980
 7956TIP3    H245284   5.248   1.496   0.478  1.7809  0.7535 -1.8141
 7957TIP3   OH245285   1.454   2.620  16.310  0.3872  0.2933  0.6735
 7957TIP3    H145286   1.450   2.569  16.229  0.6431 -0.2652  1.0103
 7957TIP3    H245287   1.417   2.705  16.286  1.2507  0.4201 -0.2526
 7958TIP3   OH245288   3.067   3.685   4.419  0.2683  0.2353  0.1393
 7958TIP3    H145289   3.076   3.615   4.355  0.6851  1.1131 -0.7788
 7958TIP3    H245290   2.974   3.709   4.415  0.4877  0.9891 -0.9176
 7959TIP3   OH245291   1.540   4.280  13.802 -0.2451 -0.1255  0.6248
 7959TIP3    H145292   1.577   4.359  13.842 -1.4675  0.2436  1.0997
 7959TIP3    H245293   1.593   4.209  13.837  2.2693  0.5735 -1.4731
 7960TIP3   OH245294   4.718   4.140  12.010 -0.3221 -0.2344 -0.6694
 7960TIP3    H145295   4.718   4.067  11.948  0.0415 -0.3166 -0.5772
 7960TIP3    H245296   4.796   4.191  11.985 -0.1105 -0.3271 -0.2128
 7961TIP3   OH245297   1.358   6.218  13.696  0.0029  0.4669 -0.4781
 7961TIP3    H145298   1.385   6.185  13.610 -1.0765  0.4529 -0.8301
 7961TIP3    H245299   1.420   6.179  13.758  1.1940  0.9815 -1.3079
 7962TIP3   OH245300   0.490   4.630  14.189  0.3160  0.4597  0.5107
 7962TIP3    H145301   0.508   4.724  14.180  1.8607  0.2048  0.7055
 7962TIP3    H245302   0.400   4.626  14.222 -0.4261  1.8050 -1.1872
 7963TIP3   OH245303   1.323   0.312  16.161 -0.2341  0.3128 -0.2928
 7963TIP3    H145304   1.312   0.329  16.067  0.9870  0.8153 -0.3674
 7963TIP3    H245305   1.302   0.219  16.171  0.1671  0.1155 -1.1656
 7964TIP3   OH245306   2.132   0.864   0.031  0.1588 -0.6233  0.1216
 7964TIP3    H145307   2.166   0.885  -0.055 -0.0252 -0.2181  0.1433
 7964TIP3    H245308   2.053   0.812   0.014  1.0076 -1.9511  0.0788
 7965TIP3   OH245309   2.857   5.665   5.692  0.3931  0.2364  0.2505
 7965TIP3    H145310   2.805   5.652   5.771  1.8935 -0.1744  1.2098
 7965TIP3    H245311   2.913   5.740   5.712 -0.0106  0.8669 -0.8772
 7966TIP3   OH245312   1.540   3.459  10.844 -0.0420 -0.4975 -0.0510
 7966TIP3    H145313   1.624   3.448  10.889  0.5840  0.9351 -0.8055
 7966TIP3    H245314   1.522   3.553  10.850 -0.8304 -0.5582 -1.2074
 7967TIP3   OH245315   2.060   3.462  14.803 -0.0323 -0.2714 -0.6406
 7967TIP3    H145316   2.090   3.552  14.790  0.4545 -0.4274 -0.6119
 7967TIP3    H245317   2.002   3.468  14.879  0.2225 -0.0274 -0.4614
 7968TIP3   OH245318   1.336   3.921   5.435 -0.0253 -0.4145  0.1324
 7968TIP3    H145319   1.247   3.885   5.430 -0.1873 -0.6505  3.3002
 7968TIP3    H245320   1.329   3.995   5.495  1.7905  0.0794 -0.2015
 7969TIP3   OH245321   1.375   0.397  11.694 -0.0626 -0.3002 -0.5883
 7969TIP3    H145322   1.450   0.403  11.635  0.2690  1.5064 -0.0426
 7969TIP3    H245323   1.299   0.398  11.636  0.2619  1.1968 -1.0265
 7970TIP3   OH245324   0.353   4.394   4.948  0.3032 -0.9045  0.2570
 7970TIP3    H145325   0.444   4.368   4.933  0.9356 -0.6435  3.0323
 7970TIP3    H245326   0.354   4.489   4.947  1.1569 -0.6686  4.7867
 7971TIP3   OH245327   4.112   5.867   6.103  0.2555  0.3206  0.2707
 7971TIP3    H145328   4.128   5.931   6.034  0.4228 -1.2253 -1.2038
 7971TIP3    H245329   4.035   5.900   6.149 -0.6640  0.7689 -1.4951
 7972TIP3   OH245330   1.399   1.349   1.123 -0.2864 -0.3130  0.6031
 7972TIP3    H145331   1.472   1.288   1.126  0.3759  0.3315 -1.1957
 7972TIP3    H245332   1.412   1.406   1.199  0.7177 -0.5946  0.6576
 7973TIP3   OH245333   3.933   3.393  16.640  0.3881 -0.0770  0.0650
 7973TIP3    H145334   3.842   3.419  16.633  1.3209  3.0385 -3.1238
 7973TIP3    H245335   3.940   3.316  16.584 -0.1073  0.2042 -0.3895
 7974TIP3   OH245336   2.839   5.032   5.629 -0.4049 -0.5606  0.2311
 7974TIP3    H145337   2.798   5.110   5.664 -0.1484 -0.5978  0.6153
 7974TIP3    H245338   2.811   4.961   5.687  0.3970 -0.5489  0.6516
 7975TIP3   OH245339   1.979   2.787  16.687  0.3248  0.6115 -0.0323
 7975TIP3    H145340   2.005   2.826  16.771  1.5315  0.7789 -0.4631
 7975TIP3    H245341   1.950   2.860  16.634 -3.4614  0.2207  1.1906
 7976TIP3   OH245342   2.500   5.041  12.829  0.1725  0.4682  0.0071
 7976TIP3    H145343   2.486   5.131  12.858 -1.5004  0.8844 -1.9070
 7976TIP3    H245344   2.456   5.036  12.744  0.4125 -2.0984 -0.0292
 7977TIP3   OH245345   5.588   4.913  13.248 -0.4530  0.7017 -0.4016
 7977TIP3    H145346   5.618   4.935  13.336 -2.8503  2.1001  0.1375
 7977TIP3    H245347   5.661   4.939  13.191  0.3638  1.5997  0.9933
 7978TIP3   OH245348   4.458   4.600  15.023  0.0358 -0.0486  0.1008
 7978TIP3    H145349   4.371   4.561  15.027  0.1719 -0.2595  1.8479
 7978TIP3    H245350   4.446   4.689  15.056  0.0502  0.8892 -2.1903
 7979TIP3   OH245351   6.099   4.723   4.815  0.0515  0.5721 -0.2454
 7979TIP3    H145352   6.150   4.645   4.839 -0.1031  1.0576  1.8548
 7979TIP3    H245353   6.074   4.708   4.724  2.2183 -0.6126 -0.7251
 7980TIP3   OH245354   0.303   1.004  11.517  0.1853 -0.0925 -0.0087
 7980TIP3    H145355   0.343   0.920  11.543 -1.0618 -0.9509 -0.7455
 7980TIP3    H245356   0.355   1.032  11.441  1.0814  0.2034  0.6977
 7981TIP3   OH245357   1.889   2.939   4.035  0.3722 -0.2901  0.0199
 7981TIP3    H145358   1.886   3.004   3.965  0.5656  1.3854  1.4961
 7981TIP3    H245359   1.982   2.923   4.049  0.3585 -0.0454  0.3946
 7982TIP3   OH245360   2.444   4.369  16.976 -0.4302  0.0728  0.0636
 7982TIP3    H145361   2.366   4.374  16.920 -0.3300  1.5183  0.0329
 7982TIP3    H245362   2.480   4.282  16.957 -1.9557 -0.5949 -0.0065
 7983TIP3   OH245363   6.468   6.518   2.119  0.0665 -0.7808  0.2893
 7983TIP3    H145364   6.376   6.496   2.103  0.5283 -4.2023  1.4573
 7983TIP3    H245365   6.514   6.486   2.041  0.2074  3.1272 -1.4607
 7984TIP3   OH245366   6.406   4.457  11.680 -0.4385 -0.3291 -0.0827
 7984TIP3    H145367   6.340   4.388  11.677 -0.7390 -0.1025  0.9459
 7984TIP3    H245368   6.416   4.477  11.773  1.0124 -0.2943 -0.2159
 7985TIP3   OH245369   3.368   4.072  14.943 -0.5575  0.2462 -0.1400
 7985TIP3    H145370   3.393   4.046  15.031  1.4349 -0.6385 -0.9086
 7985TIP3    H245371   3.443   4.048  14.888 -1.7876  0.6331 -2.1059
 7986TIP3   OH245372   0.377   4.427  12.524  0.0101  0.5851  0.1426
 7986TIP3    H145373   0.375   4.477  12.442  0.1468  0.7699  0.2505
 7986TIP3    H245374   0.457   4.375  12.517 -0.2816  0.1613 -0.0967
 7987TIP3   OH245375   6.095   5.179   4.665  0.5100  0.5310  0.1059
 7987TIP3    H145376   6.028   5.246   4.651  0.5990  0.4649 -0.6607
 7987TIP3    H245377   6.137   5.168   4.580 -0.1265 -1.1768 -0.0367
 7988TIP3   OH245378   1.690   4.432  16.751  0.1255  0.0663  0.0089
 7988TIP3    H145379   1.696   4.337  16.739  0.9699 -0.3014  2.7457
 7988TIP3    H245380   1.616   4.445  16.810  0.0523  1.1077 -0.2926
 7989TIP3   OH245381   3.171   3.577  13.134 -0.0869  0.0774  0.0332
 7989TIP3    H145382   3.146   3.598  13.045 -2.6804  0.0512  0.6571
 7989TIP3    H245383   3.120   3.638  13.189 -2.4882 -3.0091  1.5955
 7990TIP3   OH245384   0.865   1.381   0.989  0.1515  0.1937 -0.3632
 7990TIP3    H145385   0.830   1.380   1.079  3.0734 -2.5913  0.9356
 7990TIP3    H245386   0.793   1.415   0.936 -1.3423  3.1225  3.1020
 7991TIP3   OH245387   4.904   3.755  16.176 -0.0161  0.4734  0.1543
 7991TIP3    H145388   4.834   3.753  16.241 -0.1391  0.1048  0.0147
 7991TIP3    H245389   4.893   3.838  16.130 -1.8565 -0.6038 -1.4947
 7992TIP3   OH245390   0.323   3.766   1.035 -0.5356  0.0112 -0.1750
 7992TIP3    H145391   0.229   3.767   1.018 -0.7608 -1.6398  0.7346
 7992TIP3    H245392   0.331   3.781   1.129 -0.1020 -2.2243  0.2095
 7993TIP3   OH245393   4.700   5.499   3.263  0.0920 -0.2379 -0.1913
 7993TIP3    H145394   4.654   5.492   3.179 -0.3212  0.9376 -0.0846
 7993TIP3    H245395   4.793   5.503   3.239  0.0343 -0.7581 -0.5273
 7994TIP3   OH245396   2.198   3.166   2.974  0.2262 -0.8108 -0.0615
 7994TIP3    H145397   2.257   3.123   3.035 -0.3356  0.4453  1.4281
 7994TIP3    H245398   2.117   3.179   3.023  0.1719  1.3788 -0.5998
 7995TIP3   OH245399   4.936   5.947  13.194  0.3459  0.7337 -0.2192
 7995TIP3    H145400   4.879   5.916  13.123 -1.6319  0.7774  1.2503
 7995TIP3    H245401   4.923   5.884  13.264  2.1020  0.8062  0.2154
 7996TIP3   OH245402   4.214   5.645   0.948 -0.8827 -0.2622  0.1088
 7996TIP3    H145403   4.146   5.603   1.002 -0.6201  0.6941  1.2259
 7996TIP3    H245404   4.222   5.588   0.871 -2.5947 -0.6537  0.1808
 7997TIP3   OH245405   4.762   4.608   6.162  0.2643 -0.1395 -0.5165
 7997TIP3    H145406   4.761   4.563   6.246  0.2270  0.0598 -0.4090
 7997TIP3    H245407   4.804   4.547   6.102  3.9666  1.1504  0.4673
 7998TIP3   OH245408   2.740   1.750  15.199 -0.2489  0.2056  0.2341
 7998TIP3    H145409   2.702   1.802  15.270 -0.6819  0.5444 -0.2344
 7998TIP3    H245410   2.704   1.662  15.211  1.1384 -0.2334  1.5306
 7999TIP3   OH245411   2.786   3.558  12.658 -0.1322 -0.4174 -0.1804
 7999TIP3    H145412   2.879   3.574  12.646 -0.0957 -0.9760 -0.6722
 7999TIP3    H245413   2.756   3.631  12.712  0.0857  1.1895 -2.1054
 8000TIP3   OH245414   2.310   3.755  12.675 -0.3439  0.0422 -0.1362
 8000TIP3    H145415   2.270   3.817  12.737 -1.2291  0.1021 -0.7459
 8000TIP3    H245416   2.277   3.782  12.589 -1.9541 -2.1299 -0.2966
 8001TIP3   OH245417   2.016   2.899   2.348  0.4681  0.3063 -0.0214
 8001TIP3    H145418   1.993   2.955   2.274 -0.1104 -0.6290 -0.5680
 8001TIP3    H245419   2.029   2.812   2.309 -2.2028 -0.7669  1.2598
 8002TIP3   OH245420   4.697   5.709   0.582  0.1615 -0.5069  0.3275
 8002TIP3    H145421   4.762   5.669   0.639  1.4493  1.2352  0.1314
 8002TIP3    H245422   4.737   5.707   0.495 -0.4123 -0.2140  0.0522
 8003TIP3   OH245423   0.582   2.051   5.722  0.3498 -0.2554  0.2468
 8003TIP3    H145424   0.675   2.059   5.698  0.1709 -0.5461 -0.5794
 8003TIP3    H245425   0.583   2.022   5.813  1.0627  0.4158  0.4649
 8004TIP3   OH245426   5.669   0.329  11.287  0.2724  0.5934 -0.2732
 8004TIP3    H145427   5.730   0.267  11.327  1.8028  1.6652 -0.8722
 8004TIP3    H245428   5.692   0.329  11.194 -1.0188  0.6218 -0.6189
 8005TIP3   OH245429   3.004   3.052   5.895 -0.3457 -0.3709  0.0914
 8005TIP3    H145430   3.050   3.136   5.899  1.2000 -0.9515 -2.5914
 8005TIP3    H245431   3.074   2.986   5.902 -0.8310 -1.2930 -2.4846
 8006TIP3   OH245432   6.428   2.724  16.136 -0.3351  0.7767  0.2243
 8006TIP3    H145433   6.374   2.728  16.057 -1.6332 -0.0000  1.0216
 8006TIP3    H245434   6.366   2.700  16.205  0.9597  0.3612  1.2780
 8007TIP3   OH245435   1.700   1.106   5.787  0.4189 -0.1304  0.3175
 8007TIP3    H145436   1.736   1.116   5.699  0.1707 -2.7484 -0.1524
 8007TIP3    H245437   1.771   1.069   5.838 -0.0104 -0.3958  0.7322
 8008TIP3   OH245438   2.783   5.827   0.363  0.0798  0.3707  0.6863
 8008TIP3    H145439   2.786   5.907   0.311 -0.8028  0.2866  0.4867
 8008TIP3    H245440   2.857   5.835   0.423  1.2240  0.3865 -0.6725
 8009TIP3   OH245441   5.461   1.143  12.899  0.1886  0.4862 -0.0376
 8009TIP3    H145442   5.398   1.078  12.930 -1.1695  1.3381 -0.8823
 8009TIP3    H245443   5.439   1.155  12.806  3.1827 -0.9585 -1.0546
 8010TIP3   OH245444   6.758   2.541  11.057 -0.4990  0.1900  0.9084
 8010TIP3    H145445   6.750   2.482  10.982 -0.2350 -0.1644  1.1543
 8010TIP3    H245446   6.733   2.487  11.132 -0.2874  0.4053  1.1325
 8011TIP3   OH245447   6.698   5.547   0.794 -0.3765  0.3415  0.3382
 8011TIP3    H145448   6.764   5.570   0.859 -1.3622  0.7858  1.2152
 8011TIP3    H245449   6.641   5.484   0.838 -0.7897  0.2912 -0.2482
 8012TIP3   OH245450   3.235   5.112   4.352 -0.1427  0.0565 -0.3926
 8012TIP3    H145451   3.191   5.152   4.277  1.7713 -0.8936 -2.1166
 8012TIP3    H245452   3.315   5.075   4.316 -0.6035 -3.1634  1.5404
 8013TIP3   OH245453   2.044   0.383   5.745  0.3581 -0.5117  0.1961
 8013TIP3    H145454   2.008   0.463   5.782  1.7977 -0.2528  1.0905
 8013TIP3    H245455   2.130   0.408   5.711 -0.0224 -1.2303 -1.4136
 8014TIP3   OH245456   5.620   1.053   2.616  0.3636  0.5443 -0.7106
 8014TIP3    H145457   5.687   1.001   2.660 -0.0931 -0.1691 -0.8425
 8014TIP3    H245458   5.585   1.110   2.684 -1.0669 -1.2737  0.1583
 8015TIP3   OH245459   1.936   6.323  10.777  0.1261  0.5319  0.2196
 8015TIP3    H145460   1.846   6.348  10.798  0.3316 -1.0610  3.6512
 8015TIP3    H245461   1.990   6.390  10.818  0.5564  0.9969 -1.0634
 8016TIP3   OH245462   0.689   2.906  10.703  0.3736  0.4174 -0.4060
 8016TIP3    H145463   0.742   2.969  10.750  1.4667 -0.6772 -0.1088
 8016TIP3    H245464   0.699   2.930  10.611 -2.1195  2.8311 -0.1793
 8017TIP3   OH245465   5.862   3.740   3.443 -0.0182 -0.1841  0.3061
 8017TIP3    H145466   5.941   3.787   3.469 -0.1946 -0.1349  0.7651
 8017TIP3    H245467   5.855   3.754   3.349  0.0741  0.4984  0.3986
 8018TIP3   OH245468   0.768   1.855   3.670 -0.1264 -0.3845 -0.0136
 8018TIP3    H145469   0.715   1.835   3.747 -0.3744  0.1140 -0.0585
 8018TIP3    H245470   0.858   1.835   3.698 -0.5418 -4.2006 -0.8626
 8019TIP3   OH245471   0.377   1.536   2.932 -0.6188  0.3686  0.0696
 8019TIP3    H145472   0.378   1.540   3.027  2.7244 -0.0204  0.1901
 8019TIP3    H245473   0.445   1.598   2.905 -0.6760 -0.3834 -2.0000
 8020TIP3   OH245474   3.720   3.969   5.801 -0.0649  0.0233  0.0845
 8020TIP3    H145475   3.701   3.887   5.756  0.9552  0.0749 -0.4717
 8020TIP3    H245476   3.773   3.944   5.877  0.4510  0.1804 -0.2186
 8021TIP3   OH245477   5.417   4.502   2.436  0.0284  0.4992  0.1944
 8021TIP3    H145478   5.327   4.532   2.428  1.0565  3.4883 -2.3279
 8021TIP3    H245479   5.459   4.568   2.492  0.9465 -0.1345  0.2690
 8022TIP3   OH245480   2.534   4.895   5.135 -0.4096  0.2196 -0.2864
 8022TIP3    H145481   2.544   4.973   5.080  3.1134  0.6881  0.8070
 8022TIP3    H245482   2.485   4.926   5.211 -1.9282  0.4908 -1.3265
 8023TIP3   OH245483   5.777   0.739  11.011 -0.2227 -0.1649 -0.6408
 8023TIP3    H145484   5.691   0.732  10.970 -0.9439  0.6046  0.6803
 8023TIP3    H245485   5.839   0.712  10.943 -1.2295  2.4221 -2.7101
 8024TIP3   OH245486   6.018   5.245   0.820  0.6319  0.5444 -0.5409
 8024TIP3    H145487   5.967   5.288   0.888  0.7249  1.8292 -1.2545
 8024TIP3    H245488   5.984   5.156   0.817  0.1019  0.6909  0.6447
 8025TIP3   OH245489   3.508   4.026  11.001 -0.0116 -0.3663 -0.2639
 8025TIP3    H145490   3.482   4.016  10.909 -1.8785  1.8571 -0.0689
 8025TIP3    H245491   3.429   4.054  11.046  1.2924  0.4527  1.6904
 8026TIP3   OH245492   4.350   3.988   6.638 -0.2413  0.3199 -0.2272
 8026TIP3    H145493   4.304   3.904   6.640  1.6117 -0.7293  0.0908
 8026TIP3    H245494   4.286   4.049   6.602 -2.4008 -0.7358  1.5543
 8027TIP3   OH245495   4.976   0.796   4.162  0.6333  0.0822 -0.2661
 8027TIP3    H145496   5.019   0.712   4.178 -1.3629 -0.8087  0.7934
 8027TIP3    H245497   4.983   0.842   4.246 -0.3382 -0.0449 -0.1012
 8028TIP3   OH245498   1.921   3.654   0.230  0.6730 -0.2915 -0.2075
 8028TIP3    H145499   1.959   3.696   0.307  0.0559  1.1433 -0.6503
 8028TIP3    H245500   1.898   3.566   0.259  2.7278 -0.6274  0.5301
 8029TIP3   OH245501   1.320   5.617  13.067 -0.4443  0.3778  0.2448
 8029TIP3    H145502   1.403   5.579  13.096 -1.2284 -0.2321  1.8122
 8029TIP3    H245503   1.311   5.591  12.976  2.2234  2.4940 -0.7469
 8030TIP3   OH245504   2.252   2.321  12.790  0.0332 -0.4994 -0.2646
 8030TIP3    H145505   2.159   2.336  12.773  0.1100  1.3951  0.7217
 8030TIP3    H245506   2.262   2.226  12.783 -1.5701 -0.5987 -2.2436
 8031TIP3   OH245507   4.892   2.816  13.861 -0.5141 -0.1427 -0.0171
 8031TIP3    H145508   4.912   2.874  13.788  0.2756 -0.8248 -0.3688
 8031TIP3    H245509   4.978   2.793  13.897 -0.9134  0.7018  1.5566
 8032TIP3   OH245510   3.476   0.360  17.013 -0.5133 -0.1530 -0.1872
 8032TIP3    H145511   3.482   0.432  17.076 -2.5260 -0.0074 -0.0839
 8032TIP3    H245512   3.560   0.360  16.968  0.2949  0.9101  1.2442
 8033TIP3   OH245513   3.541   5.651  14.061  0.3931 -0.3477 -0.5458
 8033TIP3    H145514   3.473   5.682  14.120  0.1779  0.6226 -1.2764
 8033TIP3    H245515   3.498   5.584  14.007 -0.0163  0.2894 -1.0317
 8034TIP3   OH245516   3.626   0.215  15.629 -0.2175 -0.0772  0.7484
 8034TIP3    H145517   3.671   0.140  15.668  0.8982  0.8778  1.3734
 8034TIP3    H245518   3.676   0.234  15.549 -1.0749 -0.5668  0.0738
 8035TIP3   OH245519   5.305   3.236  12.603 -0.0141 -0.4319 -0.1614
 8035TIP3    H145520   5.315   3.174  12.675 -1.2994 -3.6040 -2.4652
 8035TIP3    H245521   5.393   3.244  12.565  0.0267 -1.6154 -0.3525
 8036TIP3   OH245522   2.275   4.220  15.751  0.2704 -0.2379  0.2473
 8036TIP3    H145523   2.207   4.269  15.705 -0.2544  1.6900  2.8524
 8036TIP3    H245524   2.226   4.159  15.807  0.8101 -0.6956  0.2281
 8037TIP3   OH245525   6.409   1.551  13.688 -0.1320 -0.0578  0.1908
 8037TIP3    H145526   6.361   1.519  13.765 -0.7308 -1.5342 -0.7572
 8037TIP3    H245527   6.501   1.548  13.714 -0.4009  0.8670  1.3357
 8038TIP3   OH245528   3.658   6.308  10.725 -0.1318 -0.1544  0.1054
 8038TIP3    H145529   3.628   6.259  10.801 -1.1668  2.1725  1.2941
 8038TIP3    H245530   3.591   6.293  10.658 -0.2888 -0.5434  0.3446
 8039TIP3   OH245531   0.652   1.574  12.023  0.3749  0.6543 -0.3882
 8039TIP3    H145532   0.603   1.654  12.005 -0.3101  1.2174  3.1620
 8039TIP3    H245533   0.741   1.605  12.041  0.5887  0.3661 -0.9463
 8040TIP3   OH245534   3.576   1.333   3.855 -0.4288  0.4988  0.2405
 8040TIP3    H145535   3.669   1.332   3.831 -0.9509 -1.2133 -2.1740
 8040TIP3    H245536   3.569   1.269   3.925  0.0305 -0.5052 -0.6025
 8041TIP3   OH245537   2.136   5.305   1.944  0.2416  0.1798 -0.0512
 8041TIP3    H145538   2.193   5.371   1.983 -0.6881  1.5142 -0.8627
 8041TIP3    H245539   2.182   5.277   1.865  1.1207 -0.9535  0.8230
 8042TIP3   OH245540   4.592   1.229   3.014  0.1516 -0.2461  0.4068
 8042TIP3    H145541   4.641   1.148   3.002  0.7312  0.0215  0.9009
 8042TIP3    H245542   4.649   1.285   3.066 -0.0392  0.6691 -0.3199
 8043TIP3   OH245543   2.452   0.990   2.167  0.2008  0.3139 -0.0982
 8043TIP3    H145544   2.540   0.996   2.204 -0.2184  0.3068  0.9301
 8043TIP3    H245545   2.466   0.982   2.073  1.2996  0.2867  0.0566
 8044TIP3   OH245546   6.327   5.467   2.925 -0.3860  0.3698 -0.1375
 8044TIP3    H145547   6.388   5.437   2.858  0.1224  0.4558  0.2848
 8044TIP3    H245548   6.256   5.508   2.876 -1.1021 -1.4967 -0.7319
 8045TIP3   OH245549   6.352   3.495   2.731  0.2499 -0.4983  0.0826
 8045TIP3    H145550   6.376   3.587   2.739 -0.1934 -0.5076  2.0168
 8045TIP3    H245551   6.256   3.497   2.724  0.3408 -0.7516 -1.9703
 8046TIP3   OH245552   5.607   4.097  15.895  0.3179  0.1279 -0.2568
 8046TIP3    H145553   5.702   4.102  15.891  0.4895 -1.0072  1.6185
 8046TIP3    H245554   5.587   4.005  15.880 -0.5277  0.3878 -0.8279
 8047TIP3   OH245555   0.554   6.242  15.629  0.3574  0.2100 -0.1348
 8047TIP3    H145556   0.606   6.170  15.595  0.8247  0.9415 -1.0168
 8047TIP3    H245557   0.594   6.320  15.592 -0.0495  0.9439  0.9123
 8048TIP3   OH245558   0.574   5.388  12.641  0.1729  0.0663  0.1691
 8048TIP3    H145559   0.546   5.459  12.699 -2.6471 -0.2855 -0.6226
 8048TIP3    H245560   0.550   5.308  12.688 -0.5538 -0.2498 -0.7023
 8049TIP3   OH245561   4.091   5.259   5.564 -0.5305  0.1548  0.0454
 8049TIP3    H145562   4.040   5.186   5.530 -0.9801 -0.3074  1.6244
 8049TIP3    H245563   4.167   5.218   5.605 -0.8484  0.5281  1.0572
 8050TIP3   OH245564   0.959   2.363   3.558  0.2822  0.3141  0.0452
 8050TIP3    H145565   1.000   2.364   3.645 -1.7222  2.9551  1.1074
 8050TIP3    H245566   0.924   2.275   3.548  2.4206 -0.6952  0.9217
 8051TIP3   OH245567   1.835   1.206   1.418 -0.0442 -0.0230 -0.1131
 8051TIP3    H145568   1.769   1.142   1.393 -0.5550 -1.0909  3.4801
 8051TIP3    H245569   1.918   1.165   1.394 -0.4858 -0.3664 -1.1274
 8052TIP3   OH245570   0.302   6.388  14.798  0.4307  0.0599 -0.4836
 8052TIP3    H145571   0.241   6.319  14.826 -0.3249  1.7691  2.4335
 8052TIP3    H245572   0.257   6.431  14.725  0.3838 -1.6991 -1.5467
 8053TIP3   OH245573   4.230   0.178  12.932  0.2374 -0.0304 -0.4319
 8053TIP3    H145574   4.143   0.199  12.898 -0.1911 -0.4580  0.3714
 8053TIP3    H245575   4.262   0.108  12.875 -0.8660 -1.4057  0.5804
 8054TIP3   OH245576   1.651   4.167   5.927 -0.3648  0.1055 -0.2677
 8054TIP3    H145577   1.703   4.166   6.007  0.0729  0.0658 -0.5482
 8054TIP3    H245578   1.599   4.247   5.932  1.1595  1.1917 -0.8884
 8055TIP3   OH245579   4.374   4.903   4.332 -0.4315 -0.5850  0.4455
 8055TIP3    H145580   4.357   4.820   4.286 -1.4170  0.2806 -0.8103
 8055TIP3    H245581   4.299   4.914   4.390 -0.4090 -0.4699  0.4528
 8056TIP3   OH245582   3.028   1.043  15.190 -0.1632 -0.2094  0.4121
 8056TIP3    H145583   2.940   1.028  15.222 -0.4699 -2.0206 -1.1499
 8056TIP3    H245584   3.083   0.984  15.240 -0.2687 -1.1215 -0.5155
 8057TIP3   OH245585   2.854   0.673   2.094  0.3653 -0.4533 -0.1963
 8057TIP3    H145586   2.881   0.581   2.094 -0.5039 -0.7180  0.1702
 8057TIP3    H245587   2.801   0.682   2.015 -2.2440 -1.1220  1.3560
 8058TIP3   OH245588   2.106   4.984  15.284 -0.1150  0.3348 -0.0907
 8058TIP3    H145589   2.055   4.906  15.305  0.4937 -0.5536 -1.7538
 8058TIP3    H245590   2.042   5.056  15.287 -0.8310 -0.3174  0.7404
 8059TIP3   OH245591   0.142   1.335  16.737  0.3910  0.5745  0.1083
 8059TIP3    H145592   0.212   1.297  16.789  1.8961 -0.0204 -2.2239
 8059TIP3    H245593   0.120   1.267  16.673  0.1637  2.0383 -1.4380
 8060TIP3   OH245594   1.680   5.692   0.354  0.4918  0.1805 -0.0887
 8060TIP3    H145595   1.633   5.663   0.276  0.1348  0.0973  0.1575
 8060TIP3    H245596   1.727   5.771   0.326  2.4407 -1.2453 -1.1058
 8061TIP3   OH245597   3.716   1.366  11.491 -0.2319  0.2597  0.6489
 8061TIP3    H145598   3.652   1.399  11.428 -0.9907 -1.1385  0.6310
 8061TIP3    H245599   3.752   1.288  11.450  1.3588  0.9068  0.7634
 8062TIP3   OH245600   2.282   5.159   2.133 -0.7291 -0.3338  0.3680
 8062TIP3    H145601   2.221   5.183   2.202  0.4040 -0.4117  1.4254
 8062TIP3    H245602   2.242   5.194   2.053 -2.0121 -0.1544  1.0524
 8063TIP3   OH245603   1.950   4.151   6.219 -0.2088  0.3871 -0.0796
 8063TIP3    H145604   1.962   4.172   6.312 -0.3813 -1.0040  0.2820
 8063TIP3    H245605   1.860   4.119   6.213 -0.8477  2.2357 -1.1038
 8064TIP3   OH245606   5.762   0.910  12.484 -0.2292  0.5345 -0.4989
 8064TIP3    H145607   5.726   0.833  12.527  1.6812 -0.2714 -0.2326
 8064TIP3    H245608   5.752   0.893  12.390  1.3497 -0.6912 -0.4829
 8065TIP3   OH245609   2.773   5.768  14.812 -0.3759 -0.2761 -0.1081
 8065TIP3    H145610   2.840   5.702  14.793 -0.6421 -0.0482 -1.9758
 8065TIP3    H245611   2.715   5.725  14.875 -0.9010 -2.0942 -1.7449
 8066TIP3   OH245612   3.403   0.303  11.514 -0.1031 -0.1245 -0.2892
 8066TIP3    H145613   3.480   0.289  11.568 -1.8196 -0.0817  2.3292
 8066TIP3    H245614   3.385   0.396  11.520 -1.8023 -0.5044  1.3272
 8067TIP3   OH245615   5.046   3.959  15.623  0.2845  0.0478  0.1974
 8067TIP3    H145616   4.963   3.992  15.657  1.4593  1.4709  1.8382
 8067TIP3    H245617   5.084   3.910  15.696  1.5482  0.6555 -0.0306
 8068TIP3   OH245618   4.385   1.644  13.646 -0.7027 -0.2157 -0.5108
 8068TIP3    H145619   4.464   1.667  13.596 -0.5898 -1.2389 -0.8192
 8068TIP3    H245620   4.389   1.700  13.724  0.5751 -0.5593 -0.3036
 8069TIP3   OH245621   5.327   0.034  15.019  0.0607  0.1894  0.6121
 8069TIP3    H145622   5.394   0.041  15.087 -0.1357 -0.2376  0.8544
 8069TIP3    H245623   5.309  -0.060  15.013 -1.2905  0.3854  1.2976
 8070TIP3   OH245624   2.246   1.485   5.614  0.6468 -0.2711 -0.0201
 8070TIP3    H145625   2.217   1.568   5.653 -0.7838 -0.2837 -0.9812
 8070TIP3    H245626   2.328   1.465   5.659  0.0533  0.6957  1.5629
 8071TIP3   OH245627   6.466   4.177  15.770  0.1171 -0.0155  0.1054
 8071TIP3    H145628   6.459   4.263  15.729 -2.7515  0.0645  0.5757
 8071TIP3    H245629   6.512   4.123  15.705  0.8518  1.5493 -0.7100
 8072TIP3   OH245630   4.836   5.118   4.499 -0.3170  0.3351  0.2686
 8072TIP3    H145631   4.880   5.110   4.414  0.3117 -1.2448  0.7024
 8072TIP3    H245632   4.743   5.105   4.480 -0.0126 -1.8175 -0.0059
 8073TIP3   OH245633   5.100   0.090  16.991  0.5953  0.9674  0.6851
 8073TIP3    H145634   5.141   0.029  17.052 -0.3017  0.7734  1.1201
 8073TIP3    H245635   5.087   0.170  17.042 -1.6205  0.2860  1.2925
 8074TIP3   OH245636   2.071   1.527  15.529 -0.1621 -0.1153 -0.8403
 8074TIP3    H145637   2.023   1.453  15.567  1.7055 -2.0918 -2.1523
 8074TIP3    H245638   2.012   1.561  15.461 -0.0902 -2.0470 -1.9406
 8075TIP3   OH245639   5.830   5.044   1.603  0.0977  0.2622 -0.1564
 8075TIP3    H145640   5.893   5.037   1.531  0.4267  0.1993  0.1376
 8075TIP3    H245641   5.882   5.073   1.678  0.1217 -1.4169  0.5252
 8076TIP3   OH245642   0.037   0.621   4.654 -0.1899 -0.3200 -0.6734
 8076TIP3    H145643   0.019   0.715   4.645  2.8640  0.3887 -0.6354
 8076TIP3    H245644   0.133   0.616   4.660 -0.3307 -3.2504  1.5826
 8077TIP3   OH245645   1.292   1.529   6.130 -0.3518 -0.3533 -0.0996
 8077TIP3    H145646   1.290   1.478   6.212  1.4146 -0.4206 -0.0570
 8077TIP3    H245647   1.278   1.619   6.157 -0.4725 -0.4607  0.1968
 8078TIP3   OH245648   3.567   2.911   5.205 -0.0878 -0.1012  0.2905
 8078TIP3    H145649   3.528   2.970   5.140  0.2726 -0.4229 -0.2304
 8078TIP3    H245650   3.493   2.880   5.257 -1.0554 -2.8860 -2.4332
 8079TIP3   OH245651   3.865   0.988   4.893  0.3110  0.0438 -0.6039
 8079TIP3    H145652   3.798   0.946   4.947 -2.0424  1.4125 -2.2650
 8079TIP3    H245653   3.925   1.027   4.957 -1.0454 -0.3410  1.0065
 8080TIP3   OH245654   5.686   0.705   3.475 -0.5573  0.0942 -0.2312
 8080TIP3    H145655   5.691   0.753   3.557 -2.0859 -0.4914  0.2403
 8080TIP3    H245656   5.777   0.696   3.446  0.1385 -0.7660  2.0150
 8081TIP3   OH245657   5.265   3.823  13.509  0.4755  0.4795 -0.1425
 8081TIP3    H145658   5.339   3.865  13.466  1.6379 -1.9613 -0.6807
 8081TIP3    H245659   5.195   3.826  13.444  1.6913 -1.6189 -1.6976
 8082TIP3   OH245660   5.599   0.352   3.839 -0.2549 -0.6257 -0.1719
 8082TIP3    H145661   5.569   0.440   3.863  2.0877  0.3243 -0.4690
 8082TIP3    H245662   5.521   0.297   3.848 -1.6258  1.3367  0.6999
 8083TIP3   OH245663   6.492   6.409   1.430  0.2002  0.0613  0.0934
 8083TIP3    H145664   6.486   6.381   1.522  1.3658 -0.7920 -0.0742
 8083TIP3    H245665   6.423   6.359   1.386 -1.6836  1.8857  0.7788
 8084TIP3   OH245666   0.628   5.825   5.906  0.3767  0.6051  0.1929
 8084TIP3    H145667   0.710   5.777   5.918  0.8730  1.0750 -1.1199
 8084TIP3    H245668   0.620   5.835   5.811 -1.3454  0.3340  0.2890
 8085TIP3   OH245669   6.443   5.903   1.365 -0.4614  0.6508  0.2217
 8085TIP3    H145670   6.507   5.958   1.408 -0.1245  2.0355 -1.9089
 8085TIP3    H245671   6.494   5.850   1.304 -1.1295  0.2982 -0.0448
 8086TIP3   OH245672   0.636   2.286  10.932 -0.0551  0.4547 -0.6400
 8086TIP3    H145673   0.630   2.207  10.878 -0.8167  0.4151 -0.5122
 8086TIP3    H245674   0.656   2.356  10.870 -2.5390  0.6995 -1.2810
 8087TIP3   OH245675   2.049   2.845   5.697 -0.3097  0.2282  0.8033
 8087TIP3    H145676   2.011   2.921   5.653  0.2023  0.7537  1.2462
 8087TIP3    H245677   1.995   2.834   5.776 -1.4695 -0.9506 -0.1167
 8088TIP3   OH245678   6.538   0.964  10.606 -0.0234  0.0736 -0.1601
 8088TIP3    H145679   6.531   1.059  10.606 -2.2832 -0.0431 -0.3650
 8088TIP3    H245680   6.595   0.944  10.681  1.9582  1.5981 -1.1550
 8089TIP3   OH245681   6.702   3.046  13.485 -0.6183  0.6564 -0.6230
 8089TIP3    H145682   6.750   3.025  13.405  0.8742 -1.6100  0.7510
 8089TIP3    H245683   6.753   3.117  13.525  0.1936 -0.0249 -0.4143
 8090TIP3   OH245684   4.662   1.728  13.120  0.4241  0.1692 -0.5779
 8090TIP3    H145685   4.713   1.808  13.108 -0.4249  0.6712 -0.9076
 8090TIP3    H245686   4.724   1.666  13.160  0.8940  1.2149  0.3728
 8091TIP3   OH245687   2.151   1.204   0.357 -0.4452 -0.1133  0.0263
 8091TIP3    H145688   2.092   1.167   0.291 -0.7242  0.4323 -0.0408
 8091TIP3    H245689   2.203   1.268   0.309 -0.0228 -0.3588  0.1554
 8092TIP3   OH245690   3.908   1.712   5.099  0.5083 -0.4399 -0.5726
 8092TIP3    H145691   3.957   1.794   5.109  1.2663 -0.9552 -0.0173
 8092TIP3    H245692   3.974   1.647   5.075  0.0919 -1.1372  0.1247
 8093TIP3   OH245693   1.770   1.797   3.454 -0.6440 -0.1004 -0.6831
 8093TIP3    H145694   1.783   1.723   3.395 -0.6698 -0.3288 -0.4064
 8093TIP3    H245695   1.779   1.874   3.398  0.1025 -0.2891 -0.8434
 8094TIP3   OH245696   2.152   1.950  13.014  0.1090  0.0294 -0.4037
 8094TIP3    H145697   2.170   1.900  13.094 -1.3253 -0.1548 -0.1599
 8094TIP3    H245698   2.063   1.923  12.989  0.0861  0.9760 -1.3948
 8095TIP3   OH245699   4.760   1.048  13.942  0.1680 -0.3938 -0.3162
 8095TIP3    H145700   4.790   1.077  13.856 -0.1087  0.0846 -0.2572
 8095TIP3    H245701   4.838   1.053  13.997 -0.5867  4.3329  0.7550
 8096TIP3   OH245702   5.943   2.211  13.886 -0.2819 -0.4501  0.1938
 8096TIP3    H145703   5.970   2.303  13.878 -1.5263 -0.0942 -0.1219
 8096TIP3    H245704   5.848   2.215  13.900 -0.6711 -1.7320 -1.7286
 8097TIP3   OH245705   6.540   4.073   0.247 -0.0976  0.2568 -0.1479
 8097TIP3    H145706   6.577   4.064   0.159 -0.9597 -2.3155 -0.3350
 8097TIP3    H245707   6.603   4.028   0.304  0.0167  1.1375  0.4406
 8098TIP3   OH245708   0.493   3.763   0.826 -0.1983 -0.2466 -0.1826
 8098TIP3    H145709   0.585   3.748   0.848 -0.1408 -0.0207 -0.2743
 8098TIP3    H245710   0.455   3.801   0.905  0.1547  1.1761 -0.6688
 8099TIP3   OH245711   2.767   3.710   1.439 -0.3436 -0.0014  0.1000
 8099TIP3    H145712   2.742   3.666   1.520  2.2455 -1.2566  0.3146
 8099TIP3    H245713   2.782   3.801   1.466 -0.1816 -0.2515  0.9022
 8100TIP3   OH245714   2.704   5.496  17.104 -0.4302 -0.4627  0.0362
 8100TIP3    H145715   2.714   5.419  17.160 -0.7088 -0.8247 -0.4097
 8100TIP3    H245716   2.665   5.463  17.023 -0.7561  0.1772 -0.0791
 8101TIP3   OH245717   0.640   3.034   0.375 -0.1482  0.4883  0.4228
 8101TIP3    H145718   0.595   3.118   0.374  1.2271  1.2692 -0.6803
 8101TIP3    H245719   0.572   2.969   0.360 -1.1337  1.4690  0.5652
 8102TIP3   OH245720   1.816   5.175   3.747 -0.5549 -0.3209  0.0764
 8102TIP3    H145721   1.798   5.234   3.674  0.2109 -1.3356 -0.9870
 8102TIP3    H245722   1.761   5.207   3.818 -1.1736  0.8336 -0.8750
 8103TIP3   OH245723   0.227   5.891  17.224  0.1924 -0.6963  0.1764
 8103TIP3    H145724   0.139   5.919  17.201  0.4985  0.0917 -0.0778
 8103TIP3    H245725   0.234   5.801  17.190  0.1615 -0.0564 -1.6349
 8104TIP3   OH245726   4.670   0.626   4.395 -0.2397  0.0203  0.5488
 8104TIP3    H145727   4.578   0.609   4.416 -1.3264  3.9027 -0.2129
 8104TIP3    H245728   4.667   0.694   4.327  3.2255 -0.7507 -0.5783
 8105TIP3   OH245729   1.325   3.173   4.485  0.0508  0.1695 -0.2591
 8105TIP3    H145730   1.318   3.269   4.481  2.4528  0.3824 -1.3597
 8105TIP3    H245731   1.387   3.151   4.416 -1.6192 -2.3788 -1.0798
 8106TIP3   OH245732   5.102   3.983  14.560 -0.5022 -0.0659 -0.1128
 8106TIP3    H145733   5.119   4.062  14.508 -1.0670 -0.8947 -1.6259
 8106TIP3    H245734   5.102   3.912  14.496 -1.4974 -1.1033  0.9925
 8107TIP3   OH245735   0.778   6.199   2.804 -0.4949 -0.1377 -0.2713
 8107TIP3    H145736   0.798   6.106   2.811 -0.8948 -0.1351  1.4264
 8107TIP3    H245737   0.851   6.243   2.848 -0.5830  0.3122 -0.5703
 8108TIP3   OH245738   5.750   3.049  10.611  0.6842  0.0255  1.1559
 8108TIP3    H145739   5.717   2.998  10.684 -0.0743 -0.7983  0.2634
 8108TIP3    H245740   5.815   2.992  10.569 -1.1544 -0.8591 -0.6754
 8109TIP3   OH245741   3.845   6.600  17.294  0.0979  0.2201 -0.3118
 8109TIP3    H145742   3.809   6.681  17.257  0.9558  0.4225 -0.7402
 8109TIP3    H245743   3.770   6.542  17.303 -0.6671  1.3354  0.7510
 8110TIP3   OH245744   4.315   3.752  14.236  0.7315  0.3586 -0.3639
 8110TIP3    H145745   4.281   3.841  14.243 -1.9378 -0.4817 -1.2651
 8110TIP3    H245746   4.307   3.730  14.143  0.6524 -1.0353 -0.0602
 8111TIP3   OH245747   6.595   0.840  14.051 -0.4699  0.0314 -0.1783
 8111TIP3    H145748   6.592   0.825  14.145 -0.5802 -1.0112 -0.3416
 8111TIP3    H245749   6.679   0.883  14.036 -0.1756 -0.3693  0.3175
 8112TIP3   OH245750   0.398   3.773   3.967  0.3320  0.0367  0.1528
 8112TIP3    H145751   0.419   3.691   3.923 -0.0747  0.1058 -0.1763
 8112TIP3    H245752   0.416   3.755   4.060  0.8427 -0.2210  0.0083
 8113TIP3   OH245753   5.681   2.639  14.759 -0.0180  0.0740 -0.2276
 8113TIP3    H145754   5.618   2.702  14.725  1.2067  0.9024 -1.0141
 8113TIP3    H245755   5.727   2.606  14.682 -1.3102 -2.6218  0.0272
 8114TIP3   OH245756   3.355   2.794  13.625  0.2015  0.6701  0.4866
 8114TIP3    H145757   3.371   2.835  13.710  1.3253  1.1027  0.0858
 8114TIP3    H245758   3.266   2.759  13.631  0.2005  0.8604  1.7668
 8115TIP3   OH245759   0.332   4.299   4.594  0.4984 -0.2966  0.1002
 8115TIP3    H145760   0.314   4.268   4.683  0.4050  0.3211  0.3035
 8115TIP3    H245761   0.367   4.387   4.607  1.0481 -0.4346 -0.4476
 8116TIP3   OH245762   4.364   5.414  16.179  0.0811  0.3123  0.6392
 8116TIP3    H145763   4.340   5.495  16.224 -0.1613  0.4940  0.1837
 8116TIP3    H245764   4.327   5.345  16.234 -0.4799  0.5433  0.5557
 8117TIP3   OH245765   3.715   5.652  16.175  0.1023  0.0589 -0.1449
 8117TIP3    H145766   3.694   5.631  16.266  0.3455  1.0009  0.1354
 8117TIP3    H245767   3.678   5.579  16.125  0.7837 -0.9644  0.7814
 8118TIP3   OH245768   0.317   1.428   5.997  0.1293 -0.1537  0.1304
 8118TIP3    H145769   0.335   1.520   6.017 -2.3233  0.4730 -0.2562
 8118TIP3    H245770   0.320   1.424   5.901 -1.7099  0.0343  0.0276
 8119TIP3   OH245771   1.025   2.184  12.884  0.7710 -0.2135  0.3536
 8119TIP3    H145772   1.069   2.111  12.841  0.7300 -0.0443  0.0217
 8119TIP3    H245773   0.940   2.189  12.841  1.1028  0.5826 -0.2331
 8120TIP3   OH245774   4.957   4.678   4.570  0.1650  0.5538  0.1951
 8120TIP3    H145775   4.864   4.694   4.556  0.6138  2.2135 -1.3112
 8120TIP3    H245776   4.981   4.616   4.501  0.5703  1.8212 -0.8536
 8121TIP3   OH245777   1.119   6.638   2.810  0.2097  0.4142  0.1095
 8121TIP3    H145778   1.092   6.698   2.741  0.5099 -1.7738 -2.0347
 8121TIP3    H245779   1.210   6.617   2.790 -0.3434 -1.9860 -0.2439
 8122TIP3   OH245780   4.638   6.339  15.034  0.3704  0.0506  0.3057
 8122TIP3    H145781   4.691   6.413  15.066 -0.4884  0.5129  0.6928
 8122TIP3    H245782   4.606   6.297  15.114 -2.9254  2.0179  0.2185
 8123TIP3   OH245783   0.990   0.932   2.237  0.4389  0.0624  0.1264
 8123TIP3    H145784   0.965   0.841   2.252 -1.0304  0.7675  2.5825
 8123TIP3    H245785   1.080   0.937   2.270 -0.0735 -0.1538  1.6130
 8124TIP3   OH245786   5.177   2.707   3.366  0.2407  1.0130  0.2343
 8124TIP3    H145787   5.224   2.735   3.288  0.8380 -1.8675 -0.5428
 8124TIP3    H245788   5.085   2.728   3.349  0.6034  2.1576 -0.3824
 8125TIP3   OH245789   1.543   6.056   0.499  0.1423 -0.1621  0.8168
 8125TIP3    H145790   1.635   6.077   0.515  0.0636  0.6682  0.2779
 8125TIP3    H245791   1.495   6.133   0.530 -0.4597 -0.9807  1.9818
 8126TIP3   OH245792   2.361   2.330  13.036 -0.0235  0.1636 -0.2194
 8126TIP3    H145793   2.340   2.306  12.946 -0.3081 -0.0227 -0.1044
 8126TIP3    H245794   2.277   2.332  13.081  0.2711 -1.5673  0.4854
 8127TIP3   OH245795   5.650   0.595  16.170  0.1306 -0.3232 -0.1817
 8127TIP3    H145796   5.571   0.556  16.134 -0.8982 -0.7796  2.3571
 8127TIP3    H245797   5.640   0.689  16.155 -0.6124 -0.4415 -0.4356
 8128TIP3   OH245798   2.835   4.092  14.475 -0.0011  0.3662  0.0694
 8128TIP3    H145799   2.855   4.178  14.437 -0.7402 -0.4489 -2.3622
 8128TIP3    H245800   2.918   4.060  14.509  1.1337  0.5418 -2.3196
 8129TIP3   OH245801   4.485   4.407  14.331  0.2019  0.2809  0.4749
 8129TIP3    H145802   4.441   4.468  14.271  0.8057  0.2857  0.0266
 8129TIP3    H245803   4.578   4.427  14.320  0.3694 -0.3808  0.7013
 8130TIP3   OH245804   2.433   6.720   5.196  0.3077 -0.5823 -0.1764
 8130TIP3    H145805   2.351   6.673   5.182 -1.0979  2.0856 -1.8214
 8130TIP3    H245806   2.444   6.721   5.291 -0.5628 -2.5133 -0.0036
 8131TIP3   OH245807   0.106   5.110  15.590 -0.0675  0.4102 -0.5447
 8131TIP3    H145808   0.089   5.144  15.678 -0.0799  0.8308 -0.7079
 8131TIP3    H245809   0.052   5.031  15.584  0.5528 -0.0874  0.1229
 8132TIP3   OH245810   0.088   5.397   0.608  0.4588  0.1863  0.1668
 8132TIP3    H145811   0.017   5.442   0.653  0.4453  0.9617 -0.6071
 8132TIP3    H245812   0.083   5.306   0.639 -2.2884 -0.3593 -1.5220
 8133TIP3   OH245813   3.783   2.465   2.925 -0.0522  0.7299 -0.0230
 8133TIP3    H145814   3.832   2.422   2.856 -0.1203  1.3062 -0.4393
 8133TIP3    H245815   3.695   2.429   2.920 -0.2947  1.4021 -0.8198
 8134TIP3   OH245816   0.742   2.112   2.803  0.5142  0.0079  0.0637
 8134TIP3    H145817   0.757   2.081   2.892 -1.3233  0.9887  0.7743
 8134TIP3    H245818   0.653   2.148   2.805  0.1695 -0.5699 -2.3611
 8135TIP3   OH245819   1.166   3.000   3.917 -0.0557 -0.4501 -0.0533
 8135TIP3    H145820   1.128   3.052   3.846  3.7120 -0.7799 -2.6312
 8135TIP3    H245821   1.207   3.065   3.975  1.2613 -0.2932 -1.1057
 8136TIP3   OH245822   3.202   1.039   5.400  0.8219 -0.1402 -0.0644
 8136TIP3    H145823   3.202   0.991   5.316  0.9001 -0.1481 -0.0605
 8136TIP3    H245824   3.116   1.080   5.404  1.1812  0.6878 -0.6234
 8137TIP3   OH245825   6.442   1.034  14.582 -0.3013  0.0896  0.1970
 8137TIP3    H145826   6.470   1.115  14.625 -0.8414 -0.0297  0.7872
 8137TIP3    H245827   6.392   0.987  14.649  0.0085 -0.7393 -0.1422
 8138TIP3   OH245828   3.104   5.685  11.748  0.5012 -0.1302  0.2704
 8138TIP3    H145829   3.178   5.743  11.765  1.6525 -1.6558  0.6405
 8138TIP3    H245830   3.054   5.686  11.830 -0.0485  1.0566 -0.0462
 8139TIP3   OH245831   6.029   1.192   2.917 -0.4036  0.0203  0.0933
 8139TIP3    H145832   5.985   1.239   2.988  0.8789  0.6428  0.5077
 8139TIP3    H245833   6.003   1.101   2.928  0.9415 -0.1732  2.3171
 8140TIP3   OH245834   1.052   1.590  13.127 -0.4915  0.4314  0.0324
 8140TIP3    H145835   1.012   1.548  13.203 -1.6193  1.5575  0.0955
 8140TIP3    H245836   1.062   1.682  13.152 -1.1285  0.8841 -1.2399
 8141TIP3   OH245837   1.265   0.755  13.951  0.4376 -0.3041  0.7355
 8141TIP3    H145838   1.333   0.692  13.927  1.6291  1.6226 -1.2753
 8141TIP3    H245839   1.223   0.779  13.869 -0.3814  1.0932  1.5127
 8142TIP3   OH245840   4.863   1.093   5.818  0.5282  0.1084  0.5511
 8142TIP3    H145841   4.778   1.100   5.775  0.0206  0.0987  1.5132
 8142TIP3    H245842   4.926   1.097   5.747 -0.2544  0.6440 -0.1394
 8143TIP3   OH245843   0.628   5.156   3.805 -0.0535 -0.1278  0.3600
 8143TIP3    H145844   0.604   5.064   3.819  3.9351 -1.3737  0.5309
 8143TIP3    H245845   0.592   5.178   3.719  0.2440 -2.4477 -0.4346
 8144TIP3   OH245846   2.953   3.653  15.436 -0.3003 -0.7344 -0.4201
 8144TIP3    H145847   3.024   3.601  15.399 -1.4588 -3.3888  0.8634
 8144TIP3    H245848   2.983   3.676  15.524 -0.5607 -0.8919 -0.2889
 8145TIP3   OH245849   1.129   6.589   0.808 -0.3734 -0.2144  0.1985
 8145TIP3    H145850   1.221   6.616   0.803 -0.6683  0.6377 -1.2312
 8145TIP3    H245851   1.094   6.606   0.721 -1.9533 -0.3202  0.7730
 8146TIP3   OH245852   5.537   2.779   1.861 -0.7482  0.0511 -0.2349
 8146TIP3    H145853   5.607   2.824   1.815 -0.7987  2.0233  1.4876
 8146TIP3    H245854   5.483   2.741   1.791  1.9810 -1.6085 -1.6003
 8147TIP3   OH245855   5.894   3.651   5.310 -0.1364  0.0904 -0.3036
 8147TIP3    H145856   5.828   3.649   5.242 -0.0977  1.2698 -0.3994
 8147TIP3    H245857   5.849   3.689   5.386  0.0470 -0.4369  0.0769
 8148TIP3   OH245858   2.335   2.835  12.977  0.3487  0.2290 -0.2518
 8148TIP3    H145859   2.375   2.749  12.968 -0.6056 -0.3986  1.0990
 8148TIP3    H245860   2.408   2.894  12.998  0.7607 -0.6201  0.7429
 8149TIP3   OH245861   2.191   1.258   3.265  0.1565  0.1554 -0.2748
 8149TIP3    H145862   2.272   1.305   3.286 -0.8116  1.0115  1.7979
 8149TIP3    H245863   2.148   1.245   3.349 -1.6089 -0.8096 -1.2607
 8150TIP3   OH245864   4.953   5.887  12.521  0.0178 -0.0819  0.1178
 8150TIP3    H145865   4.967   5.935  12.440  1.2366 -0.5173  0.0448
 8150TIP3    H245866   4.979   5.948  12.590 -0.3993  0.0680  0.1412
 8151TIP3   OH245867   0.438   5.766   2.511  0.2179  0.2429 -0.0425
 8151TIP3    H145868   0.437   5.862   2.509 -1.5169  0.3992  2.7022
 8151TIP3    H245869   0.477   5.744   2.596  1.7503 -1.5773 -1.1318
 8152TIP3   OH245870   5.319   4.302  14.956 -0.0623  0.3785 -0.4815
 8152TIP3    H145871   5.375   4.370  14.918 -0.3345  0.8017 -0.1338
 8152TIP3    H245872   5.256   4.282  14.887  0.2012  0.2662 -0.6921
 8153TIP3   OH245873   0.349   1.975  12.974  0.1729  0.6632 -0.0094
 8153TIP3    H145874   0.316   1.946  13.059  0.0157 -0.1081 -0.3243
 8153TIP3    H245875   0.274   2.017  12.932 -1.1138 -2.8040 -1.5243
 8154TIP3   OH245876   4.938   3.152   3.197  0.0734 -0.4688  0.0970
 8154TIP3    H145877   5.009   3.103   3.155 -0.4259 -0.2791 -0.9943
 8154TIP3    H245878   4.864   3.092   3.198 -1.1501  0.7848 -3.0273
 8155TIP3   OH245879   3.909   2.400   5.650 -0.4558 -0.0209 -0.0522
 8155TIP3    H145880   3.851   2.325   5.636 -0.6934  0.3293 -1.0311
 8155TIP3    H245881   3.993   2.361   5.672 -1.1284 -0.5379  1.8744
 8156TIP3   OH245882   1.803   0.965  15.097  0.2609  0.1154 -0.0554
 8156TIP3    H145883   1.826   1.032  15.161  0.9247 -0.4862  0.3571
 8156TIP3    H245884   1.815   1.007  15.012 -2.0978  1.4006  0.1895
 8157TIP3   OH245885   2.275   0.007   5.921 -0.4978  0.4675  1.0258
 8157TIP3    H145886   2.219  -0.035   5.987 -1.5671 -1.5213 -1.0064
 8157TIP3    H245887   2.354  -0.047   5.918 -0.0985  1.0353  1.2428
 8158TIP3   OH245888   5.611   4.608  14.374 -0.3392  0.4682  0.2189
 8158TIP3    H145889   5.656   4.553  14.309 -1.3332 -0.9277  0.6756
 8158TIP3    H245890   5.672   4.613  14.448  1.3633  3.1137 -1.1956
 8159TIP3   OH245891   1.999   4.746  12.129  0.4394 -0.0029 -0.5905
 8159TIP3    H145892   1.984   4.694  12.208  0.0085 -0.2598 -0.8383
 8159TIP3    H245893   2.032   4.684  12.065  1.0402  0.2550 -0.5387
 8160TIP3   OH245894   6.526   4.593  16.833  0.0573 -0.2551 -0.4721
 8160TIP3    H145895   6.468   4.520  16.857 -0.3375  0.6641  1.5983
 8160TIP3    H245896   6.467   4.667  16.819  0.6560  0.6142  1.3534
 8161TIP3   OH245897   2.516   3.448   2.388 -0.2635  0.2249  0.0922
 8161TIP3    H145898   2.503   3.441   2.294  0.5524 -1.9156  0.0936
 8161TIP3    H245899   2.440   3.405   2.426 -0.8622  1.5570  0.4571
 8162TIP3   OH245900   3.114   2.268  13.779  0.7598 -0.0186 -0.4453
 8162TIP3    H145901   3.037   2.248  13.726 -1.0316  1.0097  1.5632
 8162TIP3    H245902   3.097   2.356  13.813  0.1822 -1.6359  4.1958
 8163TIP3   OH245903   2.354   5.008  12.605  0.1543 -0.4105  0.3462
 8163TIP3    H145904   2.359   4.948  12.531 -1.5235 -0.0280 -0.1223
 8163TIP3    H245905   2.329   5.092  12.566  1.3493  0.3381  1.1193
 8164TIP3   OH245906   4.907   1.413  16.338  0.5221 -0.5935  0.1341
 8164TIP3    H145907   4.824   1.394  16.294  1.4894 -0.6872 -1.7923
 8164TIP3    H245908   4.908   1.355  16.414 -0.4094 -1.9157 -0.8070
 8165TIP3   OH245909   3.102   4.903  14.126 -0.2284  0.0854  0.0333
 8165TIP3    H145910   3.097   4.998  14.114  0.3903  0.0757 -0.3097
 8165TIP3    H245911   3.012   4.872  14.110 -0.4192  0.6005  0.0963
 8166TIP3   OH245912   5.009   2.489  12.714 -0.4885  0.6132 -0.5989
 8166TIP3    H145913   4.971   2.511  12.800 -0.0891  0.2749 -0.3316
 8166TIP3    H245914   5.096   2.529  12.716  0.0375 -0.5096 -0.3199
 8167TIP3   OH245915   6.563   5.120   2.945 -0.1222 -0.4390 -0.1097
 8167TIP3    H145916   6.497   5.187   2.962 -0.4931 -1.2118  1.7539
 8167TIP3    H245917   6.562   5.108   2.850  0.1499  2.3427 -0.5439
 8168TIP3   OH245918   2.921   6.752  17.058 -0.4561  0.0482 -0.6524
 8168TIP3    H145919   2.998   6.716  17.015 -0.4810 -0.8218  0.0051
 8168TIP3    H245920   2.878   6.804  16.990  1.5084  1.8663 -0.6193
 8169TIP3   OH245921   4.035   5.536   1.223 -0.3846  0.1818  0.3084
 8169TIP3    H145922   4.044   5.494   1.309  0.1694 -0.8788 -0.2411
 8169TIP3    H245923   3.971   5.483   1.177 -0.3387  0.4728 -0.0936
 8170TIP3   OH245924   4.980   6.284  14.962  0.2836  0.1107 -0.5485
 8170TIP3    H145925   5.037   6.242  15.026  0.1208 -1.2420 -1.2735
 8170TIP3    H245926   5.039   6.334  14.906  0.5923 -0.0323 -0.3484
 8171TIP3   OH245927   4.529   3.757  16.095  0.7417 -0.0162  0.1527
 8171TIP3    H145928   4.559   3.819  16.161  1.5059 -1.5299  1.3087
 8171TIP3    H245929   4.550   3.798  16.011  1.5585  1.1071  0.8869
 8172TIP3   OH245930   2.569   1.203   2.409  0.4535 -0.2702 -0.1585
 8172TIP3    H145931   2.571   1.298   2.397 -1.6115 -0.2485 -0.7578
 8172TIP3    H245932   2.479   1.185   2.438  1.2616 -1.8879  1.4499
 8173TIP3   OH245933   5.576   2.774   6.075 -0.0414 -0.3490  0.0206
 8173TIP3    H145934   5.488   2.738   6.077  0.6646 -2.1409  0.0537
 8173TIP3    H245935   5.619   2.731   6.001  0.8525  0.4032  0.0748
 8174TIP3   OH245936   6.764   4.905  14.193 -0.4926  0.0174  0.3512
 8174TIP3    H145937   6.749   4.924  14.286  0.0546 -0.1657  0.4844
 8174TIP3    H245938   6.849   4.946  14.174 -1.2262  1.2500 -0.4284
 8175TIP3   OH245939   4.974   3.917   1.141  0.2992 -0.4585  0.4810
 8175TIP3    H145940   5.026   3.863   1.200  0.1719 -0.6567  0.4131
 8175TIP3    H245941   4.989   4.006   1.171  0.5662 -0.5251  0.5500
 8176TIP3   OH245942   1.419   0.986   5.030 -0.0078 -0.4989 -0.3308
 8176TIP3    H145943   1.327   0.967   5.052 -0.1849 -0.1140 -0.7088
 8176TIP3    H245944   1.450   1.040   5.102  0.0095 -0.8651 -0.0605
 8177TIP3   OH245945   6.165   2.209   2.323 -0.3478  0.4317  0.6752
 8177TIP3    H145946   6.111   2.235   2.398  0.9245 -0.2911  1.8920
 8177TIP3    H245947   6.252   2.242   2.343  0.4466 -1.3998  0.4445
 8178TIP3   OH245948   6.166   4.499   2.325 -0.0258  0.3506  0.1613
 8178TIP3    H145949   6.110   4.435   2.370 -0.2247 -0.3657 -1.0717
 8178TIP3    H245950   6.150   4.484   2.232  1.9556  0.3674 -0.2236
 8179TIP3   OH245951   2.558   0.732   0.197 -0.3083 -0.7217 -0.1412
 8179TIP3    H145952   2.513   0.652   0.171 -1.1450  0.3265 -2.1156
 8179TIP3    H245953   2.498   0.803   0.172  0.8871  0.5722  0.5189
 8180TIP3   OH245954   5.028   4.207   1.612 -0.4248 -0.2592 -0.3767
 8180TIP3    H145955   4.939   4.182   1.585 -1.0790 -0.9295  2.1018
 8180TIP3    H245956   5.017   4.244   1.699  1.5477  1.4572 -0.7902
 8181TIP3   OH245957   6.747   4.054  14.653 -0.6804  0.1033  0.7438
 8181TIP3    H145958   6.703   4.025  14.573  1.2094 -2.0256  0.3792
 8181TIP3    H245959   6.837   4.069  14.626 -0.3002  0.6252  2.2282
 8182TIP3   OH245960   4.459   1.650   2.718  0.3519  0.3399 -0.2031
 8182TIP3    H145961   4.368   1.656   2.688  0.1491  0.8853  0.4792
 8182TIP3    H245962   4.503   1.596   2.653 -0.9382 -1.7462  0.5719
 8183TIP3   OH245963   2.918   2.038   4.936 -0.2771 -0.1057 -0.3045
 8183TIP3    H145964   2.847   2.063   4.876 -0.5269 -0.4125 -0.1427
 8183TIP3    H245965   2.875   1.981   5.000 -0.2411  1.0325  0.7702
 8184TIP3   OH245966   4.720   0.435   5.497  0.5811 -0.1816  0.0735
 8184TIP3    H145967   4.782   0.362   5.500  0.7637 -0.1058 -1.2695
 8184TIP3    H245968   4.659   0.417   5.568  1.9070 -0.4660  1.1887
 8185TIP3   OH245969   3.370   2.691   3.511 -0.2130  0.1777  0.1684
 8185TIP3    H145970   3.409   2.747   3.578 -1.0407  0.5759  0.3258
 8185TIP3    H245971   3.429   2.700   3.435  0.2679  0.3732  0.5581
 8186TIP3   OH245972   5.313   1.693  17.042  0.2956 -0.3645 -0.1148
 8186TIP3    H145973   5.295   1.736  17.125  0.5947  0.7319 -0.6029
 8186TIP3    H245974   5.262   1.742  16.978  1.4481 -0.0566 -0.8366
 8187TIP3   OH245975   2.891   2.792   1.266 -0.3517 -0.3467 -0.1608
 8187TIP3    H145976   2.917   2.736   1.340  0.5436  1.4429  0.9696
 8187TIP3    H245977   2.951   2.768   1.196 -0.6497 -1.4898 -0.0377
 8188TIP3   OH245978   4.524   2.419  16.722 -0.0210 -0.1676  0.2430
 8188TIP3    H145979   4.511   2.387  16.812  1.8655 -0.8587  0.3114
 8188TIP3    H245980   4.435   2.432  16.689 -0.7748 -0.2099  2.0889
 8189TIP3   OH245981   3.079   1.569  12.694  0.2423  0.4002 -0.1586
 8189TIP3    H145982   3.043   1.622  12.622 -1.2045 -0.2258  0.0539
 8189TIP3    H245983   3.012   1.502  12.709  0.5927  0.4160  1.6717
 8190TIP3   OH245984   2.214   0.098   1.647  0.2852  0.1638  0.0729
 8190TIP3    H145985   2.308   0.109   1.632  0.7393 -1.1088  1.6972
 8190TIP3    H245986   2.185   0.181   1.686  0.6048  0.7289 -0.8529
 8191TIP3   OH245987   1.133   4.615   1.358 -0.4965  0.2090 -0.2594
 8191TIP3    H145988   1.060   4.612   1.419  0.1947 -2.2187  0.5911
 8191TIP3    H245989   1.096   4.645   1.275 -1.5586  3.1050  1.1499
 8192TIP3   OH245990   6.545   5.727  11.690 -0.0646  0.1319 -0.3839
 8192TIP3    H145991   6.476   5.793  11.678 -1.0548 -0.4151  1.7400
 8192TIP3    H245992   6.498   5.647  11.712  1.2064 -0.1205  1.7460
 8193TIP3   OH245993   5.257   0.302   0.385  0.2623  0.2700  0.6391
 8193TIP3    H145994   5.191   0.233   0.375 -0.8177  1.1320  1.5590
 8193TIP3    H245995   5.215   0.368   0.439  1.1530  1.8161 -0.4745
 8194TIP3   OH245996   6.341   2.029   4.610 -0.0460 -0.3029  0.0368
 8194TIP3    H145997   6.262   1.987   4.577  1.0991 -1.3661 -1.5047
 8194TIP3    H245998   6.317   2.121   4.621 -1.4746 -0.5924 -0.4731
 8195TIP3   OH245999   2.624   4.612   4.866 -0.5879  0.1551  0.3523
 8195TIP3    H146000   2.687   4.658   4.811  0.8538 -2.5348 -0.4397
 8195TIP3    H246001   2.660   4.618   4.954 -0.8169  1.1256  0.3890
 8196TIP3   OH246002   1.738   3.278   0.869  0.4082  0.0458 -0.0079
 8196TIP3    H146003   1.689   3.339   0.925 -2.6556 -1.0173 -1.3174
 8196TIP3    H246004   1.698   3.287   0.783  2.1321 -1.4478 -1.0493
 8197TIP3   OH246005   1.366   5.202  11.615  0.1970  0.1123 -0.1821
 8197TIP3    H146006   1.335   5.111  11.614  1.2348 -0.3033  1.2970
 8197TIP3    H246007   1.297   5.252  11.572 -0.3412 -1.3899 -1.1244
 8198TIP3   OH246008   6.463   2.804   4.399 -0.2221 -0.5492 -0.2879
 8198TIP3    H146009   6.421   2.718   4.403  1.4730 -1.5744 -2.4517
 8198TIP3    H246010   6.557   2.786   4.404  0.1876  1.1528 -0.9029
 8199TIP3   OH246011   2.766   1.015   2.461 -0.0743 -0.6024  0.4506
 8199TIP3    H146012   2.710   1.082   2.422 -2.1975 -1.9432  1.0553
 8199TIP3    H246013   2.763   0.942   2.399  0.7028 -0.8565  0.7006
 8200TIP3   OH246014   6.012   4.446   5.663  0.4646  0.0305 -0.3941
 8200TIP3    H146015   6.041   4.536   5.682 -0.2333  0.7045 -2.3146
 8200TIP3    H246016   5.932   4.435   5.714  0.2109  0.7275 -0.6354
 8201TIP3   OH246017   2.215   6.082   0.100 -0.0597  0.2233 -0.1059
 8201TIP3    H146018   2.138   6.038   0.066 -0.5607  0.6917  0.3916
 8201TIP3    H246019   2.283   6.066   0.035 -0.6766  0.1190 -0.7371
 8202TIP3   OH246020   4.104   4.631   0.735 -0.0016  0.2229 -0.4902
 8202TIP3    H146021   4.096   4.542   0.701 -1.7199  0.6284 -1.2581
 8202TIP3    H246022   4.064   4.626   0.823 -0.5624  0.3285 -0.7343
 8203TIP3   OH246023   6.488   0.677   1.441 -0.4049 -0.3528  0.0262
 8203TIP3    H146024   6.397   0.649   1.439 -0.6381  0.4189 -0.9425
 8203TIP3    H246025   6.493   0.739   1.513 -0.4984 -0.8464  0.4636
 8204TIP3   OH246026   4.499   6.696   5.564 -0.2513  0.4143  0.1156
 8204TIP3    H146027   4.497   6.665   5.655 -0.7490 -1.0128 -0.3403
 8204TIP3    H246028   4.591   6.715   5.547 -0.2885  1.7604  1.2277
 8205TIP3   OH246029   3.151   3.744  14.627  0.5618  0.3856  0.2689
 8205TIP3    H146030   3.128   3.656  14.656  1.5871 -0.1238 -0.4222
 8205TIP3    H246031   3.246   3.750  14.639  0.4012  1.7243  1.1562
 8206TIP3   OH246032   2.361   1.366   2.838  0.0915  0.4794  0.8726
 8206TIP3    H146033   2.423   1.399   2.902  1.2712  1.5851 -0.7496
 8206TIP3    H246034   2.414   1.316   2.776 -1.0111 -0.6101  0.7763
 8207TIP3   OH246035   6.205   4.869  12.675 -0.0895 -0.0629 -0.0560
 8207TIP3    H146036   6.230   4.944  12.621  0.7699 -0.9975 -1.0057
 8207TIP3    H246037   6.286   4.845  12.721  0.5236 -2.2408 -2.0715
 8208TIP3   OH246038   5.851   2.016   4.121 -0.8163  0.0508  0.1371
 8208TIP3    H146039   5.940   2.021   4.086 -0.0182  1.2060  2.1455
 8208TIP3    H246040   5.822   2.107   4.129 -1.6266 -0.2405  0.7934
 8209TIP3   OH246041   6.758   5.265  14.123  0.6866 -0.7534  0.1518
 8209TIP3    H146042   6.803   5.350  14.127 -0.3400 -0.1293 -0.9235
 8209TIP3    H246043   6.817   5.205  14.169  1.2602  0.6060  1.2775
 8210TIP3   OH246044   0.560   3.955  14.286 -0.2859  0.8453  0.3778
 8210TIP3    H146045   0.518   3.952  14.372 -1.3007 -0.0091 -0.1166
 8210TIP3    H246046   0.649   3.984  14.304 -0.5299  0.8526  1.6970
 8211TIP3   OH246047   3.191   5.810  13.102 -0.5073  0.4463  0.0875
 8211TIP3    H146048   3.163   5.888  13.055  3.1593 -0.0353 -3.4174
 8211TIP3    H246049   3.282   5.826  13.125  0.8811 -3.1011 -2.0504
 8212TIP3   OH246050   0.873   3.107  12.786  0.1097 -0.0266  0.4547
 8212TIP3    H146051   0.790   3.104  12.834  0.2569 -0.7716  0.6635
 8212TIP3    H246052   0.876   3.196  12.750 -0.3220  0.3151  1.2473
 8213TIP3   OH246053   3.747   3.812  16.593 -0.2650 -0.7629  0.2765
 8213TIP3    H146054   3.687   3.826  16.521  0.3027  1.9628  0.2191
 8213TIP3    H246055   3.820   3.763  16.555 -0.9391 -1.2232 -0.4481
 8214TIP3   OH246056   6.341   5.329   4.732 -0.0178  0.2722  0.6642
 8214TIP3    H146057   6.249   5.328   4.759  0.4630  1.2233  2.4787
 8214TIP3    H246058   6.372   5.417   4.755  0.7711  0.8026 -2.0911
 8215TIP3   OH246059   3.186   6.001   2.748  0.0838  0.7695  0.1922
 8215TIP3    H146060   3.203   5.937   2.818 -0.1224 -0.7238 -1.0657
 8215TIP3    H246061   3.255   6.066   2.758  0.9495 -0.2163  0.8718
 8216TIP3   OH246062   3.764   1.421   5.801  0.7755  0.0191  0.7950
 8216TIP3    H146063   3.713   1.340   5.789 -1.6759  1.4528  0.7087
 8216TIP3    H246064   3.805   1.412   5.886  0.2324 -1.1624  0.9521
 8217TIP3   OH246065   6.693   1.417  15.531  0.0049  0.1998 -0.3573
 8217TIP3    H146066   6.661   1.423  15.441 -1.4253 -2.2632 -0.1167
 8217TIP3    H246067   6.622   1.453  15.585 -1.1110 -2.2876 -0.0256
 8218TIP3   OH246068   3.496   4.059   4.383 -0.0313  0.2319  0.2516
 8218TIP3    H146069   3.429   4.007   4.427  0.9026 -1.4351 -0.2168
 8218TIP3    H246070   3.571   4.056   4.442  0.7232 -0.7529 -0.7139
 8219TIP3   OH246071   5.368   5.675   4.978  0.5300  0.7267 -0.4313
 8219TIP3    H146072   5.432   5.687   5.048 -0.9000  0.4714  0.9748
 8219TIP3    H246073   5.346   5.582   4.981  0.2772  0.7602 -1.0711
 8220TIP3   OH246074   4.354   2.189   1.632 -0.2748  0.3152  0.1007
 8220TIP3    H146075   4.364   2.094   1.641  1.9231 -0.0169 -3.8169
 8220TIP3    H246076   4.403   2.224   1.707 -0.6082 -1.5876  1.2990
 8221TIP3   OH246077   0.657   2.853   2.196  0.4544  0.2183 -0.7348
 8221TIP3    H146078   0.577   2.823   2.240  0.7616  0.1748 -0.2014
 8221TIP3    H246079   0.691   2.775   2.151  2.6093 -1.0025  2.6632
 8222TIP3   OH246080   4.422   1.325  12.315  0.0886 -0.0977 -0.0799
 8222TIP3    H146081   4.354   1.392  12.324 -0.6006 -0.6849 -0.7288
 8222TIP3    H246082   4.405   1.286  12.229  1.1107 -0.4185 -0.1460
 8223TIP3   OH246083   2.898   5.811   2.742 -0.9691 -0.2781  0.4735
 8223TIP3    H146084   2.974   5.849   2.698 -0.9660 -1.1918 -0.3345
 8223TIP3    H246085   2.865   5.882   2.797  0.0099  0.3698  0.2608
 8224TIP3   OH246086   6.669   4.928  15.566  0.6871  0.0405  0.4745
 8224TIP3    H146087   6.640   4.837  15.560 -0.0820  0.3707 -1.4112
 8224TIP3    H246088   6.633   4.970  15.489  2.0226  1.6900  0.6899
 8225TIP3   OH246089   4.635   6.490   1.234  0.1060 -0.2942 -0.6081
 8225TIP3    H146090   4.612   6.566   1.287  0.2727 -0.9515  0.4238
 8225TIP3    H246091   4.634   6.417   1.295  2.8592 -0.6943 -0.9147
 8226TIP3   OH246092   0.020   1.512   5.265  0.3946  0.1471  0.2820
 8226TIP3    H146093   0.011   1.595   5.218 -0.3727 -0.1353 -0.0783
 8226TIP3    H246094   0.102   1.474   5.231  0.2277  0.2860 -0.2901
 8227TIP3   OH246095   5.673   2.304  16.399 -0.3105  0.1055 -0.0591
 8227TIP3    H146096   5.642   2.273  16.485 -1.0827 -3.0260 -1.3204
 8227TIP3    H246097   5.758   2.343  16.417 -0.7425  0.1315  2.2312
 8228TIP3   OH246098   5.697   2.917  11.035  0.1829  0.4742 -0.2506
 8228TIP3    H146099   5.638   2.982  10.997 -0.8564  0.0082  0.5050
 8228TIP3    H246100   5.728   2.865  10.961  0.1609  1.1441 -0.7309
 8229TIP3   OH246101   0.696   6.225   2.113 -0.0163 -0.3951 -0.3732
 8229TIP3    H146102   0.624   6.282   2.088  0.2358  0.8659  1.5993
 8229TIP3    H246103   0.759   6.232   2.041 -0.7651  0.4393 -0.9621
 8230TIP3   OH246104   6.373   6.150   1.847  0.0799  0.3262  0.1461
 8230TIP3    H146105   6.368   6.103   1.930 -2.8305 -0.5986 -0.4608
 8230TIP3    H246106   6.405   6.086   1.784 -0.2862  0.2681  0.0232
 8231TIP3   OH246107   6.095   3.606   0.059  0.0981  0.0562  0.2369
 8231TIP3    H146108   6.101   3.523   0.012  2.2156  1.9792 -3.3796
 8231TIP3    H246109   6.165   3.602   0.125  0.9885 -0.6632 -0.7141
 8232TIP3   OH246110   5.013   5.743  10.675 -0.6460  0.0863 -0.9810
 8232TIP3    H146111   5.097   5.742  10.721  0.6634 -2.9904 -3.1198
 8232TIP3    H246112   4.996   5.836  10.658  0.1281  1.1930  3.0331
 8233TIP3   OH246113   2.825   5.809   1.213 -0.0011 -0.3002  0.1473
 8233TIP3    H146114   2.783   5.741   1.160 -2.3621  0.1330  1.3398
 8233TIP3    H246115   2.772   5.887   1.199  2.2423  1.1798 -0.6192
 8234TIP3   OH246116   0.015   0.579  15.752 -0.2443 -0.5780 -0.7782
 8234TIP3    H146117   0.070   0.657  15.763 -1.6986  0.4639 -0.5619
 8234TIP3    H246118   0.072   0.506  15.773  0.2781  0.6309  2.4885
 8235TIP3   OH246119   4.468   5.602   1.823 -0.6596 -0.7747  0.6968
 8235TIP3    H146120   4.468   5.692   1.855 -0.1128 -0.0142 -1.3262
 8235TIP3    H246121   4.404   5.602   1.752  1.7420 -1.0757 -1.5921
 8236TIP3   OH246122   4.296   0.267   3.013  0.2581 -0.9031 -0.0261
 8236TIP3    H146123   4.336   0.352   2.997 -0.4892 -0.5453 -0.0267
 8236TIP3    H246124   4.370   0.210   3.035  0.8810 -0.5005 -1.0091
 8237TIP3   OH246125   0.741   4.274   2.679  0.1511  0.8019  0.5972
 8237TIP3    H146126   0.708   4.184   2.683  0.3750  0.7303  0.8557
 8237TIP3    H246127   0.664   4.327   2.699  0.4212  0.5834  2.4219
 8238TIP3   OH246128   3.202   2.522  15.135 -0.1032 -0.2589 -0.2803
 8238TIP3    H146129   3.175   2.452  15.194 -2.0946 -0.1043 -0.9270
 8238TIP3    H246130   3.272   2.567  15.182 -0.6040 -1.0489  1.3040
 8239TIP3   OH246131   1.507   5.570   2.882 -0.3931 -0.3443 -0.3265
 8239TIP3    H146132   1.509   5.478   2.854  1.4315 -0.7664  0.9768
 8239TIP3    H246133   1.435   5.573   2.946 -1.1285 -0.6087 -1.1225
 8240TIP3   OH246134   4.724   6.516  13.642  0.6526  0.6419 -0.5351
 8240TIP3    H146135   4.777   6.445  13.605 -1.1942 -2.0077  1.5111
 8240TIP3    H246136   4.635   6.497  13.612  0.3107  3.1878 -1.3429
 8241TIP3   OH246137   5.764   1.089  16.760 -0.3810  0.4647  0.2718
 8241TIP3    H146138   5.684   1.085  16.813 -0.3431 -0.8220  0.2436
 8241TIP3    H246139   5.828   1.036  16.808  0.5795  1.7221  0.4586
 8242TIP3   OH246140   1.930   3.090   5.599 -0.4453 -0.6072  0.2840
 8242TIP3    H146141   1.971   3.161   5.550 -0.2371 -0.9033  0.0265
 8242TIP3    H246142   1.860   3.132   5.650 -0.9113 -0.3531 -0.5517
 8243TIP3   OH246143   5.653   4.528   4.696  0.0200  0.1656 -0.1921
 8243TIP3    H146144   5.657   4.479   4.778 -1.3350  0.2782 -0.0438
 8243TIP3    H246145   5.643   4.620   4.723  0.2322  0.2771 -0.4804
 8244TIP3   OH246146   1.472   3.041  12.526 -0.1255 -0.4003 -0.7101
 8244TIP3    H146147   1.530   3.007  12.594 -0.8775  1.7356  1.1359
 8244TIP3    H246148   1.517   3.119  12.493 -0.6554 -0.3102 -1.2298
 8245TIP3   OH246149   6.297   1.409   5.349 -0.0752 -0.1990 -0.2537
 8245TIP3    H146150   6.287   1.488   5.402  1.4518 -1.8059  2.6902
 8245TIP3    H246151   6.248   1.342   5.397 -2.5464 -0.8595 -3.4117
 8246TIP3   OH246152   2.887   1.179  17.027 -0.1308  0.0550 -0.6005
 8246TIP3    H146153   2.928   1.127  16.958 -0.3274  0.0778 -0.7326
 8246TIP3    H246154   2.841   1.249  16.981  1.2641  1.1827 -0.3715
 8247TIP3   OH246155   3.019   5.827   4.263  0.0352  0.0344 -0.3819
 8247TIP3    H146156   3.074   5.775   4.205 -0.8026 -1.0820 -0.2240
 8247TIP3    H246157   3.032   5.786   4.349 -2.3882 -1.4824 -0.6405
 8248TIP3   OH246158   2.702   2.500   4.853 -0.3725  0.3902  0.2472
 8248TIP3    H146159   2.771   2.438   4.830  0.2431  0.5453  1.5804
 8248TIP3    H246160   2.653   2.513   4.772  0.3938 -0.6910 -0.4130
 8249TIP3   OH246161   6.507   5.949   4.789  0.5219 -0.0192 -0.1350
 8249TIP3    H146162   6.441   5.910   4.731  1.3862 -0.1929 -1.0431
 8249TIP3    H246163   6.459   6.010   4.843 -0.8628 -2.1726  1.2041
 8250TIP3   OH246164   2.940   1.783   0.584  0.5416 -0.0318 -0.2193
 8250TIP3    H146165   2.886   1.711   0.552 -1.1015 -0.1696  2.5249
 8250TIP3    H246166   3.020   1.741   0.614  1.2386 -0.1427 -2.0901
 8251TIP3   OH246167   4.426   2.821  11.571  0.3614  0.2631 -0.0568
 8251TIP3    H146168   4.364   2.786  11.636 -0.8434  0.8151 -0.8605
 8251TIP3    H246169   4.452   2.906  11.606  0.4951  0.1202  0.1880
 8252TIP3   OH246170   1.950   4.835   3.053  0.0014 -0.2519 -0.1660
 8252TIP3    H146171   1.960   4.818   3.146  2.2737  1.9078  0.0892
 8252TIP3    H246172   1.990   4.758   3.010  0.4531 -0.4977  0.6736
 8253TIP3   OH246173   0.375   4.639  15.486  0.2308 -0.4545  0.2540
 8253TIP3    H146174   0.356   4.662  15.577  1.2131 -1.7029  0.8311
 8253TIP3    H246175   0.310   4.685  15.434 -0.6739 -0.1260  1.6370
 8254TIP3   OH246176   0.453   1.599  13.403 -0.2439 -0.4102  0.8022
 8254TIP3    H146177   0.400   1.608  13.482 -0.1437  0.7068  0.7610
 8254TIP3    H246178   0.529   1.548  13.430  0.1387  0.5607  1.6189
 8255TIP3   OH246179   3.727   2.185   1.922  0.1822  0.0252 -0.0975
 8255TIP3    H146180   3.700   2.137   2.001  0.3277 -0.4576 -0.3360
 8255TIP3    H246181   3.740   2.117   1.856  1.8759  0.2335 -0.0217
 8256TIP3   OH246182   2.185   6.326   4.790  0.3186 -0.3003 -0.1316
 8256TIP3    H146183   2.165   6.245   4.743 -0.3115  0.2978 -0.9081
 8256TIP3    H246184   2.259   6.303   4.847  0.2426 -1.3755 -0.4515
 8257TIP3   OH246185   5.840   2.194   6.066 -0.3252  0.4328 -0.6524
 8257TIP3    H146186   5.769   2.187   6.130 -0.0792  3.7734  0.1815
 8257TIP3    H246187   5.874   2.105   6.058 -3.7415 -1.0763 -0.1573
 8258TIP3   OH246188   0.031   0.826   0.843  0.2834  0.2201  0.1886
 8258TIP3    H146189   0.032   0.884   0.767  0.3066  0.4963  0.3978
 8258TIP3    H246190  -0.062   0.809   0.858  0.3038 -0.3473 -0.2841
 8259TIP3   OH246191   0.333   0.839   5.246  0.7469  0.1080 -0.1804
 8259TIP3    H146192   0.415   0.871   5.284  0.3545 -1.2631  2.0050
 8259TIP3    H246193   0.266   0.897   5.282  0.5645  0.1867 -0.6312
 8260TIP3   OH246194   3.492   4.625   4.255 -0.1813  0.0676 -0.6141
 8260TIP3    H146195   3.469   4.532   4.263 -1.2321  0.3676 -0.0617
 8260TIP3    H246196   3.571   4.634   4.308  0.4640 -0.6850 -1.4062
 8261TIP3   OH246197   5.117   5.687   5.927 -0.8821 -0.5446 -0.0592
 8261TIP3    H146198   5.127   5.633   6.005  1.2201  1.9743  1.5862
 8261TIP3    H246199   5.151   5.633   5.855 -0.7657 -2.1087  1.1286
 8262TIP3   OH246200   2.386   4.724  15.592 -0.4475 -0.0363 -0.0461
 8262TIP3    H146201   2.387   4.812  15.554  0.9012  0.4076  0.9792
 8262TIP3    H246202   2.476   4.692  15.583 -0.5071 -0.6157  1.1707
 8263TIP3   OH246203   0.562   4.780  15.315  0.2948  0.0665  0.3671
 8263TIP3    H146204   0.615   4.730  15.253  1.3122 -0.4641  1.6311
 8263TIP3    H246205   0.524   4.714  15.373 -3.0935  0.2526 -1.4058
 8264TIP3   OH246206   0.534   4.317  11.412  0.9716  0.2150  0.8682
 8264TIP3    H146207   0.587   4.238  11.419  0.9958 -0.0153 -1.2951
 8264TIP3    H246208   0.593   4.382  11.375  0.0608  0.2298 -0.6488
 8265TIP3   OH246209   0.301   0.461  11.516 -0.4869 -0.2093 -0.1138
 8265TIP3    H146210   0.233   0.414  11.564 -1.2722 -0.0939 -1.0973
 8265TIP3    H246211   0.261   0.484  11.433 -0.0708  2.0451  0.2426
 8266TIP3   OH246212   3.181   3.338  11.625  0.2409  0.0245  0.4946
 8266TIP3    H146213   3.177   3.269  11.691 -0.3217  0.0972  0.5446
 8266TIP3    H246214   3.096   3.336  11.582  0.3875  0.3737  0.1719
 8267TIP3   OH246215   5.932   4.075   2.462  0.3212  0.2250 -0.2736
 8267TIP3    H146216   5.939   3.998   2.519 -0.2640 -0.4371 -1.0679
 8267TIP3    H246217   5.840   4.100   2.466 -0.0149 -0.6067 -1.8800
 8268TIP3   OH246218   4.530   6.410   0.572 -0.3000 -0.1906  0.0155
 8268TIP3    H146219   4.445   6.366   0.578  0.9000 -2.4771  1.0294
 8268TIP3    H246220   4.549   6.437   0.662  0.7195 -1.0374  0.0618
 8269TIP3   OH246221   6.317   5.970   6.326 -0.5624  0.0182 -0.3542
 8269TIP3    H146222   6.315   6.034   6.255 -0.9529 -0.5972 -0.8974
 8269TIP3    H246223   6.241   5.991   6.380  0.3365  1.1817  0.5119
 8270TIP3   OH246224   1.037   3.127   2.411  0.0951 -0.1489  0.4230
 8270TIP3    H146225   1.035   3.206   2.465  0.8341 -0.1221  0.4234
 8270TIP3    H246226   0.948   3.120   2.375  0.2666  1.1871 -0.3253
 8271TIP3   OH246227   6.041   3.553  16.793 -0.1843  0.6057 -0.6093
 8271TIP3    H146228   6.081   3.603  16.721  2.5146  1.0276  1.0595
 8271TIP3    H246229   5.998   3.620  16.847  0.2216  0.6570 -0.3479
 8272TIP3   OH246230   3.351   4.655   2.998  0.2064 -0.2550  0.2398
 8272TIP3    H146231   3.431   4.690   2.958 -0.1851  0.6182  0.2054
 8272TIP3    H246232   3.361   4.673   3.092 -0.1500  0.2809  0.1808
 8273TIP3   OH246233   6.549   2.651  12.550  0.1455 -0.0738 -0.2012
 8273TIP3    H146234   6.517   2.592  12.618  0.7638 -1.2630 -0.9212
 8273TIP3    H246235   6.474   2.664  12.492 -0.4850  1.2072  0.8347
 8274TIP3   OH246236   1.831   4.229   0.530 -0.1667 -0.6402  0.1768
 8274TIP3    H146237   1.747   4.269   0.552  0.6864  0.6359  1.3061
 8274TIP3    H246238   1.844   4.247   0.437 -0.5520  0.3211  0.3001
 8275TIP3   OH246239   2.448   5.482   1.972 -0.5395  0.3422  0.0521
 8275TIP3    H146240   2.484   5.412   2.026 -1.3102 -0.7207 -0.7605
 8275TIP3    H246241   2.515   5.551   1.974  0.6417 -0.7707  0.1463
 8276TIP3   OH246242   5.882   4.180  15.256  0.5586  0.0022 -0.6617
 8276TIP3    H146243   5.869   4.253  15.316 -1.2333 -1.0383  0.3194
 8276TIP3    H246244   5.942   4.214  15.190 -1.7864  3.1154 -1.4525
 8277TIP3   OH246245   2.906   2.392  12.988 -0.3494 -0.0626 -0.4290
 8277TIP3    H146246   2.959   2.470  12.972 -0.5488  0.6520  1.9708
 8277TIP3    H246247   2.829   2.403  12.932 -0.5573  1.6976  0.1418
 8278TIP3   OH246248   4.217   5.870  16.989  0.4409 -0.2097 -0.7144
 8278TIP3    H146249   4.155   5.884  16.917  0.0718  1.3437 -0.1256
 8278TIP3    H246250   4.299   5.845  16.945  0.2794  0.9036 -1.7083
 8279TIP3   OH246251   1.092   3.112   5.260 -0.0218  0.1031 -0.3990
 8279TIP3    H146252   1.115   3.019   5.255 -0.1797  0.0801 -0.7408
 8279TIP3    H246253   1.125   3.140   5.345 -1.7167 -0.7421  0.5819
 8280TIP3   OH246254   0.628   2.853  13.887  0.1093  0.0510 -0.2450
 8280TIP3    H146255   0.638   2.758  13.889  0.0197  0.0349 -0.5906
 8280TIP3    H246256   0.717   2.886  13.887  0.1408 -0.0293 -0.0695
 8281TIP3   OH246257   5.477   3.461  15.163 -0.6084  0.5631  0.3694
 8281TIP3    H146258   5.405   3.401  15.181 -0.9077  0.7224 -0.2565
 8281TIP3    H246259   5.538   3.409  15.110 -0.0829  0.3164  1.2052
 8282TIP3   OH246260   3.920   6.603   6.368 -0.2197 -0.2510 -0.1957
 8282TIP3    H146261   3.923   6.519   6.413  0.0408  1.0309  2.3654
 8282TIP3    H246262   3.984   6.657   6.414 -0.8892  1.5930 -1.3028
 8283TIP3   OH246263   5.970   4.734  13.689 -0.3104  0.7761 -0.0835
 8283TIP3    H146264   5.989   4.815  13.736 -1.3215  1.0931 -0.1969
 8283TIP3    H246265   6.055   4.691  13.680  0.1863  1.6498  0.2968
 8284TIP3   OH246266   3.004   4.627  13.888 -0.2488  0.0085 -0.1239
 8284TIP3    H146267   2.943   4.553  13.888  0.0776 -0.2763  0.5084
 8284TIP3    H246268   2.970   4.687  13.955  0.6735 -0.6206  0.9648
 8285TIP3   OH246269   3.983   5.198  17.241  0.0297  0.2309 -0.2334
 8285TIP3    H146270   3.963   5.284  17.204  0.9908  0.4194 -0.3570
 8285TIP3    H246271   3.951   5.135  17.176  0.1385  0.5170 -0.5665
 8286TIP3   OH246272   5.474   3.925   1.727 -0.1353  0.1737 -0.7223
 8286TIP3    H146273   5.493   3.939   1.634  1.7609  1.6904 -0.1779
 8286TIP3    H246274   5.550   3.961   1.773 -0.6195 -1.3080  1.4125
 8287TIP3   OH246275   5.117   6.353  13.281 -0.0652  0.6277 -0.5992
 8287TIP3    H146276   5.066   6.281  13.245  1.6688  0.2363 -2.4875
 8287TIP3    H246277   5.173   6.381  13.208  0.3564  2.9184  0.5229
 8288TIP3   OH246278   3.768   2.304  13.492 -0.1250  0.4328  0.6332
 8288TIP3    H146279   3.707   2.239  13.456 -1.6945  1.8674  0.5955
 8288TIP3    H246280   3.750   2.304  13.586  0.8346 -0.1155  0.8358
 8289TIP3   OH246281   4.516   3.578   0.131  0.1232 -0.3241 -0.4191
 8289TIP3    H146282   4.427   3.611   0.119  0.5179  1.0280  0.1040
 8289TIP3    H246283   4.531   3.583   0.226  0.4154 -1.4856 -0.3907
 8290TIP3   OH246284   1.065   3.119   4.479 -0.1236  0.3288  0.4348
 8290TIP3    H146285   1.033   3.205   4.505 -2.5607 -0.8394  1.6390
 8290TIP3    H246286   1.160   3.123   4.492 -0.2840  2.5339  1.2721
 8291TIP3   OH246287   4.970   0.300   3.179 -0.5200 -0.6521  0.1351
 8291TIP3    H146288   4.972   0.285   3.274  2.2153 -0.8338  0.1359
 8291TIP3    H246289   4.976   0.212   3.141  1.0780 -0.4489 -0.1293
 8292TIP3   OH246290   1.440   2.815  15.835  0.3851 -0.8238  0.2926
 8292TIP3    H146291   1.399   2.902  15.836  2.0982  0.1005  3.1412
 8292TIP3    H246292   1.530   2.831  15.807  0.5611 -1.7774  0.2813
 8293TIP3   OH246293   0.151   3.600   3.693  0.3454  0.4804  0.1472
 8293TIP3    H146294   0.162   3.692   3.669  0.5555 -0.0081 -1.8579
 8293TIP3    H246295   0.210   3.553   3.633 -0.9824 -1.0606 -0.0221
 8294TIP3   OH246296   3.237   6.656  14.783 -0.5154 -0.5198  0.2429
 8294TIP3    H146297   3.175   6.684  14.850 -1.2187 -2.7604  0.6274
 8294TIP3    H246298   3.318   6.638  14.830  0.0814  1.1638 -0.0707
 8295TIP3   OH246299   4.101   6.555  16.356  0.0189 -0.4065 -0.0615
 8295TIP3    H146300   4.191   6.563  16.325 -0.1743  1.0015 -0.3158
 8295TIP3    H246301   4.059   6.497  16.292  0.1172  0.9188 -1.3700
 8296TIP3   OH246302   5.940   1.273   3.655  0.3711  0.6472 -0.2052
 8296TIP3    H146303   5.956   1.366   3.642  0.0066  0.7030 -0.2822
 8296TIP3    H246304   6.004   1.229   3.600  0.0849  0.8644 -0.7186
 8297TIP3   OH246305   6.113   4.454   2.918  0.7030  0.6087  0.3250
 8297TIP3    H146306   6.075   4.518   2.857  1.2776 -0.9148 -1.7668
 8297TIP3    H246307   6.137   4.505   2.995 -0.3725  2.5918 -0.5785
 8298TIP3   OH246308   0.795   2.492  13.491  0.6395 -0.2984 -0.5317
 8298TIP3    H146309   0.749   2.409  13.485 -0.6829  0.0843  2.6009
 8298TIP3    H246310   0.807   2.520  13.400 -2.8922 -1.7574 -1.5908
 8299TIP3   OH246311   2.276   3.407   4.162 -0.1865  0.4211  0.0405
 8299TIP3    H146312   2.338   3.336   4.181 -0.2741  0.4359  0.3839
 8299TIP3    H246313   2.230   3.378   4.083 -0.1596  0.1331  0.1294
 8300TIP3   OH246314   2.109   0.073  16.174  0.0135  0.3926  0.2903
 8300TIP3    H146315   2.167   0.009  16.216  2.5606  0.2893 -2.9166
 8300TIP3    H246316   2.136   0.157  16.210  1.6562  0.2526 -0.5190
 8301TIP3   OH246317   5.662   2.075  10.743 -0.3630  0.3946  0.1281
 8301TIP3    H146318   5.651   1.991  10.698  0.9221  0.7584 -0.9439
 8301TIP3    H246319   5.747   2.107  10.712 -1.0190  2.2947  0.1701
 8302TIP3   OH246320   0.153   3.114   2.760 -0.2618  0.1194 -0.1996
 8302TIP3    H146321   0.072   3.068   2.784 -0.0253 -0.1618  0.0723
 8302TIP3    H246322   0.130   3.207   2.762 -0.7582  0.0206 -0.7968
 8303TIP3   OH246323   2.650   4.814  12.916  0.2083  0.0065  0.0055
 8303TIP3    H146324   2.643   4.780  12.827  0.8839 -1.1869  0.3865
 8303TIP3    H246325   2.591   4.889  12.918 -1.6355 -1.3533 -0.7857
 8304TIP3   OH246326   0.630   2.814  16.787 -0.1044 -0.2266 -0.1553
 8304TIP3    H146327   0.586   2.895  16.760  0.2411  0.6727  1.7998
 8304TIP3    H246328   0.712   2.843  16.827 -0.7245 -1.3610  2.0992
 8305TIP3   OH246329   4.365   6.764   0.778  0.5222  0.3893  0.5443
 8305TIP3    H146330   4.366   6.831   0.847 -0.3459 -1.0973  2.0921
 8305TIP3    H246331   4.304   6.797   0.712 -0.9532  0.5637  1.9279
 8306TIP3   OH246332   4.230   0.852  17.145 -0.7484  0.0515  0.1059
 8306TIP3    H146333   4.253   0.766  17.110  0.3805  1.1983 -2.1435
 8306TIP3    H246334   4.309   0.881  17.190 -1.6870 -0.7427  2.4314
 8307TIP3   OH246335   5.321   3.165  11.589  0.3695 -1.0201  0.1155
 8307TIP3    H146336   5.382   3.236  11.612 -2.0716  1.6249 -1.0034
 8307TIP3    H246337   5.343   3.144  11.498  0.8150 -1.4676  0.3164
 8308TIP3   OH246338   0.305   2.897  11.013  0.1232 -0.5252 -0.1507
 8308TIP3    H146339   0.216   2.913  10.981  0.5413 -0.6173 -1.3802
 8308TIP3    H246340   0.298   2.817  11.065 -0.5863 -0.3214  0.0752
 8309TIP3   OH246341   3.278   4.397  13.575  0.3316 -0.2342  0.4311
 8309TIP3    H146342   3.297   4.308  13.604  0.7641 -0.0722  0.6429
 8309TIP3    H246343   3.285   4.451  13.654  0.0790 -0.0063  0.3034
 8310TIP3   OH246344   2.600   5.904  14.275  0.1948  0.6984 -0.0347
 8310TIP3    H146345   2.508   5.926  14.261  0.2296  1.5270  0.9537
 8310TIP3    H246346   2.617   5.833  14.212 -1.3726 -0.1255  0.4011
 8311TIP3   OH246347   5.902   5.788   4.240  0.3042 -0.0941 -0.6349
 8311TIP3    H146348   5.874   5.876   4.266  1.5951  0.4703 -1.0491
 8311TIP3    H246349   5.977   5.769   4.297  0.5050 -0.6071 -1.0665
 8312TIP3   OH246350   2.554   2.170  12.678 -0.8125 -0.3145  0.1135
 8312TIP3    H146351   2.537   2.106  12.748 -0.7808 -2.0123 -1.3664
 8312TIP3    H246352   2.601   2.120  12.611 -1.5299  1.0528 -1.4777
 8313TIP3   OH246353   4.713   2.814   1.215 -0.1609  0.3550  0.2929
 8313TIP3    H146354   4.651   2.741   1.213 -2.5851  2.2254  1.5153
 8313TIP3    H246355   4.715   2.846   1.125 -1.4455  0.5816  0.3227
 8314TIP3   OH246356   1.546   5.508  14.133  1.0533 -0.0775 -0.2500
 8314TIP3    H146357   1.588   5.532  14.216  0.5939 -1.2227  0.3508
 8314TIP3    H246358   1.503   5.589  14.104  2.5856  0.7703 -0.2344
 8315TIP3   OH246359   0.485   3.024  16.687  0.2209 -0.6325  0.4162
 8315TIP3    H146360   0.527   3.085  16.747 -0.1663 -1.7735  1.9098
 8315TIP3    H246361   0.394   3.056  16.681  1.0414  1.5606 -2.4502
 8316TIP3   OH246362   5.374   0.633   0.870 -0.3882 -0.3681 -0.1500
 8316TIP3    H146363   5.407   0.544   0.877  0.3472 -0.1449 -0.6219
 8316TIP3    H246364   5.451   0.688   0.883 -1.0574  0.2393  1.5455
 8317TIP3   OH246365   0.621   5.151  16.142 -0.5163 -0.0768  0.1275
 8317TIP3    H146366   0.715   5.154  16.122 -0.2027  2.0198  1.4621
 8317TIP3    H246367   0.578   5.180  16.062  0.1677  0.9410  0.0944
 8318TIP3   OH246368   4.620   2.148  14.299  0.6129  0.4265 -0.0721
 8318TIP3    H146369   4.588   2.077  14.354 -0.4757 -1.3099 -2.7474
 8318TIP3    H246370   4.551   2.214  14.303 -0.8915 -0.9636 -1.5563
 8319TIP3   OH246371   3.812   5.194   4.378  0.0450  0.3718  0.0343
 8319TIP3    H146372   3.819   5.099   4.367  2.4141  0.6027 -1.1333
 8319TIP3    H246373   3.837   5.229   4.293 -1.5113  2.0730  0.2228
 8320TIP3   OH246374   1.477   3.193   4.237  0.3211  0.3847 -0.3334
 8320TIP3    H146375   1.536   3.263   4.207 -2.2470  2.1682 -1.6609
 8320TIP3    H246376   1.391   3.219   4.203 -1.4073 -1.6341  2.1541
 8321TIP3   OH246377   3.541   5.182  15.050 -0.2130 -0.5283 -0.2801
 8321TIP3    H146378   3.473   5.115  15.061 -0.1883 -1.0029 -2.5438
 8321TIP3    H246379   3.492   5.264  15.042 -0.3327 -0.4680  0.9087
 8322TIP3   OH246380   2.457   6.284   0.413  0.3802 -0.2975 -0.2227
 8322TIP3    H146381   2.369   6.320   0.408  1.1270  1.8142  0.4898
 8322TIP3    H246382   2.476   6.251   0.325 -0.8678 -0.1924 -0.5429
 8323TIP3   OH246383   0.264   5.296  11.560 -0.3944  0.1383  0.2226
 8323TIP3    H146384   0.304   5.210  11.576 -0.3007  0.0133 -0.6435
 8323TIP3    H246385   0.336   5.358  11.570 -0.2062  0.0076 -0.2865
 8324TIP3   OH246386   1.179   1.346   4.801 -0.5803 -0.3493 -0.4333
 8324TIP3    H146387   1.273   1.336   4.813 -0.2049 -0.1816 -2.7634
 8324TIP3    H246388   1.141   1.310   4.881  1.4047 -1.8062 -0.0692
 8325TIP3   OH246389   6.615   2.729  13.910  0.7181 -0.6168  0.3860
 8325TIP3    H146390   6.582   2.718  13.821 -1.3648 -1.4885  1.2089
 8325TIP3    H246391   6.633   2.640  13.941 -0.4914 -0.5149  1.4840
 8326TIP3   OH246392   5.226   1.692  12.593  0.2590  0.4027  0.1668
 8326TIP3    H146393   5.310   1.719  12.629  0.5885  0.0961 -0.3555
 8326TIP3    H246394   5.245   1.610  12.547  0.1226  1.4057 -1.7745
 8327TIP3   OH246395   6.151   1.440  17.146  0.5154  0.5144 -0.0288
 8327TIP3    H146396   6.209   1.375  17.107 -1.2643 -0.5208 -1.0537
 8327TIP3    H246397   6.199   1.473  17.222  2.0831 -0.8818 -0.3788
 8328TIP3   OH246398   4.598   1.414   1.297 -0.3533 -0.2806  0.4439
 8328TIP3    H146399   4.612   1.456   1.213 -2.2814 -1.6407 -0.6498
 8328TIP3    H246400   4.502   1.411   1.306 -0.2017 -0.7797  2.3752
 8329TIP3   OH246401   1.618   6.021  14.825 -0.2468 -0.3266  0.4121
 8329TIP3    H146402   1.702   6.020  14.872 -0.0313  0.1713  0.0515
 8329TIP3    H246403   1.586   6.111  14.835 -0.6991 -0.4947  0.4820
 8330TIP3   OH246404   5.488   2.767  13.436 -0.2979  0.3840 -0.2073
 8330TIP3    H146405   5.577   2.739  13.416  0.7035  1.7943  1.8831
 8330TIP3    H246406   5.456   2.701  13.498  0.1948  1.0881  0.8289
 8331TIP3   OH246407   2.932   4.487  13.137  0.1017 -0.2473  0.0811
 8331TIP3    H146408   2.946   4.496  13.043 -0.7166 -1.2464 -0.1496
 8331TIP3    H246409   2.900   4.573  13.165 -0.1275 -0.0904 -0.6410
 8332TIP3   OH246410   1.579   6.131   0.233 -0.3608 -0.0670 -0.0412
 8332TIP3    H146411   1.654   6.074   0.214  0.1764  0.1983  1.1714
 8332TIP3    H246412   1.540   6.093   0.311 -0.7832  0.4798  0.0173
 8333TIP3   OH246413   3.810   5.308  16.827  0.1131  0.2298 -0.1682
 8333TIP3    H146414   3.781   5.217  16.832 -1.2315  0.6849  0.8188
 8333TIP3    H246415   3.905   5.304  16.840  0.4291 -1.2126 -2.4246
 8334TIP3   OH246416   3.041   0.967  15.494 -0.4000  0.1442  0.1903
 8334TIP3    H146417   3.066   0.918  15.573  0.7523 -1.2013 -0.9529
 8334TIP3    H246418   3.121   1.013  15.470 -0.5366 -0.0132 -0.5736
 8335TIP3   OH246419   3.729   5.405   0.635  0.1989 -0.1357 -0.2660
 8335TIP3    H146420   3.706   5.490   0.672  2.0502  0.0423  0.5716
 8335TIP3    H246421   3.685   5.403   0.550 -0.4361  1.3623  0.0007
 8336TIP3   OH246422   4.547   0.066   0.287  0.6498  0.0183  0.2328
 8336TIP3    H146423   4.455   0.053   0.310  0.3827 -0.2694 -0.9538
 8336TIP3    H246424   4.546   0.132   0.218  1.2832 -0.3528 -0.1408
 8337TIP3   OH246425   1.412   5.185   1.734  0.0150  0.1065  0.3272
 8337TIP3    H146426   1.407   5.150   1.645 -1.8342  0.0226  0.4192
 8337TIP3    H246427   1.506   5.189   1.753  0.5668  1.7526 -2.2339
 8338TIP3   OH246428   2.593   6.200   1.634 -0.4218 -0.4240 -0.5231
 8338TIP3    H146429   2.512   6.240   1.667 -1.5886  0.2473 -3.8210
 8338TIP3    H246430   2.568   6.160   1.551  2.1217 -2.5909 -0.3836
 8339TIP3   OH246431   5.585   1.567   4.244  0.2450 -0.1387 -0.2722
 8339TIP3    H146432   5.647   1.596   4.178 -0.6414  1.3162 -0.5139
 8339TIP3    H246433   5.626   1.490   4.284  1.4558 -0.1538 -1.4922
 8340TIP3   OH246434   2.189   2.303   0.129 -0.8602 -0.3058  0.7172
 8340TIP3    H146435   2.267   2.352   0.105 -1.2673  0.4776  0.9331
 8340TIP3    H246436   2.201   2.282   0.221 -1.5679  1.1625  1.1762
 8341TIP3   OH246437   6.133   5.246   0.312  0.5232  0.3028  0.3983
 8341TIP3    H146438   6.102   5.274   0.398  0.7633  1.0988  0.2361
 8341TIP3    H246439   6.214   5.295   0.298 -0.6441  1.9543 -1.2131
 8342TIP3   OH246440   4.830   3.683   0.351  0.0269 -0.3121  0.4062
 8342TIP3    H146441   4.758   3.643   0.399 -0.7513  1.0558  0.4201
 8342TIP3    H246442   4.867   3.611   0.299 -2.9956 -0.5600 -1.6559
 8343TIP3   OH246443   3.186   5.108   5.288 -0.5280 -0.3957 -0.1032
 8343TIP3    H146444   3.254   5.067   5.341  0.6418 -0.6269 -1.7050
 8343TIP3    H246445   3.208   5.084   5.198 -1.7329  1.0029 -0.8119
 8344TIP3   OH246446   2.534   2.062   1.525  0.6304  0.3155  0.1444
 8344TIP3    H146447   2.558   2.155   1.519  1.2952  0.4602  3.1339
 8344TIP3    H246448   2.595   2.018   1.466  0.5806  1.7330 -1.0205
 8345TIP3   OH246449   1.863   6.045  15.555 -0.5205 -0.2824 -0.3625
 8345TIP3    H146450   1.825   6.042  15.642  0.4023  1.2665  0.1424
 8345TIP3    H246451   1.802   6.099  15.504 -1.6380 -2.0896 -1.0335
 8346TIP3   OH246452   6.166   4.778  15.991 -0.4201  0.0098 -0.1826
 8346TIP3    H146453   6.229   4.773  16.063 -3.1688 -0.4835  2.3518
 8346TIP3    H246454   6.168   4.691  15.952  0.3741 -0.0201 -0.1038
 8347TIP3   OH246455   0.949   3.810   4.526  0.3980 -0.0367  0.4476
 8347TIP3    H146456   0.942   3.759   4.446  1.8744 -0.5589  0.6225
 8347TIP3    H246457   0.909   3.755   4.594  1.9518 -1.0070  0.6316
 8348TIP3   OH246458   6.047   3.741   4.406  0.4877 -0.1660  0.1878
 8348TIP3    H146459   6.081   3.777   4.324 -0.8269  0.8887  0.0770
 8348TIP3    H246460   6.009   3.816   4.452 -1.0043 -1.1316  0.6221
 8349TIP3   OH246461   5.116   6.039   3.186 -0.3304  0.4583 -0.5354
 8349TIP3    H146462   5.186   6.052   3.251 -1.4450  0.8092  0.6269
 8349TIP3    H246463   5.095   6.127   3.155 -1.3328  0.5295  0.2989
 8350TIP3   OH246464   5.308   0.981   4.496  0.2409 -0.0916  0.3584
 8350TIP3    H146465   5.403   0.984   4.490  0.2791  1.5649  1.3026
 8350TIP3    H246466   5.290   0.954   4.586 -0.1955 -0.5661  0.1384
 8351TIP3   OH246467   3.243   6.373   1.411  0.3966 -0.0940 -0.4346
 8351TIP3    H146468   3.280   6.285   1.408 -1.9814 -1.1958  0.3800
 8351TIP3    H246469   3.261   6.404   1.499  1.9295  0.6116 -0.9611
 8352TIP3   OH246470   4.947   2.268   0.112  0.5251  0.2867  0.1095
 8352TIP3    H146471   4.853   2.272   0.092  0.3131 -2.5242  0.1506
 8352TIP3    H246472   4.951   2.286   0.206  0.0120  0.3278  0.1297
 8353TIP3   OH246473   5.593   0.969   3.331 -0.4341 -0.2254  0.3509
 8353TIP3    H146474   5.677   0.969   3.377  0.4172 -0.3654 -1.1303
 8353TIP3    H246475   5.533   0.924   3.390  0.9076 -1.4914  0.8031
 8354TIP3   OH246476   0.807   5.907   3.569  0.2425 -0.1380  0.0060
 8354TIP3    H146477   0.846   5.851   3.501  1.5821 -1.1872  1.5461
 8354TIP3    H246478   0.799   5.993   3.527  3.4474 -0.0703 -0.7569
 8355TIP3   OH246479   5.455   5.731   2.151 -0.3476 -0.4641 -0.2168
 8355TIP3    H146480   5.385   5.669   2.172 -0.3452 -1.1684 -2.0540
 8355TIP3    H246481   5.528   5.705   2.208 -0.5828 -1.7133 -0.4604
 8356TIP3   OH246482   2.748   4.211   0.999 -0.0454  0.3389  0.1701
 8356TIP3    H146483   2.787   4.274   0.938 -0.8634  1.1772  0.4945
 8356TIP3    H246484   2.688   4.263   1.052 -0.0878 -0.5653  1.0344
 8357TIP3   OH246485   6.561   3.129   4.697 -0.0298  0.1066 -0.0375
 8357TIP3    H146486   6.619   3.147   4.623  1.6874  1.1924  1.4856
 8357TIP3    H246487   6.526   3.042   4.678  0.0960  0.4696 -2.2518
 8358TIP3   OH246488   4.875   2.356   1.180  0.4711  0.3925 -0.1500
 8358TIP3    H146489   4.905   2.286   1.238 -0.7758 -0.7763 -0.8437
 8358TIP3    H246490   4.951   2.375   1.125  1.3168  0.7263  1.1058
 8359TIP3   OH246491   1.390   6.679  13.181 -0.4282 -0.1641 -0.4192
 8359TIP3    H146492   1.443   6.751  13.147 -0.7117 -0.6341 -1.9331
 8359TIP3    H246493   1.435   6.600  13.151 -1.5551 -0.5743 -1.1129
 8360TIP3   OH246494   5.153   6.415   1.782 -0.0260 -0.1398  0.3037
 8360TIP3    H146495   5.155   6.453   1.694 -1.8718 -0.1061  0.2368
 8360TIP3    H246496   5.190   6.483   1.838 -0.9670  0.7742 -0.1570
 8361TIP3   OH246497   3.239   3.383  13.321 -0.2031 -0.3941 -0.4480
 8361TIP3    H146498   3.204   3.456  13.269  1.2772  0.4178 -0.3380
 8361TIP3    H246499   3.181   3.379  13.397  0.1057  1.1306 -0.1003
 8362TIP3   OH246500   0.751   4.302  11.730 -0.2002 -0.2473  0.0482
 8362TIP3    H146501   0.811   4.279  11.659 -0.7056 -0.5713 -0.2762
 8362TIP3    H246502   0.716   4.387  11.703  1.2922  0.7207  1.0066
 8363TIP3   OH246503   0.187   1.039   2.547  0.2756 -0.1087 -0.0198
 8363TIP3    H146504   0.281   1.051   2.562 -0.0287  5.0751 -0.3986
 8363TIP3    H246505   0.148   1.043   2.635  0.2874 -2.3205  0.1437
 8364TIP3   OH246506   0.747   6.268  16.214 -0.3064 -0.3003 -0.5661
 8364TIP3    H146507   0.666   6.319  16.207  0.4638  0.8009 -2.1756
 8364TIP3    H246508   0.781   6.266  16.124  0.1746 -2.9095 -0.3916
 8365TIP3   OH246509   3.719   0.222  12.613 -0.6844  0.2686  0.6458
 8365TIP3    H146510   3.782   0.260  12.673  0.3077  0.6876 -0.6085
 8365TIP3    H246511   3.766   0.148  12.572 -1.6885 -0.6720  1.1317
 8366TIP3   OH246512   4.984   1.107  14.568 -0.0271  0.5703 -0.1966
 8366TIP3    H146513   4.956   1.143  14.484  1.6039  1.1317 -0.5335
 8366TIP3    H246514   4.941   1.164  14.633  1.6675  2.5743 -0.7153
 8367TIP3   OH246515   5.117   5.947  11.346  0.5748 -0.0470 -0.0868
 8367TIP3    H146516   5.203   5.931  11.386  0.1231 -0.3490  0.7908
 8367TIP3    H246517   5.070   5.998  11.411 -0.0397 -0.1909 -0.4140
 8368TIP3   OH246518   1.323   6.131  14.155 -0.0743  0.2001  0.1361
 8368TIP3    H146519   1.396   6.082  14.119  0.8060  0.1155  1.8998
 8368TIP3    H246520   1.331   6.120  14.250 -0.4571  2.8647  0.5590
 8369TIP3   OH246521   3.398   3.131   4.351  0.4300 -0.0249 -0.2058
 8369TIP3    H146522   3.486   3.150   4.386 -0.1037 -0.1134  1.2591
 8369TIP3    H246523   3.371   3.052   4.397 -1.2173  1.1259  0.9182
 8370TIP3   OH246524   1.818   6.440  14.880 -0.5886  0.2278  0.2613
 8370TIP3    H146525   1.885   6.405  14.939 -0.9145  2.0421  1.8231
 8370TIP3    H246526   1.864   6.460  14.799  0.4018 -0.1070  0.7328
 8371TIP3   OH246527   0.581   3.012   1.670  0.3310  0.2047 -0.4067
 8371TIP3    H146528   0.518   2.968   1.613  0.1741  0.6156 -0.5537
 8371TIP3    H246529   0.666   2.979   1.642  0.2039 -0.1070 -0.4235
 8372TIP3   OH246530   4.631   1.588   4.692 -0.4043 -0.2708 -0.1831
 8372TIP3    H146531   4.722   1.561   4.703 -0.2962  0.1456 -0.0393
 8372TIP3    H246532   4.636   1.678   4.661 -0.7720 -0.1839  0.0044
 8373TIP3   OH246533   0.488   2.119  16.037  0.1171 -0.4035  0.3119
 8373TIP3    H146534   0.445   2.193  15.994 -1.7624 -1.5014  0.1796
 8373TIP3    H246535   0.553   2.159  16.094 -1.1391  1.3824  0.5916
 8374TIP3   OH246536   1.978   0.085  16.785  0.1924 -0.0532 -0.3571
 8374TIP3    H146537   2.039   0.030  16.735  0.3569 -0.3702  0.1830
 8374TIP3    H246538   2.035   0.145  16.833  0.0825 -0.3781  0.1829
 8375TIP3   OH246539   0.716   3.190  13.992 -0.4813  0.2781  0.1778
 8375TIP3    H146540   0.792   3.203  14.048  0.4229  0.4601 -1.0575
 8375TIP3    H246541   0.745   3.215  13.904 -1.3084 -1.6869 -0.7261
 8376TIP3   OH246542   3.677   1.433  15.659 -0.5503 -0.4861  0.4344
 8376TIP3    H146543   3.731   1.394  15.727  1.1669  0.1969 -0.4583
 8376TIP3    H246544   3.654   1.519  15.694 -0.3614 -0.4592  0.4970
 8377TIP3   OH246545   2.837   0.895   1.427  0.2618 -0.2204 -0.2806
 8377TIP3    H146546   2.756   0.883   1.376  0.7870 -1.6139 -0.8309
 8377TIP3    H246547   2.904   0.912   1.361  0.2794  2.0041  0.2370
 8378TIP3   OH246548   3.477   0.864   6.104 -1.1045  0.5102  0.0678
 8378TIP3    H146549   3.419   0.864   6.180 -2.4073 -1.4209 -0.8541
 8378TIP3    H246550   3.547   0.803   6.126 -1.5847 -0.1957 -0.3411
 8379TIP3   OH246551   6.294   6.580  13.114  0.5696 -0.1182 -0.2171
 8379TIP3    H146552   6.323   6.591  13.205  1.2003  1.1365 -0.5377
 8379TIP3    H246553   6.225   6.646  13.103  0.9381  0.1776 -0.8196
 8380TIP3   OH246554   0.901   1.900  12.432  0.1645  0.5768 -0.1002
 8380TIP3    H146555   0.831   1.951  12.474 -0.7579 -1.5837  1.1667
 8380TIP3    H246556   0.910   1.938  12.345 -2.1014  1.3842 -0.0357
 8381TIP3   OH246557   0.729   5.378  12.959  0.0180  0.0218  0.3731
 8381TIP3    H146558   0.703   5.323  13.033  0.2911  1.4195  1.5675
 8381TIP3    H246559   0.692   5.464  12.979  0.9446  0.6813 -0.6133
 8382TIP3   OH246560   5.532   5.209  13.023  0.1297  0.2030  0.4297
 8382TIP3    H146561   5.538   5.263  12.944  0.9613 -0.1739  0.2221
 8382TIP3    H246562   5.503   5.123  12.992  1.4074 -0.2285  0.3843
 8383TIP3   OH246563   4.987   2.362   5.190 -0.1158  0.7419 -0.0916
 8383TIP3    H146564   4.954   2.374   5.279  0.0371 -0.1486  0.1002
 8383TIP3    H246565   5.081   2.346   5.202  0.1554  1.9180 -0.5242
 8384TIP3   OH246566   5.341   5.663   1.197 -0.1645  0.0050  0.3014
 8384TIP3    H146567   5.344   5.756   1.174 -2.3253  0.1420  0.3255
 8384TIP3    H246568   5.402   5.621   1.136 -1.1714  1.1276 -1.5852
 8385TIP3   OH246569   0.027   0.372  13.323 -0.2754 -0.5742  0.0036
 8385TIP3    H146570   0.079   0.451  13.336 -0.9445 -0.2948  1.1900
 8385TIP3    H246571   0.092   0.302  13.314  0.3166 -0.0066 -0.2396
 8386TIP3   OH246572   0.209   1.740  14.221  0.3638  0.3224  0.1284
 8386TIP3    H146573   0.165   1.818  14.187 -0.5437 -0.3080 -0.1648
 8386TIP3    H246574   0.162   1.666  14.182  0.5832 -0.3937  1.1644
 8387TIP3   OH246575   6.115   0.280   2.210 -0.7581  0.2169 -0.9980
 8387TIP3    H146576   6.135   0.282   2.304 -0.6148  2.7437 -1.0150
 8387TIP3    H246577   6.097   0.187   2.192 -0.4730 -0.4024  1.4337
 8388TIP3   OH246578   5.935   4.757  11.999 -0.3257  0.2321  0.5863
 8388TIP3    H146579   5.906   4.705  11.923  0.8112  0.6763 -0.1747
 8388TIP3    H246580   6.020   4.720  12.021 -0.8731 -0.2474  2.0192
 8389TIP3   OH246581   2.562   5.372  16.022 -0.2853 -0.2739  0.0315
 8389TIP3    H146582   2.501   5.425  15.971  0.4387  1.5988  1.0005
 8389TIP3    H246583   2.513   5.294  16.045 -2.1616  0.9378  0.3381
 8390TIP3   OH246584   3.756   0.239  15.404  0.2781 -0.2303 -0.2508
 8390TIP3    H146585   3.765   0.215  15.312  0.9530  1.2989 -0.6007
 8390TIP3    H246586   3.844   0.268  15.430  0.0580 -0.4904  0.8424
 8391TIP3   OH246587   4.376   3.916   2.210  0.9540  0.2448 -0.1067
 8391TIP3    H146588   4.461   3.951   2.235  2.0744 -2.9001  0.9809
 8391TIP3    H246589   4.367   3.836   2.261 -2.7409  0.4573 -0.1269
 8392TIP3   OH246590   2.547   5.439   2.361 -0.5861 -0.2239  0.2029
 8392TIP3    H146591   2.543   5.533   2.344  0.6380 -0.0766  0.6539
 8392TIP3    H246592   2.585   5.402   2.281 -0.3821 -0.2394  0.3054
 8393TIP3   OH246593   3.909   6.659   4.872 -0.5144 -0.2922 -0.1469
 8393TIP3    H146594   4.003   6.643   4.866 -0.4409  0.3172 -0.6575
 8393TIP3    H246595   3.875   6.640   4.785 -0.8448 -0.3661 -0.0054
 8394TIP3   OH246596   5.891   4.803   4.367  0.0894  0.7005  0.4381
 8394TIP3    H146597   5.838   4.865   4.318  1.4786  0.7525 -1.0577
 8394TIP3    H246598   5.950   4.858   4.418 -0.5959  0.6222  1.3474
 8395TIP3   OH246599   5.121   2.863  14.768  0.3388 -0.8298 -0.7248
 8395TIP3    H146600   5.084   2.944  14.804 -0.4137 -1.7097  0.5354
 8395TIP3    H246601   5.144   2.811  14.844  1.0590 -1.7150 -1.5254
 8396TIP3   OH246602   3.697   3.350   5.024 -0.4413  0.3749 -0.0218
 8396TIP3    H146603   3.720   3.365   4.932  0.0700 -1.0042 -0.1469
 8396TIP3    H246604   3.775   3.308   5.061 -0.2439  1.8538  1.3227
 8397TIP3   OH246605   6.015   0.699  17.019 -0.2672 -0.2300 -0.6991
 8397TIP3    H146606   6.095   0.743  16.990  1.7073 -3.2179 -0.3109
 8397TIP3    H246607   5.992   0.743  17.101  1.8610 -0.1098 -0.0889
 8398TIP3   OH246608   3.161   0.185  16.111  0.5656  0.0560 -0.0379
 8398TIP3    H146609   3.099   0.132  16.062 -0.8832  0.7013  1.0403
 8398TIP3    H246610   3.158   0.149  16.200  1.0820  0.6509  0.2253
 8399TIP3   OH246611   6.717   3.176  14.953  0.3653  0.1987  0.6397
 8399TIP3    H146612   6.692   3.096  14.908 -0.6554  1.3516 -0.9716
 8399TIP3    H246613   6.724   3.242  14.884 -0.6814  1.9359  2.0882
 8400TIP3   OH246614   2.724   3.991   4.776  0.2695  0.3122  0.4312
 8400TIP3    H146615   2.762   4.073   4.809 -0.7070  1.0150 -0.1443
 8400TIP3    H246616   2.649   4.018   4.723 -0.2009 -0.9744  0.3964
 8401TIP3   OH246617   2.823   6.028   5.258  0.5895 -0.7615  0.1450
 8401TIP3    H146618   2.894   5.964   5.267  0.1928 -1.3370 -0.6947
 8401TIP3    H246619   2.745   5.975   5.240  0.5492 -0.0121 -2.2499
 8402TIP3   OH246620   6.291   0.216  11.574  0.2225  0.9957  0.2727
 8402TIP3    H146621   6.209   0.232  11.527  0.2102  1.7972  0.5411
 8402TIP3    H246622   6.291   0.123  11.593 -0.5645  0.9649  0.1393
 8403TIP3   OH246623   6.084   0.115  17.161  0.2855  0.2072  0.3929
 8403TIP3    H146624   6.060   0.202  17.127 -0.7306  0.0223  0.6141
 8403TIP3    H246625   6.004   0.064  17.155  1.0579 -0.9640 -0.4266
 8404TIP3   OH246626   4.601   5.102   4.404 -0.1994 -0.6087  0.2299
 8404TIP3    H146627   4.566   5.085   4.316  0.2230  1.9501 -0.5193
 8404TIP3    H246628   4.524   5.120   4.457 -0.3521  0.0456 -0.1945
 8405TIP3   OH246629   4.073   0.650  11.295 -0.1358 -0.0563 -0.4408
 8405TIP3    H146630   4.011   0.660  11.223  0.9163 -0.0226 -1.3648
 8405TIP3    H246631   4.156   0.682  11.260  0.7508 -1.4833  0.2757
 8406TIP3   OH246632   5.085   0.252   0.096  0.0387  0.1304  0.1590
 8406TIP3    H146633   5.079   0.159   0.115  1.1184 -0.0091 -0.1169
 8406TIP3    H246634   5.078   0.258   0.000  0.7573  0.2463  0.1054
 8407TIP3   OH246635   5.634   2.637  17.319  0.2473  0.3392 -0.3179
 8407TIP3    H146636   5.666   2.695  17.388  0.1183  0.0427 -0.0023
 8407TIP3    H246637   5.695   2.649  17.247  1.1808 -0.3328  0.3218
 8408TIP3   OH246638   5.288   6.675   4.164 -0.0967  0.1760 -0.7620
 8408TIP3    H146639   5.232   6.657   4.240  0.1937 -1.2632 -0.8572
 8408TIP3    H246640   5.359   6.729   4.199 -0.2792  0.0086 -0.1160
 8409TIP3   OH246641   2.835   3.438  11.752 -0.4613  0.1455 -0.3928
 8409TIP3    H146642   2.903   3.501  11.730 -1.1100  0.7127 -0.7896
 8409TIP3    H246643   2.753   3.487  11.746 -0.9793 -0.7371 -0.7376
 8410TIP3   OH246644   4.361   3.625  16.307  0.3341 -0.1561 -0.4431
 8410TIP3    H146645   4.293   3.667  16.361  0.7772  0.5898 -0.4572
 8410TIP3    H246646   4.382   3.690  16.240 -0.0233 -0.9823 -1.3738
 8411TIP3   OH246647   6.460   0.429   1.225  0.4412  0.4470 -0.0808
 8411TIP3    H146648   6.450   0.474   1.309  0.7562  0.4450 -0.0391
 8411TIP3    H246649   6.407   0.350   1.234  0.6253  0.3501  0.1892
 8412TIP3   OH246650   4.988   2.514   3.886 -0.9295 -0.4699  0.0179
 8412TIP3    H146651   4.941   2.431   3.888 -1.7485 -0.2444 -3.7997
 8412TIP3    H246652   4.921   2.580   3.900 -0.2001 -0.2844  3.6319
 8413TIP3   OH246653   6.565   4.218  14.779  0.4792 -0.5020 -0.0048
 8413TIP3    H146654   6.631   4.288  14.778 -1.1194  1.0542 -0.3432
 8413TIP3    H246655   6.601   4.151  14.721  2.5843 -0.5342  1.2064
 8414TIP3   OH246656   2.803   6.325  16.230 -0.0318 -0.1284  0.1685
 8414TIP3    H146657   2.742   6.366  16.169 -1.7008  1.2848  2.6328
 8414TIP3    H246658   2.871   6.391  16.245  0.5029 -0.5613 -0.2959
 8415TIP3   OH246659   0.749   3.988   4.777  0.0028  0.5734 -0.3551
 8415TIP3    H146660   0.794   3.975   4.860 -0.2747  0.0988 -0.2748
 8415TIP3    H246661   0.806   3.948   4.711 -0.7521 -0.9090 -0.1341
 8416TIP3   OH246662   4.901   1.202   3.633  0.3998  0.1741 -0.3591
 8416TIP3    H146663   4.949   1.215   3.551  0.9057  0.9939  0.0536
 8416TIP3    H246664   4.811   1.184   3.605  0.4585  0.9560 -1.0927
 8417TIP3   OH246665   2.831   6.521   6.057 -0.2417  0.0042 -0.1158
 8417TIP3    H146666   2.805   6.490   6.144 -1.6538  3.2656  0.7622
 8417TIP3    H246667   2.906   6.578   6.072 -0.9333  1.1717 -0.8781
 8418TIP3   OH246668   4.193   5.515   2.883 -0.0450  0.3378 -0.2071
 8418TIP3    H146669   4.143   5.433   2.877 -0.2696  0.4526  0.0481
 8418TIP3    H246670   4.169   5.551   2.968  2.3523 -0.8099  1.0383
 8419TIP3   OH246671   2.710   5.245   5.727 -0.1656 -0.2024  0.1230
 8419TIP3    H146672   2.702   5.289   5.811 -2.1935 -0.0872 -0.0698
 8419TIP3    H246673   2.721   5.316   5.663 -0.1788 -0.1947  0.1293
 8420TIP3   OH246674   2.724   0.681   1.571  1.2697 -0.6508  0.0736
 8420TIP3    H146675   2.638   0.703   1.534  0.8299 -0.1554  1.3364
 8420TIP3    H246676   2.785   0.738   1.526  0.5107  1.2430  1.3060
 8421TIP3   OH246677   4.896   0.223  16.769 -0.0406 -0.5085 -0.3341
 8421TIP3    H146678   4.967   0.191  16.824  0.7267 -0.7380 -1.4122
 8421TIP3    H246679   4.935   0.294  16.718 -0.8576  0.0127 -0.2391
 8422TIP3   OH246680   5.317   1.443  12.529 -0.8543 -0.3919  0.3815
 8422TIP3    H146681   5.406   1.466  12.504 -1.5223  0.2151 -1.6455
 8422TIP3    H246682   5.325   1.359  12.575  0.8877  0.3877  1.5887
 8423TIP3   OH246683   4.516   3.250   4.296  0.0279  0.1115  0.0890
 8423TIP3    H146684   4.533   3.267   4.389  0.9686  0.8789 -0.1985
 8423TIP3    H246685   4.508   3.337   4.257  0.0432 -0.1964 -0.6102
 8424TIP3   OH246686   3.207   3.843  12.137 -0.0902  0.5860  0.3001
 8424TIP3    H146687   3.157   3.924  12.140  0.1994  0.7551  0.8944
 8424TIP3    H246688   3.195   3.809  12.048 -1.1440  0.6851  0.3950
 8425TIP3   OH246689   5.121   4.170   1.298  0.2540  0.0395 -0.1669
 8425TIP3    H146690   5.170   4.133   1.224  0.8203  2.1406 -0.9248
 8425TIP3    H246691   5.171   4.247   1.324 -0.2010 -0.3907  2.1464
 8426TIP3   OH246692   1.363   6.749  17.328  0.0575  0.0417 -0.0517
 8426TIP3    H146693   1.420   6.816  17.292  0.3511  0.9809  2.0401
 8426TIP3    H246694   1.340   6.780  17.416 -1.5550 -1.5630  0.1724
 8427TIP3   OH246695   1.375   2.425   0.388 -0.1491 -0.5643 -0.1181
 8427TIP3    H146696   1.451   2.457   0.339  1.0433 -0.7481  1.5241
 8427TIP3    H246697   1.300   2.464   0.343  1.0221  1.2868 -0.5861
 8428TIP3   OH246698   3.436   0.425   3.760 -0.2921  0.1007  0.0448
 8428TIP3    H146699   3.392   0.356   3.809 -0.9101  0.9111  0.6536
 8428TIP3    H246700   3.376   0.446   3.689  1.0949 -1.8828 -1.8606
 8429TIP3   OH246701   6.578   6.291  13.640  0.0231  0.3882 -0.1767
 8429TIP3    H146702   6.627   6.209  13.636  2.7002  1.8822 -4.0055
 8429TIP3    H246703   6.593   6.325  13.728  2.0387 -1.4530  0.2594
 8430TIP3   OH246704   3.163   6.307  15.950  0.9657 -0.0955 -0.6102
 8430TIP3    H146705   3.217   6.296  15.872  2.3482  1.8724 -0.0100
 8430TIP3    H246706   3.155   6.401  15.961  1.1450 -0.3007  1.8381
 8431TIP3   OH246707   2.446   4.501   5.931  0.5635 -0.0073  0.0851
 8431TIP3    H146708   2.471   4.424   5.981  0.7694 -0.2200 -0.3363
 8431TIP3    H246709   2.365   4.476   5.886 -0.1601  0.5199  1.0785
 8432TIP3   OH246710   0.887   3.659   4.736  0.4153 -0.1065  0.0691
 8432TIP3    H146711   0.796   3.647   4.763 -0.2071  2.3307 -0.6664
 8432TIP3    H246712   0.933   3.682   4.816  0.4499 -1.5369  0.4791
 8433TIP3   OH246713   3.794   2.163   3.290  0.2001 -0.5316  0.3092
 8433TIP3    H146714   3.796   2.098   3.360 -2.1169  0.4645  1.4410
 8433TIP3    H246715   3.701   2.169   3.267  0.4707  1.6459 -0.4201
 8434TIP3   OH246716   2.403   3.571  17.268 -0.2336 -0.0499 -0.2185
 8434TIP3    H146717   2.420   3.498  17.327 -0.0345 -1.0555 -1.4591
 8434TIP3    H246718   2.415   3.649  17.321 -0.7021 -0.9238  1.2091
 8435TIP3   OH246719   2.849   0.098   2.734 -0.0261  0.0740  0.3193
 8435TIP3    H146720   2.860   0.051   2.817 -0.4277  1.2444  1.0597
 8435TIP3    H246721   2.874   0.188   2.755  1.6680  0.0325 -1.3025
 8436TIP3   OH246722   5.289   4.563   0.816 -0.0139 -0.4672  0.2377
 8436TIP3    H146723   5.237   4.540   0.893  2.2257 -1.9203  1.4398
 8436TIP3    H246724   5.306   4.479   0.773 -0.8386  0.2791 -1.6281
 8437TIP3   OH246725   6.280   3.352   2.022 -0.1141  0.6239 -0.0662
 8437TIP3    H146726   6.252   3.426   1.968 -0.7656  0.6892  0.3555
 8437TIP3    H246727   6.218   3.282   2.001  1.7173 -0.5319 -2.0455
 8438TIP3   OH246728   3.510   2.318   0.752  0.5153 -0.5908 -0.1017
 8438TIP3    H146729   3.499   2.308   0.847 -0.4779 -1.0187 -0.2431
 8438TIP3    H246730   3.539   2.233   0.722  0.3327 -0.6058 -0.2404
 8439TIP3   OH246731   3.341   6.054  14.780  0.4270 -0.8261  0.5569
 8439TIP3    H146732   3.412   6.006  14.822 -0.2273 -0.5447  2.0296
 8439TIP3    H246733   3.271   5.989  14.769  0.6348 -0.9247 -0.2053
 8440TIP3   OH246734   1.534   2.201  14.658 -0.3475  0.3042 -0.5229
 8440TIP3    H146735   1.553   2.143  14.731 -1.7322  1.9003  1.2213
 8440TIP3    H246736   1.469   2.154  14.605 -0.7375 -0.1298  0.3315
 8441TIP3   OH246737   6.231   0.289  15.245  0.2236 -0.4418 -0.3059
 8441TIP3    H146738   6.184   0.208  15.264 -0.0474 -0.5083 -1.2316
 8441TIP3    H246739   6.324   0.263  15.245  0.1058 -0.9049 -1.2611
 8442TIP3   OH246740   0.826   3.224   2.615 -0.1324  0.4188  0.5421
 8442TIP3    H146741   0.894   3.206   2.679 -3.1063 -0.4203  3.7210
 8442TIP3    H246742   0.825   3.320   2.609  1.9355  0.4562 -0.4828
 8443TIP3   OH246743   4.547   4.842  15.818 -0.4332  0.2751 -0.1282
 8443TIP3    H146744   4.529   4.867  15.909  1.1175 -1.6472  0.7930
 8443TIP3    H246745   4.498   4.905  15.765  0.1194  2.6731  1.9999
 8444TIP3   OH246746   6.592   0.794  13.749  0.2592  0.7415 -0.1001
 8444TIP3    H146747   6.613   0.849  13.824  0.2069 -1.0597  1.2886
 8444TIP3    H246748   6.637   0.712  13.765 -0.6682 -0.0903 -1.4847
 8445TIP3   OH246749   6.012   4.100  10.615 -0.2267  0.1604 -0.3366
 8445TIP3    H146750   6.107   4.097  10.615 -0.1913 -0.0666  1.6906
 8445TIP3    H246751   5.985   4.036  10.549  1.0209 -1.0000  0.2534
 8446TIP3   OH246752   0.758   0.448   2.162 -0.7138 -0.1940  0.0262
 8446TIP3    H146753   0.703   0.402   2.226 -1.6622 -0.5889 -1.0340
 8446TIP3    H246754   0.798   0.378   2.110  0.0400  0.1234  0.1706
 8447TIP3   OH246755   2.116   0.611  17.185 -0.2471 -0.0840  0.3976
 8447TIP3    H146756   2.203   0.651  17.182 -0.0905 -0.3683  0.9540
 8447TIP3    H246757   2.081   0.623  17.097  0.2073  0.3609  0.2708
 8448TIP3   OH246758   3.770   2.360   4.259  0.5625  0.7732 -0.0254
 8448TIP3    H146759   3.750   2.310   4.180 -0.3176  0.4662  0.3804
 8448TIP3    H246760   3.859   2.391   4.246  0.6155  0.2730 -0.9019
 8449TIP3   OH246761   1.114   5.408  16.465 -0.0883 -0.0302  0.7790
 8449TIP3    H146762   1.102   5.495  16.428 -0.3267 -0.2003  0.4559
 8449TIP3    H246763   1.209   5.399  16.476 -0.0396  0.1427  0.5006
 8450TIP3   OH246764   4.201   3.348  14.569 -0.2237 -0.6959  0.7070
 8450TIP3    H146765   4.195   3.317  14.659 -1.0019 -1.5932  0.3788
 8450TIP3    H246766   4.289   3.324  14.541 -0.7439 -2.6110  0.5128
 8451TIP3   OH246767   6.579   5.746   5.585  0.2727  0.1579  0.3219
 8451TIP3    H146768   6.653   5.804   5.604  1.2045 -1.6413  2.6766
 8451TIP3    H246769   6.501   5.798   5.604  1.0001  1.2869  0.2814
 8452TIP3   OH246770   5.208   2.215  13.447 -0.0825  0.0548  0.2845
 8452TIP3    H146771   5.240   2.251  13.365 -2.2503 -1.9063 -1.5822
 8452TIP3    H246772   5.278   2.157  13.477  0.4547  0.2505 -0.5666
 8453TIP3   OH246773   2.988   1.617   5.941 -0.3540  0.1684 -0.2983
 8453TIP3    H146774   3.039   1.675   5.883  0.1199 -0.2088 -0.2654
 8453TIP3    H246775   3.018   1.529   5.918 -1.2850 -0.0890 -0.5515
 8454TIP3   OH246776   2.841   3.077  12.558  0.2844  0.3666 -0.6512
 8454TIP3    H146777   2.835   3.075  12.462 -1.0695 -2.4035 -0.5767
 8454TIP3    H246778   2.900   3.005  12.580 -0.7635 -0.1187  0.6650
 8455TIP3   OH246779   1.894   4.896  11.828 -0.2961 -0.1454  0.6422
 8455TIP3    H146780   1.914   4.987  11.806  0.3102 -0.8741 -2.1984
 8455TIP3    H246781   1.822   4.873  11.769 -0.6974 -1.3967  1.5926
 8456TIP3   OH246782   6.633   4.451   2.869  0.2573 -0.3137 -0.1347
 8456TIP3    H146783   6.640   4.361   2.839  1.0801 -1.6687  3.5675
 8456TIP3    H246784   6.723   4.482   2.871  0.2323 -0.2818  0.8669
 8457TIP3   OH246785   5.999   2.068   4.712  0.0271  0.3454 -0.3518
 8457TIP3    H146786   5.907   2.047   4.725  0.4727 -1.8843 -0.3419
 8457TIP3    H246787   6.022   2.027   4.628  0.5016  2.8380 -1.5301
 8458TIP3   OH246788   2.015   2.752   1.206 -0.0101 -0.2803 -0.1095
 8458TIP3    H146789   1.992   2.837   1.244  1.3222  0.5527 -1.0555
 8458TIP3    H246790   1.995   2.762   1.113 -0.9502 -1.4457 -0.0571
 8459TIP3   OH246791   5.136   3.245  10.730  0.6019 -0.4866  0.2085
 8459TIP3    H146792   5.189   3.249  10.810  1.9711 -2.2686 -0.5442
 8459TIP3    H246793   5.057   3.198  10.756  0.1069  0.6946  0.9429
 8460TIP3   OH246794   2.989   4.564  12.599 -0.2928  0.4599 -0.2599
 8460TIP3    H146795   2.896   4.550  12.586 -0.8679  2.4308  1.2416
 8460TIP3    H246796   3.011   4.634  12.537 -0.1407  0.9077  0.2850
 8461TIP3   OH246797   1.761   0.326   4.580  0.0821  0.6340 -0.5717
 8461TIP3    H146798   1.704   0.250   4.580  1.1617 -0.2110 -1.4345
 8461TIP3    H246799   1.811   0.319   4.499  0.3376  2.1744 -0.5874
 8462TIP3   OH246800   1.334   2.758  13.856 -0.0214  0.3055 -0.0177
 8462TIP3    H146801   1.271   2.686  13.860  1.3875 -0.9720  0.1053
 8462TIP3    H246802   1.412   2.719  13.818  1.4165  1.2994  1.8058
 8463TIP3   OH246803   2.955   4.306  12.790  0.3082  0.4574  0.0737
 8463TIP3    H146804   2.912   4.232  12.748  0.8404  1.0020 -1.4898
 8463TIP3    H246805   2.896   4.380  12.776  0.1807  0.5219  0.8827
 8464TIP3   OH246806   3.514   3.030   1.080  0.1817 -0.1718  0.1705
 8464TIP3    H146807   3.581   2.981   1.033 -0.5577 -1.4374  0.3985
 8464TIP3    H246808   3.553   3.048   1.166  0.7422  0.3090 -0.1796
 8465TIP3   OH246809   2.562   0.142   4.379 -0.1487  0.1425 -0.1507
 8465TIP3    H146810   2.558   0.084   4.455  0.0763  1.1241  0.6337
 8465TIP3    H246811   2.646   0.121   4.337 -1.0582 -1.6416 -1.1831
 8466TIP3   OH246812   3.134   5.261   2.362  0.4176 -0.4783 -0.4082
 8466TIP3    H146813   3.066   5.199   2.387  1.5816 -1.3273  0.8260
 8466TIP3    H246814   3.109   5.342   2.405 -0.0004 -0.6790 -0.2605
 8467TIP3   OH246815   4.831   2.804  15.218 -0.1144 -0.2702  0.5947
 8467TIP3    H146816   4.832   2.761  15.132 -0.5024  2.3972 -0.8839
 8467TIP3    H246817   4.738   2.815  15.238 -0.0248 -0.2542  1.0021
 8468TIP3   OH246818   0.497   5.079  12.159 -0.0910 -0.0493 -0.0127
 8468TIP3    H146819   0.450   5.159  12.181  1.1954  0.5557  0.6957
 8468TIP3    H246820   0.590   5.105  12.163  0.3149 -1.3219 -0.7777
 8469TIP3   OH246821   1.769   0.303  16.412 -0.7429  0.0319  0.6687
 8469TIP3    H146822   1.786   0.395  16.395  0.3482 -0.2394  0.1816
 8469TIP3    H246823   1.850   0.271  16.453 -0.5793 -1.0059 -0.4001
 8470TIP3   OH246824   4.808   0.252   4.734 -0.6258 -0.0620 -0.0950
 8470TIP3    H146825   4.805   0.343   4.703 -0.9165  0.0568  0.2659
 8470TIP3    H246826   4.750   0.204   4.675 -0.4992 -0.0047 -0.2654
 8471TIP3   OH246827   1.243   4.142   1.018 -0.3861 -0.0721  0.3194
 8471TIP3    H146828   1.178   4.075   0.995 -0.8310  0.3535  0.3368
 8471TIP3    H246829   1.211   4.180   1.100 -0.4039  0.5132  0.0436
 8472TIP3   OH246830   3.148   3.367  16.127  0.3625  0.1162  0.2219
 8472TIP3    H146831   3.072   3.423  16.137  1.3656  2.0307 -1.9521
 8472TIP3    H246832   3.137   3.325  16.042  0.9010 -1.0150  0.6793
 8473TIP3   OH246833   4.208   3.173   2.427 -1.0108 -0.3350  0.2687
 8473TIP3    H146834   4.202   3.092   2.478 -0.8229  0.0398  0.8935
 8473TIP3    H246835   4.285   3.217   2.461 -0.9959  0.0151 -0.2138
 8474TIP3   OH246836   2.904   1.505  13.619 -0.5633 -0.5398  0.1591
 8474TIP3    H146837   2.999   1.521  13.621 -0.7432  0.9561 -1.0200
 8474TIP3    H246838   2.895   1.420  13.577  0.2205  0.6570 -2.6485
 8475TIP3   OH246839   1.183   5.465   1.470 -0.0269 -0.4845  0.6019
 8475TIP3    H146840   1.194   5.490   1.562  0.4415  0.0471  0.4085
 8475TIP3    H246841   1.164   5.372   1.473  0.9194 -0.6781  1.1921
 8476TIP3   OH246842   3.235   2.413   4.414  0.2546  1.2349 -0.1817
 8476TIP3    H146843   3.254   2.354   4.341 -1.1912  2.7039 -1.8422
 8476TIP3    H246844   3.304   2.479   4.412  1.4310  0.1220  1.1932
 8477TIP3   OH246845   4.253   0.446  13.759  0.0974  0.1663  0.0475
 8477TIP3    H146846   4.322   0.381  13.768  0.4617  0.7963  2.8369
 8477TIP3    H246847   4.176   0.397  13.733  1.0408 -0.8936 -0.8258
 8478TIP3   OH246848   5.223   3.088  14.012  0.1415 -0.4528  0.3774
 8478TIP3    H146849   5.277   3.144  13.956 -0.3851 -0.0278  0.2826
 8478TIP3    H246850   5.283   3.021  14.045  0.6619 -0.1475  0.0590
 8479TIP3   OH246851   5.850   3.219  16.994  0.3216  0.5397  0.0035
 8479TIP3    H146852   5.826   3.304  17.032  1.4924  0.7842  0.2274
 8479TIP3    H246853   5.796   3.213  16.916 -0.6341  0.9557  0.6047
 8480TIP3   OH246854   5.312   4.667   1.213  0.6541 -0.3249 -0.3675
 8480TIP3    H146855   5.369   4.725   1.162  0.4061  1.5870  1.3990
 8480TIP3    H246856   5.363   4.645   1.291 -0.0392 -0.8164 -0.0356
 8481TIP3   OH246857   6.220   6.188  13.466  0.0959 -0.1771  0.2137
 8481TIP3    H146858   6.272   6.218  13.540  1.3289 -1.6114 -0.0042
 8481TIP3    H246859   6.273   6.210  13.389 -0.5428  0.1004 -0.1509
 8482TIP3   OH246860   2.573   3.896  11.460 -0.0893 -0.4127  0.7216
 8482TIP3    H146861   2.554   3.963  11.525 -0.5678  0.7266 -0.5550
 8482TIP3    H246862   2.647   3.931  11.410 -0.3958 -0.7861 -0.0120
 8483TIP3   OH246863   3.619   4.393  14.013 -0.4027  0.6183 -0.0118
 8483TIP3    H146864   3.638   4.385  13.919 -1.1702 -0.5602 -0.0859
 8483TIP3    H246865   3.689   4.449  14.047  0.9066 -0.3854 -0.9707
 8484TIP3   OH246866   0.227   0.819  14.829 -0.1598  0.2512  0.2284
 8484TIP3    H146867   0.167   0.750  14.855 -1.7648  2.4203  2.7721
 8484TIP3    H246868   0.285   0.830  14.904  0.9531  0.7764 -0.6742
 8485TIP3   OH246869   6.773   2.424  16.914  0.2291 -0.6681 -0.2452
 8485TIP3    H146870   6.858   2.399  16.952  0.1567 -0.5570 -0.0144
 8485TIP3    H246871   6.729   2.340  16.899  0.3381 -0.7217 -0.2748
 8486TIP3   OH246872   0.497   6.381   0.588  0.1136 -0.1912 -0.2908
 8486TIP3    H146873   0.548   6.429   0.524 -0.8243  1.4334  0.1318
 8486TIP3    H246874   0.406   6.397   0.564 -0.2461 -0.0908  1.0504
 8487TIP3   OH246875   5.270   4.904  11.416 -0.1444 -0.3632 -0.2698
 8487TIP3    H146876   5.247   4.979  11.471  1.6042 -0.1150  0.1708
 8487TIP3    H246877   5.342   4.936  11.361 -0.0144 -1.4322 -0.7446
 8488TIP3   OH246878   0.467   1.071  12.425  0.1672  0.5855 -0.0821
 8488TIP3    H146879   0.372   1.079  12.422 -0.0434 -1.4897 -0.6668
 8488TIP3    H246880   0.499   1.161  12.422 -1.7470  1.2905 -1.5422
 8489TIP3   OH246881   1.236   3.804  15.781  0.7678  0.6089  0.6741
 8489TIP3    H146882   1.313   3.761  15.816  0.1775  0.4294  1.7999
 8489TIP3    H246883   1.239   3.892  15.816  1.2910  1.1165 -0.5850
 8490TIP3   OH246884   2.804   6.458  16.625 -0.3933  0.7587 -0.1789
 8490TIP3    H146885   2.755   6.394  16.573 -1.6895  2.0367 -0.6130
 8490TIP3    H246886   2.772   6.446  16.715  1.2665 -0.9087  0.2526
 8491TIP3   OH246887   3.801   4.130   3.190 -0.3185 -0.2734  0.1333
 8491TIP3    H146888   3.854   4.101   3.115 -0.7767 -1.8853  0.3952
 8491TIP3    H246889   3.722   4.075   3.186 -2.1056  2.1550 -0.3388
 8492TIP3   OH246890   3.563   4.395  17.082  0.2055 -0.1431  0.3841
 8492TIP3    H146891   3.597   4.438  17.004 -1.5479 -0.3499 -0.5323
 8492TIP3    H246892   3.589   4.303  17.072 -2.8035 -0.9191 -1.7477
 8493TIP3   OH246893   3.759   1.202   5.484 -0.7902 -0.4830  0.5329
 8493TIP3    H146894   3.731   1.280   5.437 -0.6347 -1.8198 -1.8873
 8493TIP3    H246895   3.709   1.204   5.566 -3.6692  0.1978 -1.1174
 8494TIP3   OH246896   1.410   4.543  11.771 -0.0082  0.5235  0.4953
 8494TIP3    H146897   1.426   4.461  11.723 -1.3369 -0.1655  1.1794
 8494TIP3    H246898   1.320   4.535  11.803 -0.2134  2.3281  0.4602
 8495TIP3   OH246899   2.588   3.253   1.549 -0.2474  0.3194  0.0099
 8495TIP3    H146900   2.638   3.289   1.476 -0.5577  1.3160  0.2828
 8495TIP3    H246901   2.531   3.324   1.578 -2.0612 -0.8561 -0.4653
 8496TIP3   OH246902   3.838   1.614  11.449 -0.2281 -0.0188  0.2006
 8496TIP3    H146903   3.889   1.611  11.368  0.4514 -1.1530  0.6472
 8496TIP3    H246904   3.816   1.523  11.467 -1.0174  0.2957  0.8964
 8497TIP3   OH246905   3.098   5.090   2.070  0.5762 -0.3723 -0.1576
 8497TIP3    H146906   3.055   5.005   2.062 -0.6133  0.1624  0.1816
 8497TIP3    H246907   3.138   5.090   2.157  0.5567 -0.5749 -0.1486
 8498TIP3   OH246908   6.728   2.327  15.202  0.3248 -0.5422  0.3547
 8498TIP3    H146909   6.669   2.319  15.277 -2.6410  3.9028 -1.1080
 8498TIP3    H246910   6.735   2.238  15.168 -2.6654 -1.8742  2.7629
 8499TIP3   OH246911   2.241   3.622   2.682  0.3055  0.1247 -0.8520
 8499TIP3    H146912   2.174   3.690   2.682  0.4566  0.2787 -1.3691
 8499TIP3    H246913   2.250   3.596   2.590  0.0366 -0.8103 -0.6291
 8500TIP3   OH246914   4.900   2.446  12.256  0.1121  0.7702  0.0974
 8500TIP3    H146915   4.893   2.484  12.344 -0.7823 -0.1293  0.4334
 8500TIP3    H246916   4.869   2.356  12.266  3.0568 -0.4413 -0.4620
 8501TIP3   OH246917   5.080   3.716   1.325 -0.0990 -0.1574  0.4165
 8501TIP3    H146918   5.097   3.761   1.408 -0.5521 -1.0309  0.9972
 8501TIP3    H246919   5.075   3.623   1.348  0.1932 -0.4583 -0.6629
 8502TIP3   OH246920   1.611   0.714   6.502 -0.0794 -0.0532 -1.5771
 8502TIP3    H146921   1.536   0.773   6.517  1.1977  1.0146  1.4955
 8502TIP3    H246922   1.685   0.773   6.489  1.1761 -0.8017  1.2806
 8503TIP3   OH246923   1.628   1.287   5.394  0.1366 -0.2605  0.3241
 8503TIP3    H146924   1.716   1.259   5.417  0.0033 -0.3979  0.6900
 8503TIP3    H246925   1.609   1.358   5.455  1.0418  1.7118 -1.5726
 8504TIP3   OH246926   2.617   2.989   3.169 -0.4177  0.0476  0.0202
 8504TIP3    H146927   2.599   2.999   3.076  0.4710 -1.9126 -0.4056
 8504TIP3    H246928   2.531   2.988   3.210 -0.9022 -0.7761 -0.9833
 8505TIP3   OH246929   3.513   6.145   3.683 -0.5394  0.0989 -0.2498
 8505TIP3    H146930   3.473   6.205   3.746  0.0707 -1.2146  1.4600
 8505TIP3    H246931   3.527   6.198   3.605 -0.8845  1.9180  0.8761
 8506TIP3   OH246932   6.388   1.200  11.983  0.0010 -0.6798 -0.4329
 8506TIP3    H146933   6.327   1.241  11.921 -0.9720 -0.7057  0.4702
 8506TIP3    H246934   6.332   1.146  12.039  0.8247 -0.5080  0.5828
 8507TIP3   OH246935   4.705   3.201  11.229  0.1993 -0.2704  0.3304
 8507TIP3    H146936   4.640   3.251  11.277  0.6038  1.2754 -0.6756
 8507TIP3    H246937   4.655   3.153  11.163  0.0397  0.9249 -0.4498
 8508TIP3   OH246938   1.224   2.189   0.802  0.0103  0.0457  0.8112
 8508TIP3    H146939   1.198   2.281   0.797 -0.9806 -0.2098  1.0027
 8508TIP3    H246940   1.195   2.151   0.719  0.7234 -0.0260  0.5889
 8509TIP3   OH246941   3.661   6.201  11.144 -0.0712  0.0801 -0.1191
 8509TIP3    H146942   3.738   6.257  11.139 -0.6137  1.3257  3.1089
 8509TIP3    H246943   3.687   6.130  11.203 -0.7837 -0.6322 -0.6321
 8510TIP3   OH246944   5.515   0.759   5.882  0.3079 -0.6306 -0.8084
 8510TIP3    H146945   5.515   0.717   5.968  1.2372 -0.5243 -0.7447
 8510TIP3    H246946   5.541   0.850   5.900 -2.9002  0.4141 -0.7735
 8511TIP3   OH246947   4.981   5.291  11.063 -0.2545 -0.0427 -0.6879
 8511TIP3    H146948   4.961   5.356  10.994 -0.0997  0.4442 -0.2792
 8511TIP3    H246949   5.075   5.301  11.078 -0.3312  0.0013 -0.2514
 8512TIP3   OH246950   2.813   3.564   0.185  0.2096 -0.3710 -0.7140
 8512TIP3    H146951   2.889   3.506   0.190  0.6237  0.1302 -1.0776
 8512TIP3    H246952   2.822   3.623   0.260 -0.0430 -0.5719 -0.5233
 8513TIP3   OH246953   3.776   2.700  13.818  0.2818 -0.0689 -0.2310
 8513TIP3    H146954   3.771   2.604  13.826 -0.6928  0.0440  0.9360
 8513TIP3    H246955   3.827   2.727  13.895  0.7757  0.3354 -0.6975
 8514TIP3   OH246956   2.783   0.551  15.183  0.3394  0.3211  0.3049
 8514TIP3    H146957   2.697   0.577  15.148 -0.0730  0.5692  1.4540
 8514TIP3    H246958   2.837   0.538  15.105 -0.5156  0.9379 -0.4228
 8515TIP3   OH246959   5.910   3.759  17.224 -0.0282 -0.1694 -0.3500
 8515TIP3    H146960   5.825   3.720  17.247 -0.1930  0.2304 -0.2663
 8515TIP3    H246961   5.970   3.729  17.292  0.3467 -1.9485 -1.3857
 8516TIP3   OH246962   5.002   4.721   3.124  0.4571  0.0807  0.5460
 8516TIP3    H146963   4.922   4.716   3.072  0.9432 -1.6571 -0.0862
 8516TIP3    H246964   4.982   4.670   3.202  0.6136  0.5158  0.8740
 8517TIP3   OH246965   0.869   5.243  12.010  0.0480  0.0971  0.1774
 8517TIP3    H146966   0.942   5.237  12.072 -0.0956  2.1498  0.6006
 8517TIP3    H246967   0.857   5.153  11.980  1.1363 -0.7129  1.9574
 8518TIP3   OH246968   6.564   3.872  16.734 -0.1854 -0.0998  0.3429
 8518TIP3    H146969   6.552   3.824  16.816 -0.7847 -0.9464 -0.2252
 8518TIP3    H246970   6.475   3.895  16.706 -0.0675 -0.6832 -0.5619
 8519TIP3   OH246971   3.153   0.551  14.952  0.3489 -0.8345 -0.5437
 8519TIP3    H146972   3.149   0.464  14.993  1.6006 -0.6472  0.0145
 8519TIP3    H246973   3.218   0.542  14.882  0.1873 -0.4507 -0.7459
 8520TIP3   OH246974   6.190   5.516  16.674  0.3807  0.2796  0.2375
 8520TIP3    H146975   6.168   5.592  16.620  1.2486 -0.7178 -1.6196
 8520TIP3    H246976   6.135   5.524  16.752 -0.1652  2.3326 -0.3178
 8521TIP3   OH246977   5.517   0.313  12.513  0.0488  0.1613  0.1619
 8521TIP3    H146978   5.449   0.289  12.450  0.1945 -1.3561  0.5270
 8521TIP3    H246979   5.590   0.344  12.459  0.6534 -2.2962 -0.5947
 8522TIP3   OH246980   5.025   1.868   4.624  0.1330  0.8753  0.2088
 8522TIP3    H146981   5.113   1.879   4.589  0.6075 -2.2896  0.0818
 8522TIP3    H246982   4.967   1.892   4.552  0.9303  0.9487 -0.4234
 8523TIP3   OH246983   6.147   2.398   2.111 -0.1456  0.0681 -0.3617
 8523TIP3    H146984   6.089   2.376   2.038  1.4565 -0.5907 -1.4754
 8523TIP3    H246985   6.150   2.319   2.164 -2.0389  0.8325  1.0000
 8524TIP3   OH246986   2.175   2.578   1.971 -0.3348  0.5467  0.3567
 8524TIP3    H146987   2.107   2.595   1.905 -0.0248  0.3593 -0.0109
 8524TIP3    H246988   2.162   2.647   2.036 -1.2305  0.1977  0.5733
 8525TIP3   OH246989   6.500   3.338  11.731  0.1587  0.1171 -0.0093
 8525TIP3    H146990   6.530   3.247  11.737 -1.9143 -0.8465 -2.6588
 8525TIP3    H246991   6.575   3.385  11.694  0.8140 -0.7225  0.1995
 8526TIP3   OH246992   3.658   0.618   0.667  0.2096  0.2691  0.3571
 8526TIP3    H146993   3.604   0.654   0.597  0.4281  0.9151  0.5198
 8526TIP3    H246994   3.741   0.665   0.661  0.0984  0.5960  1.2839
 8527TIP3   OH246995   0.928   5.919  12.912  0.5600 -0.2714 -0.0121
 8527TIP3    H146996   0.966   5.880  12.990  0.1811  0.7297  0.6916
 8527TIP3    H246997   0.962   6.008  12.910 -2.1714  0.9087  1.0201
 8528TIP3   OH246998   3.504   0.700  11.222 -0.4426 -0.0117 -0.4389
 8528TIP3    H146999   3.532   0.769  11.162 -3.6111  1.2137 -0.6841
 8528TIP3    H247000   3.409   0.699  11.214 -0.6036 -4.2416 -0.2156
 8529TIP3   OH247001   2.319   2.557   4.361  0.0969  0.3060  0.2157
 8529TIP3    H147002   2.326   2.463   4.340  1.1947  0.6904 -1.3210
 8529TIP3    H247003   2.272   2.595   4.287  0.4805  1.1038  0.3709
 8530TIP3   OH247004   5.757   4.567  11.252 -0.4114  0.3785  0.0086
 8530TIP3    H147005   5.737   4.553  11.160 -0.5229  1.3038 -0.1121
 8530TIP3    H247006   5.823   4.636  11.252  0.8458 -0.7652  0.5428
 8531TIP3   OH247007   3.834   3.903  13.038 -0.2033 -0.2388 -0.0536
 8531TIP3    H147008   3.739   3.891  13.032 -0.4314  2.0029 -3.2952
 8531TIP3    H247009   3.870   3.815  13.025 -1.8495 -0.7194 -1.7673
 8532TIP3   OH247010   6.650   4.715   2.143 -0.2705 -0.6779  0.2158
 8532TIP3    H147011   6.566   4.759   2.155  0.5606  1.6831 -1.7949
 8532TIP3    H247012   6.638   4.662   2.064  0.2900  0.2634 -0.5275
 8533TIP3   OH247013   4.789   0.374  12.352 -0.1703  0.4091 -0.3630
 8533TIP3    H147014   4.706   0.416  12.376  0.1469  0.2819  1.0219
 8533TIP3    H247015   4.854   0.414  12.409  0.1134 -2.1218  1.2357
 8534TIP3   OH247016   6.538   1.079   4.693  0.0795  0.1586 -0.1036
 8534TIP3    H147017   6.460   1.092   4.748 -0.1456 -0.5360 -0.2492
 8534TIP3    H247018   6.579   1.166   4.689 -0.4127  0.4227  0.3876
 8535TIP3   OH247019   6.511   2.790  13.653 -0.4988  0.5271 -0.2371
 8535TIP3    H147020   6.560   2.810  13.573  0.3950  1.5260  0.5316
 8535TIP3    H247021   6.494   2.875  13.692 -0.4162  0.0126  0.9432
 8536TIP3   OH247022   4.174   2.870   0.001 -0.0899 -0.0124 -0.0224
 8536TIP3    H147023   4.249   2.814  -0.019 -0.3566 -0.2091 -0.4822
 8536TIP3    H247024   4.130   2.881  -0.083 -0.2620  0.5625  0.1386
 8537TIP3   OH247025   3.859   4.735  12.090 -0.1016 -0.0629 -0.3088
 8537TIP3    H147026   3.791   4.803  12.082 -1.7243 -1.4790  0.7793
 8537TIP3    H247027   3.829   4.665  12.032  0.3589 -0.7757  0.3002
 8538TIP3   OH247028   3.316   6.274   2.683 -0.3206  0.4248  0.0781
 8538TIP3    H147029   3.401   6.308   2.710 -0.4361  0.9070 -0.1664
 8538TIP3    H247030   3.280   6.341   2.625 -1.0189  0.3753  0.4537
 8539TIP3   OH247031   4.657   2.636  14.896  0.0836  0.1683  0.1729
 8539TIP3    H147032   4.738   2.685  14.908 -0.0827  1.0561 -1.8930
 8539TIP3    H247033   4.674   2.578  14.821 -1.5219  1.2600 -1.1190
 8540TIP3   OH247034   5.032   5.687   3.425 -0.0218 -0.4866  0.0484
 8540TIP3    H147035   5.027   5.623   3.355  1.8388  0.9907 -1.5467
 8540TIP3    H247036   4.945   5.686   3.465 -2.3365  0.8451 -4.3578
 8541TIP3   OH247037   4.763   3.204   4.548  0.6357  0.2282  0.1591
 8541TIP3    H147038   4.851   3.237   4.564  0.0686  0.9192  2.1715
 8541TIP3    H247039   4.734   3.169   4.632 -0.9546 -0.1231 -0.4885
 8542TIP3   OH247040   6.054   3.760   6.360  0.1501 -0.4373 -0.3589
 8542TIP3    H147041   5.995   3.810   6.416  0.1827 -0.2310 -0.5064
 8542TIP3    H247042   6.050   3.804   6.275 -0.4189 -1.1484 -0.7094
 8543TIP3   OH247043   3.819   4.374   0.256 -0.3666 -0.1984  0.3307
 8543TIP3    H147044   3.901   4.423   0.265  0.6634 -1.9726  1.0341
 8543TIP3    H247045   3.780   4.408   0.176  2.0616 -0.6935 -1.1640
 8544TIP3   OH247046   3.311   5.248   5.578  0.4204  0.4414 -0.0858
 8544TIP3    H147047   3.353   5.181   5.632  1.4924  1.0703 -0.1079
 8544TIP3    H247048   3.230   5.207   5.547  0.0933 -0.1538  1.4607
 8545TIP3   OH247049   2.924   0.825  14.815 -0.3888 -0.2850 -0.0966
 8545TIP3    H147050   2.837   0.848  14.849 -1.4636 -1.6028 -1.7589
 8545TIP3    H247051   2.935   0.882  14.739  0.4293  0.2129  0.3884
 8546TIP3   OH247052   0.792   1.532  16.248 -0.3226 -0.0450 -0.6597
 8546TIP3    H147053   0.764   1.569  16.165 -0.1140  0.5394 -0.4783
 8546TIP3    H247054   0.715   1.537  16.304 -0.4169 -0.2865 -0.7693
 8547TIP3   OH247055   0.285   4.775  10.725  0.0789  0.3802 -0.5101
 8547TIP3    H147056   0.353   4.707  10.721 -0.9473 -0.6792 -0.6434
 8547TIP3    H247057   0.212   4.732  10.768 -0.0535  1.9277  0.8979
 8548TIP3   OH247058   4.056   1.795  15.395 -0.6435  0.1933  0.1349
 8548TIP3    H147059   3.972   1.788  15.439 -0.2104  0.7217  1.0967
 8548TIP3    H247060   4.120   1.777  15.464  0.0233 -0.2236 -0.5875
 8549TIP3   OH247061   6.255   4.044   4.333  0.4160  0.4378  0.3290
 8549TIP3    H147062   6.286   4.132   4.311  0.2427  1.2973  3.1237
 8549TIP3    H247063   6.236   4.048   4.427 -1.2059 -2.1344  0.2044
 8550TIP3   OH247064   0.455   0.576   5.115  0.3431 -0.2282  0.7511
 8550TIP3    H147065   0.528   0.539   5.065  1.0920  0.0695  1.5928
 8550TIP3    H247066   0.427   0.652   5.064  1.2905  0.2457  0.9098
 8551TIP3   OH247067   5.325   2.943   2.912  0.2275 -0.7821 -0.1983
 8551TIP3    H147068   5.320   2.951   2.816  0.3298  1.1606 -0.0933
 8551TIP3    H247069   5.415   2.917   2.930  0.5843  0.1250 -0.5990
 8552TIP3   OH247070   6.125   4.489  13.648  0.0369 -0.2645 -0.3528
 8552TIP3    H147071   6.203   4.520  13.693 -0.9842  2.4864 -0.2961
 8552TIP3    H247072   6.155   4.464  13.560  1.2336 -1.0397  0.2573
 8553TIP3   OH247073   2.688   4.790  12.645 -0.0811  0.7212  0.2080
 8553TIP3    H147074   2.737   4.791  12.563 -0.9864 -0.2683 -0.3642
 8553TIP3    H247075   2.626   4.862  12.637  0.0775  0.8547  0.1777
 8554TIP3   OH247076   3.533   5.501  12.676 -0.7333  0.1901 -0.8349
 8554TIP3    H147077   3.508   5.543  12.759 -4.2609  0.7631 -1.9960
 8554TIP3    H247078   3.464   5.436  12.660  1.1113 -1.5468 -2.2516
 8555TIP3   OH247079   3.551   3.589   2.718 -0.5299  0.2677  0.6603
 8555TIP3    H147080   3.465   3.617   2.748 -1.2234 -0.8901 -0.1598
 8555TIP3    H247081   3.547   3.493   2.720  0.3600  0.1937 -0.3897
 8556TIP3   OH247082   0.076   0.172   4.480  0.4844  0.3857 -0.0448
 8556TIP3    H147083   0.063   0.237   4.411 -0.4732 -0.5084 -0.7317
 8556TIP3    H247084  -0.011   0.138   4.498  1.0334 -1.1942 -0.1952
 8557TIP3   OH247085   1.323   0.950   1.068 -0.5654 -0.4459 -0.0043
 8557TIP3    H147086   1.281   1.004   1.001 -0.5353  1.2321  1.2767
 8557TIP3    H247087   1.250   0.907   1.113 -0.6257 -1.0150 -0.6297
 8558TIP3   OH247088   0.344   2.018  11.633  0.4858  0.1222 -0.2852
 8558TIP3    H147089   0.251   2.033  11.620  0.1304 -1.3044  0.3352
 8558TIP3    H247090   0.387   2.069  11.565 -0.8896 -1.1941 -2.2665
 8559TIP3   OH247091   5.430   4.507   0.204 -0.6466 -0.2222 -0.1544
 8559TIP3    H147092   5.455   4.414   0.203  0.6536  0.0291  1.7254
 8559TIP3    H247093   5.502   4.551   0.159  0.8460  0.1837  2.4094
 8560TIP3   OH247094   2.018   4.940   5.978  0.1054  0.3770  0.3288
 8560TIP3    H147095   1.926   4.954   5.957 -0.3354 -1.4410  0.9205
 8560TIP3    H247096   2.023   4.948   6.073  0.7913  1.5967  0.2079
 8561TIP3   OH247097   4.115   2.455  11.999  0.2297 -0.2450  0.3449
 8561TIP3    H147098   4.168   2.378  12.018  2.2449  0.8275 -0.7259
 8561TIP3    H247099   4.143   2.520  12.064  0.3060  0.3772 -0.3048
 8562TIP3   OH247100   1.078   3.953   1.252 -0.3585  0.0115 -0.1321
 8562TIP3    H147101   1.088   3.993   1.338  1.0286 -1.3236  0.3672
 8562TIP3    H247102   0.991   3.911   1.255 -1.0780  1.4668 -0.0574
 8563TIP3   OH247103   1.467   6.535   6.118  0.5753 -0.2261  0.6584
 8563TIP3    H147104   1.455   6.470   6.188 -0.1742  0.5910  1.3170
 8563TIP3    H247105   1.475   6.618   6.165  1.8129  0.1317 -0.1577
 8564TIP3   OH247106   1.960   5.529  13.715 -0.0064 -0.3648 -0.3340
 8564TIP3    H147107   2.035   5.587  13.728 -0.5730 -0.1440  2.4896
 8564TIP3    H247108   1.983   5.448  13.761 -1.2106 -0.5750 -0.0739
 8565TIP3   OH247109   4.195   1.736  14.157 -0.3153  0.2372  0.3078
 8565TIP3    H147110   4.218   1.663  14.100  1.3328  0.8019  0.1942
 8565TIP3    H247111   4.100   1.731  14.166 -0.2288 -2.0149  0.4543
 8566TIP3   OH247112   0.218   4.230  15.012  0.3732  0.3098 -0.1726
 8566TIP3    H147113   0.146   4.284  15.044  1.3061  1.3622  0.2159
 8566TIP3    H247114   0.292   4.290  15.005  0.7210 -0.2757 -2.4968
 8567TIP3   OH247115   6.112   5.823  12.062 -0.0839 -0.7762 -0.1823
 8567TIP3    H147116   6.051   5.804  12.134  0.6254  1.5707  1.1468
 8567TIP3    H247117   6.184   5.870  12.104  0.9614 -0.4277 -2.2781
 8568TIP3   OH247118   5.021   1.858   2.001 -0.0804  0.6132 -0.1504
 8568TIP3    H147119   5.091   1.923   1.987 -1.3072  1.8959 -0.5035
 8568TIP3    H247120   5.018   1.810   1.918 -0.4009  1.3557 -0.5846
 8569TIP3   OH247121   5.500   6.210  14.466 -0.2254  0.1957 -0.1831
 8569TIP3    H147122   5.477   6.127  14.424 -0.5926  0.0581  0.2771
 8569TIP3    H247123   5.573   6.188  14.524 -0.8548  0.0092  0.5593
 8570TIP3   OH247124   6.432   2.928  15.244  0.1824  0.1710  0.2819
 8570TIP3    H147125   6.367   2.935  15.314 -0.8373 -0.1226 -0.5995
 8570TIP3    H247126   6.462   3.018  15.230  1.3072  0.0860  1.8892
 8571TIP3   OH247127   3.677   1.799   0.454  0.2522  0.4905 -0.2364
 8571TIP3    H147128   3.666   1.711   0.420  0.0436  0.2672  0.3955
 8571TIP3    H247129   3.722   1.787   0.538  0.3214  0.9934 -0.1954
 8572TIP3   OH247130   5.738   1.541  11.618  0.3217 -0.0470  0.4277
 8572TIP3    H147131   5.652   1.499  11.625  0.5740 -0.7125 -0.2381
 8572TIP3    H247132   5.791   1.497  11.684  0.9770 -1.8537 -1.1936
 8573TIP3   OH247133   3.705   1.641  10.818  0.4116  1.1662  0.2505
 8573TIP3    H147134   3.658   1.710  10.772  0.1213  0.6117 -0.3051
 8573TIP3    H247135   3.637   1.579  10.845  0.9451 -0.9359 -2.7385
 8574TIP3   OH247136   5.740   1.776   4.070 -0.3501 -0.7559 -0.0954
 8574TIP3    H147137   5.693   1.836   4.013  1.1608 -0.9223 -1.6174
 8574TIP3    H247138   5.804   1.831   4.116  0.5763 -1.0566 -0.9837
 8575TIP3   OH247139   1.604   0.180  13.727 -0.4580  0.3887 -0.6816
 8575TIP3    H147140   1.554   0.133  13.793  0.2077  1.4263  0.6191
 8575TIP3    H247141   1.594   0.272  13.751 -0.4634  0.8266 -2.2349
 8576TIP3   OH247142   4.646   6.673  12.542  0.0942  0.1731  0.2819
 8576TIP3    H147143   4.666   6.758  12.502 -2.5275  1.4837  1.5328
 8576TIP3    H247144   4.623   6.617  12.467  0.0059  1.1409 -0.4400
 8577TIP3   OH247145   1.616   2.148  15.355 -0.3346  0.0758 -0.2280
 8577TIP3    H147146   1.674   2.186  15.289  0.0825  0.1657  0.1838
 8577TIP3    H247147   1.671   2.141  15.433 -0.5502 -0.8855 -0.1503
 8578TIP3   OH247148   4.530   5.304   1.202 -0.9347  0.3188  0.7472
 8578TIP3    H147149   4.607   5.345   1.162 -1.8459  0.2993 -1.1386
 8578TIP3    H247150   4.490   5.254   1.130 -1.5155 -1.4547  2.2334
 8579TIP3   OH247151   4.877   3.833   4.185  0.6498  0.2950 -0.6659
 8579TIP3    H147152   4.827   3.909   4.154 -0.5395 -0.1014  0.1825
 8579TIP3    H247153   4.908   3.860   4.272 -0.6559 -0.5212  0.0908
 8580TIP3   OH247154   3.021   3.627  11.704  0.2785 -0.4160  0.0616
 8580TIP3    H147155   3.059   3.704  11.661 -0.0648 -0.2139  0.1190
 8580TIP3    H247156   3.043   3.639  11.796  0.1640 -0.3516  0.0808
 8581TIP3   OH247157   1.811   6.487  17.156 -0.6234  1.0133  0.2303
 8581TIP3    H147158   1.733   6.467  17.105  0.2039 -0.9945 -0.3729
 8581TIP3    H247159   1.865   6.540  17.097  0.1752 -1.0027 -0.9699
 8582TIP3   OH247160   2.070   1.146   1.781 -0.0045  0.1412  0.2442
 8582TIP3    H147161   2.084   1.199   1.703 -0.7397 -1.0586 -0.7300
 8582TIP3    H247162   2.120   1.191   1.849  0.0710  1.6160 -0.7259
 8583TIP3   OH247163   1.915   3.180   4.622 -0.2747  0.3143 -0.1064
 8583TIP3    H147164   1.995   3.226   4.649 -0.5871  0.3602  0.7691
 8583TIP3    H247165   1.850   3.203   4.688 -0.8263 -0.2846 -0.4212
 8584TIP3   OH247166   1.503   1.302  14.469  0.2238 -0.4233  0.3346
 8584TIP3    H147167   1.559   1.331  14.397 -0.4338 -1.0318 -0.4402
 8584TIP3    H247168   1.448   1.378  14.489 -1.0798 -0.8679 -1.2842
 8585TIP3   OH247169   2.249   2.243  13.967  0.0483 -0.5112 -0.3622
 8585TIP3    H147170   2.201   2.314  13.925  0.6223 -0.3556 -0.7691
 8585TIP3    H247171   2.311   2.287  14.025 -0.7016 -0.7227  0.6313
 8586TIP3   OH247172   6.055   2.201  12.453  0.4488 -0.0413 -0.2217
 8586TIP3    H147173   6.054   2.120  12.402 -1.3685  0.3253 -0.8387
 8586TIP3    H247174   6.104   2.263  12.399  0.9231 -0.4228 -0.2346
 8587TIP3   OH247175   6.758   3.296   6.635  0.0486 -0.0269  0.0638
 8587TIP3    H147176   6.848   3.270   6.614 -0.2199 -0.9246 -0.0250
 8587TIP3    H247177   6.703   3.227   6.597 -0.7039  0.6811 -0.1770
 8588TIP3   OH247178   0.721   4.603  11.648 -0.8644  0.0768 -0.3799
 8588TIP3    H147179   0.796   4.584  11.591  0.4501  0.6042  1.0896
 8588TIP3    H247180   0.708   4.697  11.639 -0.7268  0.1420  0.0685
 8589TIP3   OH247181   4.703   5.132   0.070  0.3190  0.1333  0.3303
 8589TIP3    H147182   4.739   5.045   0.088 -0.5687 -0.0229  1.4344
 8589TIP3    H247183   4.748   5.160  -0.010  1.4030 -0.8812  0.5545
 8590TIP3   OH247184   2.865   1.404   2.755  0.0131 -0.1462  0.1090
 8590TIP3    H147185   2.798   1.471   2.739  0.2335  0.4154  1.4454
 8590TIP3    H247186   2.853   1.341   2.684  1.1186  2.3083 -2.4101
 8591TIP3   OH247187   4.158   0.645  14.135 -0.4831  0.3594  0.3001
 8591TIP3    H147188   4.206   0.707  14.190 -0.0602  3.2712 -2.9550
 8591TIP3    H247189   4.066   0.664  14.154 -0.3472  1.4862 -0.0541
 8592TIP3   OH247190   1.930   5.491   2.939  0.5946  0.5254  0.1181
 8592TIP3    H147191   2.021   5.461   2.940 -0.2500 -2.3543 -0.3656
 8592TIP3    H247192   1.916   5.520   2.849  0.6174 -0.5283 -0.2359
 8593TIP3   OH247193   3.062   2.606   5.716 -0.7487  0.0542  0.4658
 8593TIP3    H147194   3.055   2.545   5.642 -1.4110  0.1545  0.4339
 8593TIP3    H247195   3.080   2.550   5.791  0.0240 -0.0405  0.2161
 8594TIP3   OH247196   4.008   0.405   5.480  0.0984 -0.0298  0.2210
 8594TIP3    H147197   4.072   0.424   5.411  1.0238  0.2184  1.1257
 8594TIP3    H247198   4.030   0.318   5.511 -1.2483 -0.7590 -0.7729
 8595TIP3   OH247199   0.007   1.674  14.538 -0.0937  0.0029 -0.3534
 8595TIP3    H147200  -0.047   1.746  14.505  0.0465 -0.2948 -1.2560
 8595TIP3    H247201  -0.027   1.657  14.626 -2.3128 -0.9822 -1.3177
 8596TIP3   OH247202   4.194   6.348  12.818  0.3169  0.1701  0.4828
 8596TIP3    H147203   4.101   6.370  12.818 -0.2092 -1.7609  1.2435
 8596TIP3    H247204   4.195   6.252  12.825  2.3658  0.0274 -1.0614
 8597TIP3   OH247205   5.859   4.092  14.738 -0.1394  0.3978 -0.8351
 8597TIP3    H147206   5.863   4.005  14.698  0.3999 -0.2099  0.4851
 8597TIP3    H247207   5.935   4.096  14.795  1.4511  2.8452 -2.9397
 8598TIP3   OH247208   6.108   2.689   3.703  0.1058  0.1630  0.0696
 8598TIP3    H147209   6.130   2.782   3.708  0.4149  0.0349  1.4381
 8598TIP3    H247210   6.016   2.684   3.730  0.3700 -0.0226  0.9630
 8599TIP3   OH247211   3.694   0.812  16.230 -0.1000  0.0137 -0.1004
 8599TIP3    H147212   3.660   0.901  16.225  0.8203  0.3614 -0.4359
 8599TIP3    H247213   3.699   0.793  16.324  0.8483  0.7894  0.0273
 8600TIP3   OH247214   3.946   2.822   0.669  0.1864  0.1200 -0.2780
 8600TIP3    H147215   3.947   2.735   0.629 -2.2842  0.0602 -0.3324
 8600TIP3    H247216   4.019   2.867   0.627  1.0643 -1.6756 -0.8029
 8601TIP3   OH247217   1.362   1.169  13.095  0.3474 -0.0468 -0.5320
 8601TIP3    H147218   1.311   1.248  13.077  1.4849  0.9517  0.4739
 8601TIP3    H247219   1.321   1.132  13.173 -0.5330 -0.8011 -1.3170
 8602TIP3   OH247220   5.084   1.797   0.222  0.2748  0.1850  0.1200
 8602TIP3    H147221   5.175   1.779   0.198  0.6231  0.2411  1.3616
 8602TIP3    H247222   5.083   1.889   0.248  0.2501 -0.2540  1.7783
 8603TIP3   OH247223   3.647   3.128   1.331  0.2256  0.6443  0.3592
 8603TIP3    H147224   3.694   3.045   1.336 -0.0236  0.2835 -2.1863
 8603TIP3    H247225   3.696   3.186   1.390 -0.4320 -1.5596  3.3626
 8604TIP3   OH247226   5.249   4.223  16.608  0.4740  0.1230  0.2186
 8604TIP3    H147227   5.325   4.212  16.665 -0.6580 -0.6915  1.6440
 8604TIP3    H247228   5.220   4.134  16.589 -1.4546  0.3942  1.6009
 8605TIP3   OH247229   0.100   0.231  16.688 -0.5146 -0.4429  0.1189
 8605TIP3    H147230   0.107   0.143  16.652  0.6057 -0.0260 -0.7292
 8605TIP3    H247231   0.025   0.270  16.643 -1.2262 -1.0391  0.7369
 8606TIP3   OH247232   1.426   0.198   3.848  0.4989  0.0366 -0.0014
 8606TIP3    H147233   1.419   0.104   3.832 -2.0345 -0.1778  1.7415
 8606TIP3    H247234   1.394   0.238   3.768  3.1424 -0.4237 -1.4247
 8607TIP3   OH247235   5.975   4.056  12.867  0.3194 -0.1699  0.0501
 8607TIP3    H147236   5.968   4.150  12.888  1.0818 -0.1832  0.3901
 8607TIP3    H247237   5.993   4.015  12.951  0.6101 -0.5542 -0.2009
 8608TIP3   OH247238   4.755   6.581  13.313  0.1145  0.7018 -0.0162
 8608TIP3    H147239   4.774   6.599  13.221  3.5191 -1.3234  0.1360
 8608TIP3    H247240   4.715   6.494  13.313 -0.8644  1.1377  0.3772
 8609TIP3   OH247241   5.858   1.610   2.733 -0.2380  0.6616  0.3080
 8609TIP3    H147242   5.938   1.600   2.785 -0.9780  0.8246  1.4912
 8609TIP3    H247243   5.890   1.621   2.643  1.1282  1.9380  0.9079
 8610TIP3   OH247244   1.699   4.858   0.353  0.2356 -0.3583 -0.4941
 8610TIP3    H147245   1.767   4.818   0.299  1.4121 -1.0400  1.3973
 8610TIP3    H247246   1.657   4.784   0.397  0.0303  0.2302  0.3182
 8611TIP3   OH247247   5.422   3.180  13.812 -0.3915 -0.8063 -0.1237
 8611TIP3    H147248   5.465   3.102  13.777  1.1294 -1.4550  2.8691
 8611TIP3    H247249   5.489   3.222  13.865 -1.9158  1.2387  0.2998
 8612TIP3   OH247250   1.644   1.181   0.544 -0.2194 -0.0025  0.8665
 8612TIP3    H147251   1.734   1.207   0.565 -0.4323  1.6812 -0.1117
 8612TIP3    H247252   1.623   1.113   0.608  1.7994 -0.5805  1.0069
 8613TIP3   OH247253   3.926   0.231  17.086  0.2871  0.0150 -0.1342
 8613TIP3    H147254   3.867   0.306  17.082  0.1725 -0.0683 -0.0376
 8613TIP3    H247255   4.013   0.268  17.075  0.1873  0.0924 -0.6664
 8614TIP3   OH247256   6.178   4.914  11.226  0.2370  0.7013  0.3693
 8614TIP3    H147257   6.177   4.986  11.163  0.8422  0.3532 -0.0522
 8614TIP3    H247258   6.228   4.947  11.300 -0.6789  1.1956  0.7758
 8615TIP3   OH247259   1.104   3.979   3.146  0.0040 -0.4926  0.1823
 8615TIP3    H147260   1.058   4.054   3.182  0.5262 -0.3706  0.6142
 8615TIP3    H247261   1.112   3.997   3.053  0.5109  0.2005  0.3516
 8616TIP3   OH247262   2.711   6.213  10.730  0.1132  0.0890  0.0841
 8616TIP3    H147263   2.787   6.191  10.677 -2.7855 -0.9159 -4.2156
 8616TIP3    H247264   2.725   6.305  10.754  1.4157  0.9212 -3.2250
 8617TIP3   OH247265   1.869   0.272  15.484  1.0238  0.3604 -0.5384
 8617TIP3    H147266   1.777   0.300  15.486  0.9636  0.2449 -1.2825
 8617TIP3    H247267   1.880   0.234  15.397  2.1849  1.7601 -1.0303
 8618TIP3   OH247268   1.247   6.194   0.299 -0.2749  0.0241  0.1347
 8618TIP3    H147269   1.289   6.258   0.357  2.3665 -1.1955 -0.2928
 8618TIP3    H247270   1.241   6.239   0.215  0.5118  0.1200  0.1211
 8619TIP3   OH247271   2.147   1.690   1.864  0.1966  0.3094 -0.0947
 8619TIP3    H147272   2.174   1.772   1.824 -1.8218  0.7174 -0.7400
 8619TIP3    H247273   2.056   1.706   1.892  0.0018 -1.4675  0.4030
 8620TIP3   OH247274   0.165   1.517  14.851  0.1057 -0.0490 -0.0302
 8620TIP3    H147275   0.226   1.473  14.791  0.7303  1.5661 -0.6239
 8620TIP3    H247276   0.202   1.604  14.864 -0.1146 -0.2668  2.5930
 8621TIP3   OH247277   6.626   2.803  13.027 -0.0144  0.7175  0.0283
 8621TIP3    H147278   6.653   2.750  13.103  1.5169  0.7089 -0.4699
 8621TIP3    H247279   6.605   2.889  13.063  0.4309  0.6331  0.5015
 8622TIP3   OH247280   0.730   4.485  11.323  0.1382  0.3062 -0.4899
 8622TIP3    H147281   0.810   4.511  11.370  1.1179  0.9810 -2.4302
 8622TIP3    H247282   0.749   4.504  11.231 -1.1911 -2.2071 -1.3651
 8623TIP3   OH247283   6.229   1.202   3.481  0.1157 -0.2242  0.0156
 8623TIP3    H147284   6.173   1.166   3.549 -0.2935 -1.0723 -0.7584
 8623TIP3    H247285   6.219   1.297   3.490  1.0294 -0.2470  1.9278
 8624TIP3   OH247286   2.087   1.989  15.486 -0.4293  0.2019  0.3324
 8624TIP3    H147287   2.030   2.065  15.500 -1.2038 -0.3414  0.1565
 8624TIP3    H247288   2.128   2.006  15.401 -1.1845  0.0637 -0.0669
 8625TIP3   OH247289   5.948   5.383  12.190  0.1066 -0.6908  0.5992
 8625TIP3    H147290   6.030   5.369  12.142 -0.4265 -1.1982 -0.1963
 8625TIP3    H247291   5.938   5.305  12.245 -0.1277 -0.9047  0.2580
 8626TIP3   OH247292   1.346   4.404   3.834  0.2023  0.3004  0.1452
 8626TIP3    H147293   1.312   4.450   3.757  0.1447 -1.4656 -0.9402
 8626TIP3    H247294   1.438   4.390   3.814  0.0418 -0.7221  0.1041
 8627TIP3   OH247295   3.503   1.700  16.074  0.4005 -0.8007  0.0672
 8627TIP3    H147296   3.595   1.674  16.077  0.0212 -2.3010 -0.4348
 8627TIP3    H247297   3.480   1.694  15.981  0.2734  1.4565 -0.1070
 8628TIP3   OH247298   5.882   0.136   4.622 -0.1025 -0.1209 -0.2989
 8628TIP3    H147299   5.876   0.046   4.654  0.0295 -0.5699 -1.4986
 8628TIP3    H247300   5.950   0.133   4.555  0.2003  0.9704 -0.0571
 8629TIP3   OH247301   3.393   1.423   1.051  0.4203  0.2425  0.2736
 8629TIP3    H147302   3.397   1.398   1.144  2.6684  0.3060  0.2330
 8629TIP3    H247303   3.371   1.517   1.053  1.9079  0.6009  0.8206
 8630TIP3   OH247304   0.153   3.283   3.267 -0.3056 -0.5518  0.2974
 8630TIP3    H147305   0.148   3.296   3.172  0.9818 -2.2920 -0.0714
 8630TIP3    H247306   0.246   3.292   3.287 -0.6320  0.2777  1.4909
 8631TIP3   OH247307   3.125   5.413  11.717 -0.0735 -0.2660  0.3228
 8631TIP3    H147308   3.176   5.411  11.636 -1.6448  0.2721 -0.7051
 8631TIP3    H247309   3.103   5.506  11.729 -0.7704 -0.4870  0.7937
 8632TIP3   OH247310   5.027   6.305   5.114 -0.5671  0.1594 -0.1188
 8632TIP3    H147311   5.090   6.261   5.057 -0.3774  0.4540 -0.1392
 8632TIP3    H247312   5.010   6.389   5.071 -0.6739  0.2448  0.0889
 8633TIP3   OH247313   0.883   3.370  15.615 -0.0785 -0.0371  0.2088
 8633TIP3    H147314   0.928   3.446  15.650  0.5329 -1.3554  2.5034
 8633TIP3    H247315   0.919   3.358  15.527  0.6474  1.6175  0.2627
 8634TIP3   OH247316   0.977   6.316  12.240  0.2471 -0.0556  0.4074
 8634TIP3    H147317   1.028   6.255  12.293  2.4339  1.6656  0.4618
 8634TIP3    H247318   0.947   6.383  12.302  0.6993  0.6590 -0.1261
 8635TIP3   OH247319   5.986   2.540   4.191  0.7501 -0.9414 -0.5958
 8635TIP3    H147320   6.000   2.446   4.181 -2.3929 -1.5064 -0.5087
 8635TIP3    H247321   5.952   2.569   4.107 -0.0286 -0.2740 -0.0702
 8636TIP3   OH247322   3.678   5.740   2.864 -0.2030 -0.1071 -0.6665
 8636TIP3    H147323   3.678   5.711   2.955 -2.7010  0.1498 -0.5250
 8636TIP3    H247324   3.663   5.835   2.868  0.0318 -0.0276 -1.3610
 8637TIP3   OH247325   0.959   2.434   6.057 -0.3335  0.4630 -0.1607
 8637TIP3    H147326   0.971   2.442   6.152 -0.0505  0.4239 -0.1913
 8637TIP3    H247327   0.891   2.498   6.036 -1.4587 -0.5537  0.2720
 8638TIP3   OH247328   0.237   1.814   0.083 -0.1386  0.1354  0.4329
 8638TIP3    H147329   0.317   1.764   0.064 -0.2866 -0.4458  1.2549
 8638TIP3    H247330   0.221   1.865   0.004  1.8144  1.3173  0.7328
 8639TIP3   OH247331   4.496   4.852   0.777 -0.2867  0.3281  0.4916
 8639TIP3    H147332   4.569   4.912   0.794  3.4316 -3.5956  0.2274
 8639TIP3    H247333   4.498   4.838   0.682  0.9066 -2.1858  0.8028
 8640TIP3   OH247334   3.364   3.887   0.857 -0.1278  0.2618 -0.1983
 8640TIP3    H147335   3.444   3.890   0.910  1.3073  0.0698 -2.2209
 8640TIP3    H247336   3.351   3.794   0.838 -0.1564  0.3850 -0.8183
 8641TIP3   OH247337   5.852   1.857   0.233  0.2546  0.3467 -0.3854
 8641TIP3    H147338   5.868   1.815   0.317 -0.3134 -0.3377 -0.6113
 8641TIP3    H247339   5.940   1.877   0.199  0.5530 -0.9164 -0.4039
 8642TIP3   OH247340   1.965   2.212   6.072 -0.0039  0.5526 -0.5605
 8642TIP3    H147341   1.906   2.250   6.138 -0.6813  1.3914 -1.6019
 8642TIP3    H247342   1.971   2.120   6.095  0.5473  0.9951  1.2258
 8643TIP3   OH247343   1.409   2.294  13.502 -0.4817 -0.1570 -0.5738
 8643TIP3    H147344   1.465   2.271  13.427 -2.3402 -1.6740 -1.5919
 8643TIP3    H247345   1.463   2.275  13.579  1.6087  1.7521 -1.4287
 8644TIP3   OH247346   2.680   6.440   1.673  0.0781 -0.3821 -0.1077
 8644TIP3    H147347   2.655   6.441   1.765  0.3222  0.3220 -0.0441
 8644TIP3    H247348   2.677   6.347   1.648 -1.0686 -0.4741  0.3039
 8645TIP3   OH247349   5.797   3.727  13.526  0.2040  0.1629  0.2604
 8645TIP3    H147350   5.796   3.646  13.476 -0.1671  0.1826  0.2362
 8645TIP3    H247351   5.881   3.768  13.504  1.1166 -0.9542  1.4637
 8646TIP3   OH247352   0.615   5.992  16.691 -0.4229 -0.2023  0.0306
 8646TIP3    H147353   0.533   5.954  16.660 -0.7761 -0.2295  0.9851
 8646TIP3    H247354   0.636   6.058  16.625 -1.8083  0.5905  0.3405
 8647TIP3   OH247355   2.090   6.773  11.369  0.2659 -0.5494  0.1970
 8647TIP3    H147356   2.168   6.766  11.425 -0.7744 -0.3758  1.7387
 8647TIP3    H247357   2.117   6.737  11.285  1.4572 -2.3145  1.2666
 8648TIP3   OH247358   6.254   1.211   0.002  0.0272 -0.2338  0.8625
 8648TIP3    H147359   6.215   1.147  -0.057  1.1583  0.0492 -0.2148
 8648TIP3    H247360   6.185   1.230   0.065 -1.8159  0.7120 -1.3289
 8649TIP3   OH247361   6.714   5.608   2.731  0.2405 -0.4834  0.1991
 8649TIP3    H147362   6.718   5.565   2.645 -1.6155  2.0171 -1.2955
 8649TIP3    H247363   6.801   5.647   2.742 -0.5275  2.4894 -2.6045
 8650TIP3   OH247364   5.197   1.404   0.895 -0.1836  0.1679  0.1757
 8650TIP3    H147365   5.141   1.359   0.831 -0.8665 -2.2915  2.3265
 8650TIP3    H247366   5.135   1.447   0.955  0.1751 -1.4108  1.7728
 8651TIP3   OH247367   4.317   1.189  16.003 -0.8627  0.7747  0.4824
 8651TIP3    H147368   4.278   1.260  15.951  0.0918  0.3232 -0.8860
 8651TIP3    H247369   4.303   1.111  15.951 -0.4000  0.2076  1.1949
 8652TIP3   OH247370   1.859   1.468  11.574  0.1496 -0.6360  0.7602
 8652TIP3    H147371   1.767   1.460  11.547  0.5563  0.9204 -1.2014
 8652TIP3    H247372   1.890   1.377  11.577 -1.1805 -1.1279  0.5222
 8653TIP3   OH247373   5.072   4.161   3.884 -0.2214  0.2231  0.4950
 8653TIP3    H147374   5.118   4.245   3.885 -1.6121  1.1005 -1.7276
 8653TIP3    H247375   5.029   4.158   3.799 -0.9804 -2.3612  0.8731
 8654TIP3   OH247376   2.417   3.911   4.179 -0.5549 -0.1650 -0.2443
 8654TIP3    H147377   2.484   3.957   4.129 -1.4039 -0.3255 -1.5963
 8654TIP3    H247378   2.465   3.856   4.240  0.5349  0.0447 -0.8923
 8655TIP3   OH247379   1.557   2.513   1.284  0.3084  0.4630  0.4460
 8655TIP3    H147380   1.495   2.560   1.228  0.2202 -2.8995 -2.6727
 8655TIP3    H247381   1.502   2.471   1.350 -0.2542  0.5698  0.0540
 8656TIP3   OH247382   0.024   0.999  13.871 -0.2581  0.2781 -0.5713
 8656TIP3    H147383   0.109   1.041  13.861  0.2109 -0.4453  0.2939
 8656TIP3    H247384  -0.036   1.072  13.890  0.2072  0.7542 -0.8883
 8657TIP3   OH247385   6.047   1.863   1.849 -0.1627 -0.3048  0.3605
 8657TIP3    H147386   6.061   1.799   1.919  1.1481  0.1757  0.5755
 8657TIP3    H247387   6.050   1.948   1.893  0.8362  0.0130 -0.2643
 8658TIP3   OH247388   3.474   0.835  16.681 -0.1256 -0.3857 -0.5835
 8658TIP3    H147389   3.475   0.857  16.775  0.0445 -0.8184 -0.4800
 8658TIP3    H247390   3.427   0.752  16.677 -0.5696 -0.1202 -0.9440
 8659TIP3   OH247391   2.759   6.156  12.677 -0.4019  0.1622  0.1916
 8659TIP3    H147392   2.753   6.133  12.584  0.8098  2.0921 -0.4127
 8659TIP3    H247393   2.826   6.097  12.712 -1.4787 -1.1669  0.0706
 8660TIP3   OH247394   5.060   5.611   0.553 -0.0679  0.3015 -0.6482
 8660TIP3    H147395   5.017   5.601   0.638  2.0743  0.4522  0.5173
 8660TIP3    H247396   5.041   5.529   0.507  0.1226 -0.5101  0.6525
 8661TIP3   OH247397   5.139   2.171   5.686 -0.2880  0.7407 -0.9624
 8661TIP3    H147398   5.181   2.217   5.759  0.6999  0.6273 -1.4440
 8661TIP3    H247399   5.056   2.140   5.722  0.4100  0.2329  0.2765
 8662TIP3   OH247400   3.027   6.741   1.013 -0.2551 -0.2489 -0.2493
 8662TIP3    H147401   3.015   6.647   1.018  0.7809 -0.3511  2.0637
 8662TIP3    H247402   3.067   6.756   0.927 -1.5188 -1.7241 -1.1458
 8663TIP3   OH247403   3.774   0.186  12.293 -0.3976  0.1861  0.3060
 8663TIP3    H147404   3.778   0.092  12.275 -1.7633 -0.3137  2.2342
 8663TIP3    H247405   3.774   0.227  12.207  0.5667 -1.5427 -0.5777
 8664TIP3   OH247406   1.721   4.514  13.857 -0.5022 -0.3319  0.0160
 8664TIP3    H147407   1.766   4.490  13.777  1.8983  0.3521  1.0768
 8664TIP3    H247408   1.774   4.476  13.928 -2.1864 -0.3868  1.3276
 8665TIP3   OH247409   3.006   0.732  13.293  0.5334 -1.0795 -0.0348
 8665TIP3    H147410   2.933   0.785  13.326  0.5384 -0.3104 -1.2063
 8665TIP3    H247411   2.964   0.659  13.248  0.4920 -0.7859 -0.4716
 8666TIP3   OH247412   2.978   1.065   0.488  0.1339  0.0031 -0.2098
 8666TIP3    H147413   2.948   1.141   0.537 -0.7479  0.7170 -1.7833
 8666TIP3    H247414   3.008   1.100   0.404  1.4070 -1.1942 -0.2984
 8667TIP3   OH247415   0.314   2.333   5.079 -0.0251  0.3103 -0.3217
 8667TIP3    H147416   0.328   2.398   5.010 -0.2695  0.1276 -0.5412
 8667TIP3    H247417   0.338   2.380   5.160 -0.3353  0.7174 -0.4628
 8668TIP3   OH247418   2.194   5.182   4.538  0.9735 -0.3009 -0.6900
 8668TIP3    H147419   2.102   5.175   4.563  1.0725  0.8809  0.0535
 8668TIP3    H247420   2.201   5.130   4.458 -0.3399 -0.3861 -0.7648
 8669TIP3   OH247421   4.429   1.893  10.905 -0.1072  0.2090  0.3488
 8669TIP3    H147422   4.486   1.833  10.857  0.0650  0.2629  0.4824
 8669TIP3    H247423   4.454   1.980  10.873 -0.7874  0.1718 -0.2964
 8670TIP3   OH247424   2.701   3.063  14.125  0.2038  0.2958  0.6416
 8670TIP3    H147425   2.613   3.083  14.156 -0.2206  0.2391 -0.4824
 8670TIP3    H247426   2.743   3.019  14.199 -1.5302 -1.8956  0.4349
 8671TIP3   OH247427   1.326   6.373   4.581  0.3167 -0.1911  0.6451
 8671TIP3    H147428   1.316   6.397   4.673  0.5352  1.4301  0.2802
 8671TIP3    H247429   1.340   6.456   4.536  1.6186 -1.0744 -0.6829
 8672TIP3   OH247430   0.961   2.461   0.929  0.2798  0.1523 -0.2947
 8672TIP3    H147431   1.015   2.496   0.859  0.4233  0.0242 -0.2501
 8672TIP3    H247432   1.008   2.382   0.959  0.2404  0.2263 -0.0305
 8673TIP3   OH247433   4.570   1.032  12.085 -0.0401  0.3637  0.4631
 8673TIP3    H147434   4.653   1.080  12.076 -0.1356  0.5502  0.5888
 8673TIP3    H247435   4.594   0.941  12.067 -0.2275  0.7014 -1.8746
 8674TIP3   OH247436   4.355   4.431  17.080  0.1902  0.0670  0.0980
 8674TIP3    H147437   4.348   4.520  17.046  0.8634  0.3194  0.5949
 8674TIP3    H247438   4.360   4.376  17.002 -0.2490  0.4613 -0.2121
 8675TIP3   OH247439   0.880   4.035  14.658 -0.1303 -0.1614 -0.5378
 8675TIP3    H147440   0.824   4.068  14.728 -0.0450  2.1792 -1.4747
 8675TIP3    H247441   0.887   3.941  14.675 -0.8343  0.1742  2.0511
 8676TIP3   OH247442   4.143   4.093   5.681 -0.2840  0.4758 -0.0678
 8676TIP3    H147443   4.074   4.144   5.638 -0.4932  1.2397  1.1251
 8676TIP3    H247444   4.214   4.156   5.694  0.7134 -0.3274 -1.3806
 8677TIP3   OH247445   0.828   0.078  14.170 -0.2652 -0.2412  0.1519
 8677TIP3    H147446   0.828   0.115  14.082 -1.3499  0.2716  0.3445
 8677TIP3    H247447   0.917   0.046  14.183 -0.1680 -0.5797 -1.2241
 8678TIP3   OH247448   1.241   4.747   1.683 -0.4945  0.4681 -0.5852
 8678TIP3    H147449   1.284   4.765   1.599 -0.8293  0.8979 -0.6701
 8678TIP3    H247450   1.171   4.812   1.688 -1.6089 -0.6688 -0.7961
 8679TIP3   OH247451   6.023   0.077  14.161 -0.5578 -0.0421  0.1607
 8679TIP3    H147452   6.070   0.131  14.098 -1.2199 -1.6516 -1.8440
 8679TIP3    H247453   5.931   0.101  14.149 -0.7810 -1.0445 -0.2062
 8680TIP3   OH247454   4.048   1.731   3.578 -0.0939  0.0006 -1.0385
 8680TIP3    H147455   4.112   1.660   3.575  0.5984  0.5388  0.1251
 8680TIP3    H247456   4.048   1.766   3.489 -0.4842 -1.4554 -1.6449
 8681TIP3   OH247457   0.655   3.101  15.254 -0.0665  0.1663  0.0707
 8681TIP3    H147458   0.676   3.019  15.299 -0.8546 -0.0960 -0.0302
 8681TIP3    H247459   0.665   3.169  15.321 -0.5317 -0.1424  0.4560
 8682TIP3   OH247460   4.688   2.289   4.494 -0.2922  0.2306 -0.1106
 8682TIP3    H147461   4.639   2.371   4.498 -1.1946 -0.1679 -1.8214
 8682TIP3    H247462   4.662   2.249   4.411  1.0382 -1.2264  0.1068
 8683TIP3   OH247463   2.402   5.264  14.957  0.0276  0.0346  0.4852
 8683TIP3    H147464   2.365   5.352  14.959 -1.2478 -0.4217 -1.0346
 8683TIP3    H247465   2.496   5.276  14.971 -0.1608  1.5943  0.5016
 8684TIP3   OH247466   6.422   4.375  11.374 -0.5069 -0.7076 -0.0275
 8684TIP3    H147467   6.396   4.465  11.356 -1.7122 -1.3653 -1.8235
 8684TIP3    H247468   6.516   4.381  11.393 -0.2876  0.8033 -1.3561
 8685TIP3   OH247469   6.560   2.187   2.605  0.3173  0.8835  0.1791
 8685TIP3    H147470   6.572   2.094   2.587 -0.4295  0.4349  1.7794
 8685TIP3    H247471   6.639   2.213   2.653  0.8155  1.2557 -0.8118
 8686TIP3   OH247472   4.668   5.870  17.189 -0.6092  0.3627  0.1566
 8686TIP3    H147473   4.576   5.848  17.172 -0.4839  0.3752 -0.5880
 8686TIP3    H247474   4.673   5.964  17.176 -0.8898  0.6920  2.1458
 8687TIP3   OH247475   2.130   0.345   2.812 -0.1758 -0.9247  0.4899
 8687TIP3    H147476   2.133   0.316   2.903 -0.6774  0.4142  0.9554
 8687TIP3    H247477   2.076   0.424   2.813  0.3696 -0.4949 -0.8545
 8688TIP3   OH247478   5.188   6.051  17.045  0.1872 -0.2516  0.1244
 8688TIP3    H147479   5.247   6.009  16.982  0.9621 -0.4374  0.9576
 8688TIP3    H247480   5.120   6.091  16.991  1.9111  1.3287 -0.9982
 8689TIP3   OH247481   6.519   6.765   6.655 -0.1651  0.0742  0.4008
 8689TIP3    H147482   6.574   6.784   6.731 -0.3825 -0.3981  0.6809
 8689TIP3    H247483   6.522   6.845   6.602  0.0611  0.3728  0.8634
 8690TIP3   OH247484   5.223   3.894   3.536 -0.2759 -0.1007 -0.8098
 8690TIP3    H147485   5.236   3.986   3.556  0.3162 -0.5298  1.0085
 8690TIP3    H247486   5.270   3.880   3.454 -1.2209  1.3953 -1.6627
 8691TIP3   OH247487   4.325   4.754  17.258 -0.0576 -0.1517  0.0645
 8691TIP3    H147488   4.366   4.756  17.172 -1.2567  0.4757 -0.5125
 8691TIP3    H247489   4.358   4.833  17.302 -3.6449  2.7709 -1.9076
 8692TIP3   OH247490   3.813   0.517   2.787 -0.1882  0.4272 -0.4501
 8692TIP3    H147491   3.782   0.427   2.796  2.1271 -0.3139  0.8994
 8692TIP3    H247492   3.734   0.570   2.790 -1.6649 -1.5545 -1.7270
 8693TIP3   OH247493   2.848   1.071   0.797 -0.2547  0.6159 -0.2120
 8693TIP3    H147494   2.917   1.136   0.782  0.0937  0.2444 -0.2283
 8693TIP3    H247495   2.856   1.048   0.889 -0.2445  0.4460 -0.2552
 8694TIP3   OH247496   5.819   1.589   1.928  0.1790 -0.0104 -0.5450
 8694TIP3    H147497   5.735   1.627   1.902  0.5420  0.7575 -0.6156
 8694TIP3    H247498   5.808   1.571   2.022 -0.4466 -0.9566 -0.7866
 8695TIP3   OH247499   3.062   1.425   0.410  0.3816 -0.0058  0.3465
 8695TIP3    H147500   2.998   1.418   0.340 -0.1161 -0.7324  0.8607
 8695TIP3    H247501   3.110   1.506   0.391  2.6813 -1.8495 -2.8594
 8696TIP3   OH247502   4.758   0.156  17.184  0.5157 -0.4281 -0.6934
 8696TIP3    H147503   4.747   0.107  17.103  0.7375 -1.2872 -0.2169
 8696TIP3    H247504   4.672   0.157  17.224 -0.2594  2.3063 -2.1700
 8697TIP3   OH247505   1.981   6.289   3.067  0.2320 -0.5819 -0.5685
 8697TIP3    H147506   1.984   6.204   3.111  0.4425 -0.4376 -0.2985
 8697TIP3    H247507   1.933   6.345   3.128 -0.6501 -0.7154 -1.1200
 8698TIP3   OH247508   5.601   2.838   3.502  0.1382 -0.8300 -0.1946
 8698TIP3    H147509   5.525   2.839   3.561  1.4699  0.1827  1.6311
 8698TIP3    H247510   5.666   2.785   3.548  1.8229  1.3661  0.1461
 8699TIP3   OH247511   1.250   0.372   4.102 -0.1941  0.0611  0.5976
 8699TIP3    H147512   1.326   0.423   4.131  1.1171 -1.0973 -0.6677
 8699TIP3    H247513   1.267   0.284   4.135 -0.8284 -0.2843  0.0023
 8700TIP3   OH247514   4.790   0.141   0.390  0.5035 -0.3009 -0.3321
 8700TIP3    H147515   4.733   0.096   0.327  0.1106  0.4104 -0.5025
 8700TIP3    H247516   4.730   0.182   0.452  0.8953 -1.1231  0.6139
 8701TIP3   OH247517   3.126   5.601  12.625 -0.0963 -0.0738  0.1722
 8701TIP3    H147518   3.131   5.689  12.587  1.8912 -0.2092  0.0508
 8701TIP3    H247519   3.148   5.613  12.717 -0.3063 -0.3862  0.2663
 8702TIP3   OH247520   6.682   1.557  14.770  0.0334  0.1428  0.6638
 8702TIP3    H147521   6.754   1.500  14.797 -0.2762 -0.2483  0.6747
 8702TIP3    H247522   6.615   1.497  14.737 -0.7067  0.4255  1.6087
 8703TIP3   OH247523   5.145   1.037  12.922  0.3587 -0.0639 -1.1409
 8703TIP3    H147524   5.129   0.944  12.908  0.0799 -0.2921  0.5565
 8703TIP3    H247525   5.193   1.042  13.004  0.5811  1.2866 -1.3183
 8704TIP3   OH247526   3.447   4.308   2.198 -0.3211 -0.3185  0.2811
 8704TIP3    H147527   3.392   4.314   2.120  1.1052  1.2761 -0.6598
 8704TIP3    H247528   3.393   4.342   2.269 -0.8681  0.3376 -0.4394
 8705TIP3   OH247529   6.762   5.092   3.110 -0.5341 -0.5584  0.1135
 8705TIP3    H147530   6.681   5.115   3.065 -2.9907 -1.6338  3.4996
 8705TIP3    H247531   6.795   5.175   3.144 -0.9023 -0.2301 -0.3282
 8706TIP3   OH247532   4.080   4.995   3.114  0.6120  0.6365 -0.0188
 8706TIP3    H147533   4.092   5.032   3.202  1.1535  1.2534 -0.3421
 8706TIP3    H247534   4.014   4.927   3.126 -0.2975  1.5933  0.6291
 8707TIP3   OH247535   2.190   3.613  16.017  0.2832  0.3070 -0.0397
 8707TIP3    H147536   2.095   3.605  16.028  0.4375  0.1694  1.3311
 8707TIP3    H247537   2.226   3.536  16.061  1.0694  0.7508  0.1069
 8708TIP3   OH247538   2.334   3.054   0.608  0.1736  0.0109  0.5159
 8708TIP3    H147539   2.255   3.003   0.627  0.3196 -1.2338 -1.8655
 8708TIP3    H247540   2.335   3.123   0.675 -1.1302 -1.8855  2.6354
 8709TIP3   OH247541   0.283   3.841  13.326 -0.2295 -0.3678 -0.2312
 8709TIP3    H147542   0.249   3.867  13.412 -0.0454 -1.0771  0.0679
 8709TIP3    H247543   0.237   3.759  13.306  0.3344 -0.6391 -0.4275
 8710TIP3   OH247544   5.902   0.603  12.223 -0.5030 -0.5504 -0.3912
 8710TIP3    H147545   5.955   0.635  12.296 -0.3010 -2.3012  0.2880
 8710TIP3    H247546   5.966   0.581  12.155 -0.1996 -3.0696  0.5855
 8711TIP3   OH247547   2.432   3.479   1.674  0.6038  0.0169 -0.3836
 8711TIP3    H147548   2.402   3.404   1.725 -1.2143 -0.3571 -1.8808
 8711TIP3    H247549   2.370   3.548   1.693  0.9468  0.4263 -0.7218
 8712TIP3   OH247550   5.973   4.914  12.891 -0.4579 -0.1727 -0.6679
 8712TIP3    H147551   5.966   4.862  12.971  1.5361 -1.3964 -1.2126
 8712TIP3    H247552   6.029   4.861  12.833  0.1499  1.7771 -1.9434
 8713TIP3   OH247553   1.878   2.918  14.573  0.1216 -0.4956 -0.1809
 8713TIP3    H147554   1.918   2.870  14.501  0.9248 -0.8912  0.5124
 8713TIP3    H247555   1.930   2.998  14.581 -0.4167 -0.1069 -0.5015
 8714TIP3   OH247556   3.868   3.457  10.959 -0.4443 -0.0084  0.0213
 8714TIP3    H147557   3.834   3.368  10.967  0.1757 -0.3147 -0.5854
 8714TIP3    H247558   3.793   3.510  10.933 -1.0108 -0.1882  1.2481
 8715TIP3   OH247559   3.551   4.204  12.717 -0.0777  0.0108  0.0027
 8715TIP3    H147560   3.516   4.254  12.791  1.0175  1.7382 -0.5787
 8715TIP3    H247561   3.548   4.113  12.747 -3.4115  0.1852  0.5977
 8716TIP3   OH247562   0.333   1.061   0.685 -0.4701 -0.0764  0.1287
 8716TIP3    H147563   0.255   1.032   0.637 -0.5782  0.6520 -0.1506
 8716TIP3    H247564   0.299   1.119   0.753 -0.1759  0.2572 -0.0038
 8717TIP3   OH247565   4.171   5.032   6.043 -0.2769 -0.1228 -0.1042
 8717TIP3    H147566   4.084   5.004   6.073 -0.5750  0.7516 -0.1097
 8717TIP3    H247567   4.228   4.958   6.061 -1.2456 -1.1834 -1.1877
 8718TIP3   OH247568   4.558   0.654   0.302  0.3648  0.7685 -0.5045
 8718TIP3    H147569   4.646   0.642   0.266 -0.0165 -0.0855 -1.1957
 8718TIP3    H247570   4.572   0.672   0.395  1.1684 -3.0578  0.2870
 8719TIP3   OH247571   3.744   5.663   0.322  0.5773 -0.1703 -0.0932
 8719TIP3    H147572   3.827   5.620   0.304 -0.2807 -0.6932 -3.6802
 8719TIP3    H247573   3.703   5.673   0.236 -3.8299 -1.4958  1.5336
 8720TIP3   OH247574   5.428   1.181   6.521 -0.2207 -0.3620  0.7423
 8720TIP3    H147575   5.521   1.165   6.537 -0.4913 -0.2215  2.6605
 8720TIP3    H247576   5.390   1.094   6.511  0.0313 -0.4358  0.3910
 8721TIP3   OH247577   3.786   2.094  13.690  0.6877 -0.1843 -0.3175
 8721TIP3    H147578   3.852   2.069  13.756 -0.6831 -1.3701  0.6558
 8721TIP3    H247579   3.748   2.175  13.724  0.6114 -0.3029 -0.1198
 8722TIP3   OH247580   4.267   1.294   4.444 -0.5574  0.5895  0.1947
 8722TIP3    H147581   4.274   1.220   4.383  0.6897 -0.8961  2.0371
 8722TIP3    H247582   4.357   1.326   4.453 -0.8635  1.3710  0.5670
 8723TIP3   OH247583   5.436   1.862  11.853  0.1266 -0.0651 -0.3528
 8723TIP3    H147584   5.447   1.951  11.889 -0.1221  0.1045 -0.6954
 8723TIP3    H247585   5.525   1.830  11.842  0.2352 -0.7363  1.9168
 8724TIP3   OH247586   3.054   3.252  16.708  0.4185 -0.0601  0.2738
 8724TIP3    H147587   3.124   3.314  16.731  0.3194  0.4075 -0.6603
 8724TIP3    H247588   3.022   3.282  16.624  0.4586 -1.4645 -0.2700
 8725TIP3   OH247589   1.297   0.218  11.492  0.6995  0.7597 -0.5587
 8725TIP3    H147590   1.257   0.166  11.422  0.7647 -1.6836  1.0779
 8725TIP3    H247591   1.370   0.262  11.450 -0.2824  0.7591 -2.3863
 8726TIP3   OH247592   6.055   3.382  17.206 -0.3434 -0.1846 -0.0921
 8726TIP3    H147593   5.967   3.397  17.171 -0.0321  1.1481 -0.3345
 8726TIP3    H247594   6.113   3.390  17.130 -0.0482 -1.8620 -0.0953
 8727TIP3   OH247595   3.492   2.618   3.019  0.4345 -0.1284  0.2749
 8727TIP3    H147596   3.426   2.687   3.008 -0.9083 -1.4984 -0.5545
 8727TIP3    H247597   3.478   2.559   2.945  2.0689 -0.9105  0.5404
 8728TIP3   OH247598   4.612   1.276   5.935  0.1222 -0.2500  0.0757
 8728TIP3    H147599   4.633   1.219   5.861  0.9622  0.2108 -0.0558
 8728TIP3    H247600   4.681   1.259   5.999  2.0530  2.5250 -1.0446
 8729TIP3   OH247601   2.426   3.597  15.818 -0.8500  0.9503 -0.1453
 8729TIP3    H147602   2.349   3.640  15.857 -0.9547 -0.7369  1.6499
 8729TIP3    H247603   2.411   3.504  15.831  2.2346  0.5954  1.8136
 8730TIP3   OH247604   6.576   0.428   4.469  0.3831  0.3859 -0.0952
 8730TIP3    H147605   6.582   0.431   4.564 -2.2874 -2.6991  0.3321
 8730TIP3    H247606   6.556   0.518   4.443 -1.1349  0.8842  2.5067
 8731TIP3   OH247607   1.426   4.344  13.242  0.2573 -0.2219 -0.5186
 8731TIP3    H147608   1.448   4.327  13.334 -1.1706 -0.3857 -0.1913
 8731TIP3    H247609   1.340   4.386  13.245 -0.0338 -0.6919 -1.8045
 8732TIP3   OH247610   3.963   6.111  11.362 -0.0760 -0.6273  0.7006
 8732TIP3    H147611   3.909   6.174  11.410  1.9265  1.3015  0.5893
 8732TIP3    H247612   3.901   6.045  11.332 -2.2373  1.0234  1.2499
 8733TIP3   OH247613   4.542   2.775  13.848 -0.1725 -0.0045  0.4834
 8733TIP3    H147614   4.510   2.691  13.815  1.6081  0.0193 -1.5356
 8733TIP3    H247615   4.617   2.796  13.792  0.0012  2.5040  1.5118
 8734TIP3   OH247616   3.600   4.280  15.045 -0.0570 -0.4025  0.2593
 8734TIP3    H147617   3.679   4.247  15.088  0.3255  0.1650  0.0045
 8734TIP3    H247618   3.617   4.267  14.951 -1.6935 -3.5146  0.2537
 8735TIP3   OH247619   4.602   0.124  15.125 -0.2514 -0.0348 -0.4070
 8735TIP3    H147620   4.616   0.044  15.176 -0.8394 -0.1440 -0.4169
 8735TIP3    H247621   4.621   0.195  15.185  3.3509 -0.1260 -1.1781
 8736TIP3   OH247622   5.721   2.081  13.588 -0.0698  0.9088 -0.0470
 8736TIP3    H147623   5.805   2.124  13.601 -0.4516  1.3247  1.1920
 8736TIP3    H247624   5.743   1.988  13.582  0.4399  0.9696  0.7275
 8737TIP3   OH247625   2.280   4.257  16.232 -0.4133 -0.5619 -0.5201
 8737TIP3    H147626   2.312   4.347  16.236  1.0978 -0.9273 -2.5384
 8737TIP3    H247627   2.185   4.264  16.243 -0.2741  1.2167 -0.2374
 8738TIP3   OH247628   6.696   5.287   1.650  0.4944  0.0657 -0.1424
 8738TIP3    H147629   6.780   5.333   1.654 -0.6888  2.2744  2.1466
 8738TIP3    H247630   6.643   5.338   1.588  0.3538 -0.4167 -0.4216
 8739TIP3   OH247631   3.442   3.322   3.141  0.0253  0.0557 -0.2241
 8739TIP3    H147632   3.504   3.250   3.126 -1.7952 -1.4672 -0.9612
 8739TIP3    H247633   3.441   3.369   3.058  1.4726  1.1946  0.3686
 8740TIP3   OH247634   2.641   6.694  15.011  0.1932  0.2150 -0.6633
 8740TIP3    H147635   2.703   6.757  14.977  0.0438 -0.2892 -1.9351
 8740TIP3    H247636   2.682   6.609  14.995  0.0282 -0.0503  0.2639
 8741TIP3   OH247637   4.666   5.247   3.379  0.1017 -0.2251  0.5040
 8741TIP3    H147638   4.715   5.314   3.331  0.3580  0.0738  1.1646
 8741TIP3    H247639   4.733   5.197   3.425 -0.1164 -0.7173  0.2933
 8742TIP3   OH247640   4.485   0.738   6.476  0.4271 -0.3866 -0.4481
 8742TIP3    H147641   4.398   0.755   6.442  1.4737  3.3455 -1.6769
 8742TIP3    H247642   4.511   0.655   6.435 -2.0430 -1.0021 -0.9215
 8743TIP3   OH247643   3.506   5.923  11.875 -0.0174 -0.6996 -0.0821
 8743TIP3    H147644   3.512   6.018  11.867 -0.0819 -0.8651 -3.0380
 8743TIP3    H247645   3.441   5.898  11.810  0.4681 -2.8318  0.1941
 8744TIP3   OH247646   3.085   3.584   1.668 -0.2804  0.5745  0.9679
 8744TIP3    H147647   3.070   3.677   1.651 -1.2910  0.1009 -0.9200
 8744TIP3    H247648   3.001   3.552   1.701 -0.3484  0.0360  0.2668
 8745TIP3   OH247649   3.594   1.214   2.953 -0.5752  0.4090  0.4002
 8745TIP3    H147650   3.636   1.298   2.939 -0.6578  0.7363  1.9737
 8745TIP3    H247651   3.511   1.220   2.904 -0.4383  1.1152  0.2442
 8746TIP3   OH247652   4.026   0.255   2.110  0.6056  0.7669 -0.7488
 8746TIP3    H147653   4.075   0.287   2.185  1.6866 -0.4282 -0.9057
 8746TIP3    H247654   3.949   0.312   2.105  0.3777  0.7231  1.3875
 8747TIP3   OH247655   5.682   4.483  12.601 -0.4125 -0.3283  0.2190
 8747TIP3    H147656   5.666   4.510  12.510  3.5910  1.7537 -0.0791
 8747TIP3    H247657   5.665   4.562  12.652 -4.1451 -1.8662  1.7200
 8748TIP3   OH247658   3.308   3.562   4.571  0.4428  0.1980 -0.1428
 8748TIP3    H147659   3.302   3.467   4.576 -0.0577  0.2083 -0.5101
 8748TIP3    H247660   3.238   3.588   4.511  0.3029  0.8309  0.2804
 8749TIP3   OH247661   2.341   2.159  15.418  0.6793  0.0633  0.0765
 8749TIP3    H147662   2.295   2.143  15.501  1.1007 -0.4366  0.2188
 8749TIP3    H247663   2.301   2.098  15.356  0.1378  0.6682 -0.1766
 8750TIP3   OH247664   6.297   4.918   4.367  0.7557  0.1106  0.3392
 8750TIP3    H147665   6.370   4.861   4.392  0.7971  0.8625  2.0046
 8750TIP3    H247666   6.322   4.951   4.280  1.5107 -1.0759  0.0818
 8751TIP3   OH247667   4.463   1.591   4.075  0.1939  0.4906  0.0058
 8751TIP3    H147668   4.417   1.605   4.158 -0.6244 -0.0566 -0.3456
 8751TIP3    H247669   4.556   1.602   4.097 -0.1396  3.2220  0.4298
 8752TIP3   OH247670   5.803   5.729   6.629 -0.0897 -0.0307 -0.1467
 8752TIP3    H147671   5.750   5.781   6.568 -1.7661 -1.6623 -0.1598
 8752TIP3    H247672   5.875   5.695   6.576 -0.0609  0.6857 -0.5770
 8753TIP3   OH247673   4.027   1.041  17.031  0.3620 -0.0162 -0.8275
 8753TIP3    H147674   4.100   1.006  17.082 -0.4363  0.2602  0.5691
 8753TIP3    H247675   3.954   0.983  17.051 -0.4794  1.2657 -0.0287
 8754TIP3   OH247676   1.131   1.427  15.700  0.1551 -0.0240 -0.0568
 8754TIP3    H147677   1.072   1.498  15.673 -2.5678 -1.9776  0.3273
 8754TIP3    H247678   1.156   1.450  15.790 -0.5912  0.5259  0.0236
 8755TIP3   OH247679   4.321   2.240  13.620  0.0718  0.6569  0.1584
 8755TIP3    H147680   4.370   2.175  13.672 -0.4352  0.5655  0.5254
 8755TIP3    H247681   4.323   2.205  13.531  1.4435  1.1036 -0.0052
 8756TIP3   OH247682   3.245   4.696   5.998 -0.0944 -0.3417 -0.1344
 8756TIP3    H147683   3.194   4.635   6.051 -0.8661 -0.3735 -0.8950
 8756TIP3    H247684   3.218   4.782   6.027  0.9141 -0.3438  0.8634
 8757TIP3   OH247685   5.520   4.033  16.652  0.0703 -0.1960  0.1337
 8757TIP3    H147686   5.468   3.953  16.646 -0.6716  0.3186 -0.4167
 8757TIP3    H247687   5.551   4.035  16.742  0.1362 -1.1241  0.1393
 8758TIP3   OH247688   0.782   2.975  14.928  0.3061 -0.0106  0.1217
 8758TIP3    H147689   0.749   3.056  14.966 -2.0104 -1.0079  0.4163
 8758TIP3    H247690   0.818   2.926  15.002  0.4199  0.1539  0.1759
 8759TIP3   OH247691   4.738   6.618  13.028 -0.1192 -0.0752 -0.2588
 8759TIP3    H147692   4.794   6.695  13.040 -1.9467  0.8912  4.4603
 8759TIP3    H247693   4.654   6.654  12.999 -0.0092 -0.8108 -1.5644
 8760TIP3   OH247694   5.226   2.585   3.624 -0.2485 -0.0970 -0.6467
 8760TIP3    H147695   5.292   2.647   3.654  0.0842 -1.8219  2.5757
 8760TIP3    H247696   5.187   2.627   3.548  0.7481  3.5135  0.6396
 8761TIP3   OH247697   5.001   5.207  10.357 -0.5019  0.2570  0.2699
 8761TIP3    H147698   5.004   5.114  10.378 -0.5278  0.2965  0.4501
 8761TIP3    H247699   5.091   5.237  10.370 -0.5585  0.3220  0.5096
 8762TIP3   OH247700   3.938   2.099   4.118  0.4961 -0.2641  0.3221
 8762TIP3    H147701   3.961   2.010   4.092  0.4174 -0.4035  0.7282
 8762TIP3    H247702   3.904   2.090   4.207 -1.1264 -0.0584 -0.2499
 8763TIP3   OH247703   3.952   3.889   0.010 -0.2299 -0.2080  0.0514
 8763TIP3    H147704   3.858   3.894   0.024 -0.5287  0.2592 -1.7889
 8763TIP3    H247705   3.991   3.894   0.097 -1.7892  2.7720  0.6833
 8764TIP3   OH247706   3.810   4.244   5.792 -0.5610 -0.2948 -0.2619
 8764TIP3    H147707   3.837   4.249   5.700  2.4828 -0.4865  0.5078
 8764TIP3    H247708   3.780   4.154   5.803  2.8154 -1.5556 -0.2771
 8765TIP3   OH247709   2.592   1.023  17.087 -0.6050 -0.4153 -0.5224
 8765TIP3    H147710   2.664   0.968  17.119 -1.5200 -0.8674  0.8708
 8765TIP3    H247711   2.566   1.074  17.164  0.1538  1.9500 -1.7474
 8766TIP3   OH247712   4.490   5.638  14.964 -0.1472 -0.1626  0.2898
 8766TIP3    H147713   4.526   5.725  14.981 -2.2252  0.4559  1.8447
 8766TIP3    H247714   4.433   5.650  14.888 -2.3118  0.4572  1.9304
 8767TIP3   OH247715   4.786   1.714   3.035  0.4833 -0.2581  0.6748
 8767TIP3    H147716   4.714   1.682   2.981  0.6948  1.0564 -0.4354
 8767TIP3    H247717   4.744   1.745   3.115 -0.1663  0.2438  0.1488
 8768TIP3   OH247718   5.615   6.120  13.050  0.4418  0.2591 -0.1784
 8768TIP3    H147719   5.559   6.157  12.982  1.0507 -1.8160 -1.9303
 8768TIP3    H247720   5.561   6.123  13.130 -1.8619 -0.8538 -1.5882
 8769TIP3   OH247721   6.126   3.876   1.063 -0.3597 -0.7668 -0.1690
 8769TIP3    H147722   6.051   3.906   1.114 -0.0844 -1.7012  0.8071
 8769TIP3    H247723   6.183   3.832   1.126  0.8347 -0.4242 -0.9611
 8770TIP3   OH247724   0.357   2.363   3.811  0.6859 -0.1340 -0.1301
 8770TIP3    H147725   0.356   2.302   3.737  0.2201 -0.8952  0.4775
 8770TIP3    H247726   0.300   2.435   3.784  1.6360  0.3055 -1.0562
 8771TIP3   OH247727   5.183   6.235   2.030 -0.0135 -0.2442  0.4890
 8771TIP3    H147728   5.270   6.254   2.064 -0.2149  1.6829  0.0186
 8771TIP3    H247729   5.170   6.297   1.958 -1.6756 -0.6626  0.3763
 8772TIP3   OH247730   1.551   4.412  16.480 -0.3547 -0.3491  0.0318
 8772TIP3    H147731   1.572   4.442  16.568  1.0139 -0.0892 -0.3679
 8772TIP3    H247732   1.634   4.381  16.444 -0.8939 -0.4845 -1.1641
 8773TIP3   OH247733   4.442   3.201   2.919  0.4948 -0.1807  0.3851
 8773TIP3    H147734   4.472   3.179   2.830  1.0446  1.1514  0.2217
 8773TIP3    H247735   4.408   3.118   2.953 -2.1613 -0.2170 -1.9916
 8774TIP3   OH247736   2.592   4.796   3.828 -0.1721 -0.0925 -0.2405
 8774TIP3    H147737   2.559   4.777   3.916 -1.1414  3.2477  0.2473
 8774TIP3    H247738   2.525   4.761   3.770 -0.5007 -0.5647  0.3972
 8775TIP3   OH247739   6.015   6.572   2.696 -0.0163 -0.0928  0.1246
 8775TIP3    H147740   6.083   6.521   2.651 -0.7179 -1.6302  0.7497
 8775TIP3    H247741   5.954   6.597   2.626  1.9613  2.8176 -0.7831
 8776TIP3   OH247742   3.265   4.191   3.162  0.1569 -0.4326  0.0486
 8776TIP3    H147743   3.206   4.262   3.139 -0.2508 -0.2811  1.4516
 8776TIP3    H247744   3.301   4.162   3.079 -0.7231  0.4929 -0.6858
 8777TIP3   OH247745   0.093   3.530  16.573 -0.0034 -0.2520 -0.6600
 8777TIP3    H147746   0.018   3.533  16.632  0.4698 -1.2525  0.0269
 8777TIP3    H247747   0.068   3.584  16.498 -1.4381 -0.6428 -0.4781
 8778TIP3   OH247748   4.973   5.114   0.884 -0.2660 -0.3004  0.2201
 8778TIP3    H147749   5.035   5.162   0.939  0.2602 -0.7538  0.0330
 8778TIP3    H247750   4.932   5.182   0.830  0.9277 -0.1156 -0.4963
 8779TIP3   OH247751   4.242   4.118   4.531 -0.3443 -0.1652 -0.6800
 8779TIP3    H147752   4.219   4.033   4.495 -1.1560  0.3326 -1.3631
 8779TIP3    H247753   4.165   4.172   4.517  0.8367  1.2534 -2.0604
 8780TIP3   OH247754   0.110   3.950   5.747 -0.4426  1.1018 -0.1448
 8780TIP3    H147755   0.029   3.985   5.785 -2.0640  1.1008 -3.3162
 8780TIP3    H247756   0.100   3.855   5.754 -0.5721  1.1041 -0.3186
 8781TIP3   OH247757   0.593   3.760   0.127  0.3974 -0.2389  0.2634
 8781TIP3    H147758   0.684   3.789   0.138  0.0642  0.4278  1.4036
 8781TIP3    H247759   0.572   3.716   0.209 -0.3324 -0.3337  0.0321
 8782TIP3   OH247760   6.466   5.298   1.928  0.1656 -0.1311  0.7016
 8782TIP3    H147761   6.562   5.304   1.938  0.0346  0.5369  1.7225
 8782TIP3    H247762   6.432   5.374   1.976 -0.8618 -0.0574 -0.1200
 8783TIP3   OH247763   0.778   0.180   6.704 -0.7653 -0.4963  0.1081
 8783TIP3    H147764   0.873   0.178   6.690 -0.3424  0.1808  2.4578
 8783TIP3    H247765   0.741   0.170   6.617  1.4486 -1.6352 -0.7771
 8784TIP3   OH247766   6.096   3.220  14.429 -0.1697  1.0326 -0.5706
 8784TIP3    H147767   6.096   3.178  14.514 -1.7126  0.9690 -0.5682
 8784TIP3    H247768   6.149   3.299  14.441  2.2982 -0.5314 -0.4328
 8785TIP3   OH247769   1.971   1.907  15.706 -0.1064 -0.2529 -0.0485
 8785TIP3    H147770   2.022   1.839  15.750  1.2089  0.3677 -0.5575
 8785TIP3    H247771   2.016   1.920  15.623 -0.1749  1.4147  0.1509
 8786TIP3   OH247772   5.888   3.918  13.942 -0.0946  0.0018  0.2469
 8786TIP3    H147773   5.851   3.846  13.994  0.2722 -0.0742  0.4031
 8786TIP3    H247774   5.816   3.980  13.933  0.5645  1.3573  3.2367
 8787TIP3   OH247775   4.923   0.981   5.418 -0.0995  0.3161 -0.2806
 8787TIP3    H147776   4.848   0.923   5.435  0.1041 -0.1247 -0.8501
 8787TIP3    H247777   4.959   0.949   5.335 -0.6610  1.9602 -1.2143
 8788TIP3   OH247778   2.685   5.254  13.281 -0.4943 -0.6958 -0.2592
 8788TIP3    H147779   2.652   5.273  13.368  0.2567  0.1005 -0.1292
 8788TIP3    H247780   2.617   5.286  13.222 -0.5146 -0.2029  0.0217
 8789TIP3   OH247781   5.274   3.299   4.791 -0.0881 -0.3361  0.2019
 8789TIP3    H147782   5.343   3.352   4.750 -0.8155  0.1307 -0.4591
 8789TIP3    H247783   5.217   3.275   4.718 -0.0648 -1.6002  0.5824
 8790TIP3   OH247784   6.123   1.569  11.630 -0.4241 -0.7048  0.2816
 8790TIP3    H147785   6.186   1.553  11.700 -0.0421 -0.9580 -0.1127
 8790TIP3    H247786   6.144   1.657  11.598 -1.9840  0.2992  1.8954
 8791TIP3   OH247787   4.133   3.786   1.307  0.1273  0.1899 -0.0250
 8791TIP3    H147788   4.157   3.867   1.352  3.3531 -0.5755 -0.1364
 8791TIP3    H247789   4.155   3.803   1.215 -1.9122  0.0835 -0.6018
 8792TIP3   OH247790   2.571   5.995  14.998 -0.1362 -0.1882 -0.2426
 8792TIP3    H147791   2.518   6.074  15.010  0.5601 -0.1708  4.8488
 8792TIP3    H247792   2.506   5.924  14.991 -0.7454  0.3919 -0.6852
 8793TIP3   OH247793   5.096   6.549  13.841  0.4906  0.1770 -0.6055
 8793TIP3    H147794   5.181   6.522  13.876 -0.5500 -0.7180  1.4715
 8793TIP3    H247795   5.055   6.467  13.813  0.7282  0.7354 -2.7026
 8794TIP3   OH247796   4.706   2.202   3.504 -0.2396  0.0237 -0.1342
 8794TIP3    H147797   4.639   2.269   3.521 -0.5743  0.3301 -2.4059
 8794TIP3    H247798   4.786   2.253   3.489 -0.2792 -0.1218 -0.8772
 8795TIP3   OH247799   5.190   1.980   5.051  0.5072 -0.1638 -0.5101
 8795TIP3    H147800   5.234   2.000   5.133  1.0544 -0.6261 -0.6893
 8795TIP3    H247801   5.178   2.066   5.008  1.9111 -0.0966 -0.8068
 8796TIP3   OH247802   5.580   5.888  12.020  0.5445  0.0921 -0.2631
 8796TIP3    H147803   5.569   5.826  11.947 -1.2185  2.1258 -1.8755
 8796TIP3    H247804   5.498   5.881  12.070  0.6389  0.5864 -0.0337
 8797TIP3   OH247805   3.611   6.458  14.531  1.1167 -0.4945  0.1524
 8797TIP3    H147806   3.583   6.385  14.587 -0.7297  1.9318  2.6393
 8797TIP3    H247807   3.677   6.504  14.583  2.9818 -0.7839 -1.7792
 8798TIP3   OH247808   3.782   3.297  12.866 -0.8376  0.0476  0.3833
 8798TIP3    H147809   3.733   3.377  12.850  1.0616  1.1754 -0.0537
 8798TIP3    H247810   3.783   3.252  12.781  0.4091  0.9371 -0.1006
 8799TIP3   OH247811   6.714   6.762   3.048 -0.2073  0.1674  0.2902
 8799TIP3    H147812   6.791   6.728   3.095 -1.0387 -1.0073  0.8514
 8799TIP3    H247813   6.643   6.756   3.112 -0.9822  0.2793 -0.5528
 8800TIP3   OH247814   1.261   1.333   4.528 -0.2206 -0.2779  0.4837
 8800TIP3    H147815   1.275   1.421   4.492 -1.4959 -0.2913 -0.1252
 8800TIP3    H247816   1.223   1.349   4.614 -1.3855 -0.1801 -0.0124
 8801TIP3   OH247817   6.205   5.676  11.603 -0.1029 -0.0799  0.0962
 8801TIP3    H147818   6.179   5.768  11.601 -1.2376 -0.4042 -1.2416
 8801TIP3    H247819   6.190   5.649  11.694 -1.5338  0.5795  0.0835
 8802TIP3   OH247820   5.301   2.978   5.299 -0.3799 -0.5897  0.3245
 8802TIP3    H147821   5.323   3.067   5.330 -1.4472  0.7424 -2.4154
 8802TIP3    H247822   5.349   2.969   5.217  1.8079 -3.7003  1.7454
 8803TIP3   OH247823   6.124   1.705   2.556 -0.6202  0.6244 -0.7630
 8803TIP3    H147824   6.157   1.616   2.542 -1.7812 -0.0806  0.6715
 8803TIP3    H247825   6.050   1.712   2.497 -1.5095  0.0166  0.2316
 8804TIP3   OH247826   5.397   0.343   2.780  0.0110 -0.6408 -0.3430
 8804TIP3    H147827   5.392   0.283   2.705  3.2501  0.1740 -1.3824
 8804TIP3    H247828   5.390   0.430   2.742 -0.1098 -0.2421  0.5635
 8805TIP3   OH247829   0.981   5.021   0.985 -0.3165  0.1606  0.4650
 8805TIP3    H147830   1.045   5.037   0.915 -2.2833  0.8626 -1.2773
 8805TIP3    H247831   0.975   5.105   1.031 -0.5376  0.3291  0.1341
 8806TIP3   OH247832   0.661   1.040   1.119 -0.0038  0.4787  0.1491
 8806TIP3    H147833   0.635   1.079   1.035 -0.3675  3.1772  1.3873
 8806TIP3    H247834   0.584   1.049   1.174  0.8858  0.7716  1.3885
 8807TIP3   OH247835   1.778   3.253   6.472  0.1447  1.0128 -0.4101
 8807TIP3    H147836   1.793   3.338   6.515  0.1255  0.5455  0.5352
 8807TIP3    H247837   1.809   3.188   6.535 -2.3510  0.1699  0.0642
 8808TIP3   OH247838   1.547   2.601   5.877 -0.2162 -0.1532 -0.0199
 8808TIP3    H147839   1.516   2.667   5.940  0.2983 -1.6642  1.9094
 8808TIP3    H247840   1.642   2.604   5.884 -0.1491 -0.2756 -0.8150
 8809TIP3   OH247841   0.996   2.495  10.533  0.3307 -0.2030  0.3507
 8809TIP3    H147842   1.091   2.497  10.525  0.2594  1.1783 -0.4298
 8809TIP3    H247843   0.970   2.414  10.488  1.2051 -1.4300  1.9379
 8810TIP3   OH247844   0.823   2.127   1.899  0.3305 -0.5192 -0.0104
 8810TIP3    H147845   0.780   2.160   1.978  0.7783 -1.7839  0.7960
 8810TIP3    H247846   0.762   2.147   1.828 -0.7575 -0.6512  0.8554
 8811TIP3   OH247847   1.523   1.788   4.822  0.7628  0.5296  0.4968
 8811TIP3    H147848   1.501   1.725   4.891 -1.9580  1.0074  0.1886
 8811TIP3    H247849   1.533   1.871   4.868  0.0519  0.6477  0.4404
 8812TIP3   OH247850   1.691   4.930   4.453  0.2206 -0.3259  0.0269
 8812TIP3    H147851   1.703   4.933   4.548  0.9318 -0.4945 -0.0465
 8812TIP3    H247852   1.603   4.894   4.441 -0.3731  0.8635  0.6284
 8813TIP3   OH247853   6.609   6.500  14.953 -0.1778  0.0014 -0.5608
 8813TIP3    H147854   6.558   6.549  15.017 -1.2921 -1.9328  0.1304
 8813TIP3    H247855   6.700   6.507  14.984 -0.4560  0.6777  0.1365
 8814TIP3   OH247856   1.862   1.051  14.833 -0.3156  0.4400  0.1062
 8814TIP3    H147857   1.917   1.016  14.763 -1.5394 -0.3931 -0.4646
 8814TIP3    H247858   1.796   1.102  14.788 -1.3319 -0.4021  0.6040
 8815TIP3   OH247859   5.727   2.789  10.750 -0.4436 -0.0119 -0.4683
 8815TIP3    H147860   5.749   2.697  10.767  0.3392  0.3073  0.3291
 8815TIP3    H247861   5.631   2.791  10.750 -0.5003 -1.0988 -2.0520
 8816TIP3   OH247862   5.398   0.673  16.678  0.1129 -0.1539 -0.2787
 8816TIP3    H147863   5.390   0.644  16.769  1.3887  1.0825  0.2589
 8816TIP3    H247864   5.479   0.632  16.647 -0.5946 -1.0123 -1.0625
 8817TIP3   OH247865   1.573   5.953  16.204 -0.1769  0.6036 -0.0256
 8817TIP3    H147866   1.556   6.039  16.166 -1.7734 -0.1043 -1.0147
 8817TIP3    H247867   1.667   5.939  16.190 -0.1674  1.5955 -1.1195
 8818TIP3   OH247868   4.814   6.696   4.897  0.1097 -0.3539  0.2331
 8818TIP3    H147869   4.836   6.612   4.856  1.2745 -0.0502  0.1774
 8818TIP3    H247870   4.898   6.742   4.902 -0.3810  0.4864  0.9956
 8819TIP3   OH247871   3.025   6.383   4.636 -0.1985  0.3389  0.2828
 8819TIP3    H147872   2.969   6.459   4.619  0.0482  0.8435  1.6121
 8819TIP3    H247873   2.966   6.318   4.673 -0.8233 -0.9172 -2.6103
 8820TIP3   OH247874   5.313   1.474   5.545 -0.1361 -0.2080 -0.1051
 8820TIP3    H147875   5.247   1.523   5.595 -0.2741 -1.0124  0.5192
 8820TIP3    H247876   5.297   1.382   5.568  2.8071 -0.3065  2.1059
 8821TIP3   OH247877   0.554   4.446   4.686 -0.0477 -0.1450 -0.8613
 8821TIP3    H147878   0.579   4.401   4.605 -0.1353  0.1459 -1.0494
 8821TIP3    H247879   0.586   4.389   4.756  0.0504 -0.3839 -1.1009
 8822TIP3   OH247880   3.256   0.867   2.612  0.1323  0.3186 -0.2249
 8822TIP3    H147881   3.339   0.872   2.564  0.1327  0.7696 -0.1821
 8822TIP3    H247882   3.223   0.956   2.612 -0.3919  0.1285 -0.3008
 8823TIP3   OH247883   1.628   2.215   0.211 -0.3075 -0.5753 -0.2195
 8823TIP3    H147884   1.614   2.284   0.276 -0.7091  1.0070 -1.9071
 8823TIP3    H247885   1.721   2.193   0.218  0.0500  0.8613 -0.3355
 8824TIP3   OH247886   4.472   2.957   0.564  0.4770  0.6064 -0.5032
 8824TIP3    H147887   4.524   3.031   0.533  1.5608  0.0036 -0.2005
 8824TIP3    H247888   4.443   2.983   0.652  1.5877  0.3549 -0.0359
 8825TIP3   OH247889   1.722   6.199  16.172 -0.2210  0.0036 -0.4445
 8825TIP3    H147890   1.798   6.158  16.130  0.6031  0.0396  0.9398
 8825TIP3    H247891   1.748   6.290  16.185 -0.5692  0.0592 -0.1173
 8826TIP3   OH247892   4.283   4.223   6.078 -0.8489 -0.2390  0.3934
 8826TIP3    H147893   4.205   4.243   6.026 -0.5715  0.5887  0.2783
 8826TIP3    H247894   4.257   4.241   6.168 -0.6969  0.3895  0.3209
 8827TIP3   OH247895   1.391   1.482  14.830  0.0625 -0.2979 -0.0102
 8827TIP3    H147896   1.344   1.416  14.881  0.7168  0.5610  1.8076
 8827TIP3    H247897   1.427   1.542  14.896  0.9798  0.8720 -1.5034
 8828TIP3   OH247898   5.311   1.418  17.037 -0.4394 -0.7622  0.0102
 8828TIP3    H147899   5.402   1.388  17.036 -0.3685 -0.5332 -0.6254
 8828TIP3    H247900   5.318   1.513  17.046 -0.6405 -0.8187  0.8638
 8829TIP3   OH247901   2.497   0.323   4.634  0.0394  0.1034 -0.2602
 8829TIP3    H147902   2.504   0.335   4.728 -0.4031 -2.7125  0.2160
 8829TIP3    H247903   2.403   0.331   4.616 -0.1095 -1.1291 -0.1255
 8830TIP3   OH247904   4.294   3.221   0.102  0.2412 -0.6784  0.0953
 8830TIP3    H147905   4.278   3.140   0.151 -2.0786 -0.4128 -0.0764
 8830TIP3    H247906   4.207   3.245   0.068  1.5926 -0.5501 -3.7049
 8831TIP3   OH247907   4.336   5.852  11.724  0.5612  0.1246 -0.3553
 8831TIP3    H147908   4.251   5.889  11.747  1.2638  0.6914  1.5319
 8831TIP3    H247909   4.397   5.890  11.787  1.9147 -1.6520 -0.4987
 8832TIP3   OH247910   5.042   1.983   6.402  0.8944 -1.1197  0.1026
 8832TIP3    H147911   4.952   2.001   6.430  1.2860 -1.3839  1.6241
 8832TIP3    H247912   5.087   2.067   6.410  0.5341 -0.6813 -1.8659
 8833TIP3   OH247913   0.142   5.383   4.970 -0.4825 -0.6753 -0.7602
 8833TIP3    H147914   0.121   5.294   4.942 -0.0927 -1.2669  0.7251
 8833TIP3    H247915   0.207   5.372   5.039 -1.6880  0.6521  0.6735
 8834TIP3   OH247916   5.454   4.199  11.262 -0.4641  0.0019 -0.0947
 8834TIP3    H147917   5.542   4.230  11.240 -0.4796  1.6907  1.9195
 8834TIP3    H247918   5.469   4.122  11.317 -0.1773  0.7109  0.8516
 8835TIP3   OH247919   2.115   5.819  15.228  0.3218 -0.1410 -0.4333
 8835TIP3    H147920   2.023   5.798  15.213 -0.0524  1.1131 -0.0229
 8835TIP3    H247921   2.159   5.792  15.147  0.1114 -3.3788  0.3877
 8836TIP3   OH247922   4.261   3.982  12.327 -0.8917 -0.3437 -0.8023
 8836TIP3    H147923   4.197   3.924  12.285  0.0530 -1.1505 -1.1684
 8836TIP3    H247924   4.221   4.069  12.323 -1.4524 -0.6348 -2.0803
 8837TIP3   OH247925   2.161   2.363   0.675 -0.9756  0.3789  0.7182
 8837TIP3    H147926   2.141   2.304   0.747 -1.5540  0.9098  1.0034
 8837TIP3    H247927   2.257   2.370   0.675 -0.9930  0.9406  1.9140
 8838TIP3   OH247928   2.918   5.992  14.850 -0.4714  0.3458 -0.5979
 8838TIP3    H147929   2.936   6.039  14.769 -1.9981  0.2732 -1.0158
 8838TIP3    H247930   2.855   5.925  14.825 -0.7600  0.1452  0.6016
 8839TIP3   OH247931   4.088   4.210  17.001 -0.0184  0.0614 -0.8180
 8839TIP3    H147932   4.069   4.284  17.058 -0.3812 -0.3157 -0.4503
 8839TIP3    H247933   4.084   4.133  17.058  0.2691 -0.2539 -1.2141
 8840TIP3   OH247934   6.177   5.077  16.192 -0.0168  0.2617 -0.7095
 8840TIP3    H147935   6.167   5.040  16.280  0.3594 -1.1176 -1.2266
 8840TIP3    H247936   6.138   5.164  16.198  0.3696  0.3447  0.9273
 8841TIP3   OH247937   0.865   6.105  10.566  0.1526 -0.2384  0.0512
 8841TIP3    H147938   0.808   6.122  10.641  1.5409 -0.0950  1.1187
 8841TIP3    H247939   0.845   6.015  10.541 -0.8409 -0.0455  0.1304
 8842TIP3   OH247940   0.857   6.592   2.506 -0.2206 -0.9411  0.3354
 8842TIP3    H147941   0.891   6.502   2.501  0.9099 -0.4777 -2.2733
 8842TIP3    H247942   0.832   6.612   2.416  1.3617  1.9966  0.4311
 8843TIP3   OH247943   1.562   3.398   5.181 -0.1675  0.0063 -0.1106
 8843TIP3    H147944   1.483   3.354   5.149 -0.7610 -0.8470  2.3023
 8843TIP3    H247945   1.533   3.488   5.200  0.3528  0.7244 -2.3890
 8844TIP3   OH247946   4.811   6.651   6.816  0.7962  0.4960  0.3690
 8844TIP3    H147947   4.887   6.594   6.825  1.0877  0.8221  0.0421
 8844TIP3    H247948   4.839   6.734   6.857  0.8379  0.8079 -0.2745
 8845TIP3   OH247949   4.949   2.865  12.372 -0.0420 -0.4332  0.6247
 8845TIP3    H147950   5.026   2.839  12.322 -0.2453 -0.7341  0.4638
 8845TIP3    H247951   4.908   2.933  12.318 -0.6435 -1.2512  0.0372
 8846TIP3   OH247952   5.689   5.698   5.126 -0.2099  0.0667 -0.5312
 8846TIP3    H147953   5.760   5.710   5.189  0.5990 -2.2418 -0.9141
 8846TIP3    H247954   5.632   5.773   5.140  1.6677  1.3586  0.6332
 8847TIP3   OH247955   6.643   0.875  15.706 -0.3885  0.0445 -0.2852
 8847TIP3    H147956   6.549   0.859  15.719 -0.4847 -0.7909 -1.7365
 8847TIP3    H247957   6.647   0.929  15.626  0.3501  0.5182  0.0619
 8848TIP3   OH247958   2.513   5.436  11.458 -0.0319 -0.1646 -0.2093
 8848TIP3    H147959   2.515   5.410  11.366  0.7884  0.3863 -0.3567
 8848TIP3    H247960   2.538   5.357  11.506  0.9004 -0.0986 -0.5562
 8849TIP3   OH247961   5.435   4.284  11.766  0.4103 -0.1970  0.0627
 8849TIP3    H147962   5.391   4.214  11.813 -0.5754  0.7991  0.6741
 8849TIP3    H247963   5.364   4.330  11.720  0.8370  1.2452  0.8037
 8850TIP3   OH247964   5.930   1.298   0.986 -0.1324 -0.0607 -0.1716
 8850TIP3    H147965   6.001   1.280   0.924  0.2219 -0.2935  0.2948
 8850TIP3    H247966   5.875   1.220   0.983 -0.3024  0.0693 -0.4440
 8851TIP3   OH247967   4.143   1.431  15.085 -0.8533  0.5301 -0.0113
 8851TIP3    H147968   4.229   1.462  15.058 -0.3327 -1.3357 -0.7155
 8851TIP3    H247969   4.098   1.410  15.003 -2.1857  1.9294  0.3242
 8852TIP3   OH247970   0.647   5.629  13.128  0.3931  0.0507  0.0587
 8852TIP3    H147971   0.591   5.704  13.109  1.1449 -0.1047 -3.4099
 8852TIP3    H247972   0.693   5.652  13.209  0.0699  3.0094 -0.5147
 8853TIP3   OH247973   6.248   0.373   2.770 -0.8461  0.3515 -0.2003
 8853TIP3    H147974   6.310   0.325   2.716 -0.4503  0.4587  0.1492
 8853TIP3    H247975   6.262   0.339   2.859  1.2159  2.8120  0.5341
 8854TIP3   OH247976   3.387   2.213  15.208 -0.5847  0.1228  0.2335
 8854TIP3    H147977   3.417   2.272  15.139  0.6709 -1.0552 -0.2920
 8854TIP3    H247978   3.466   2.195  15.260 -0.9285 -1.0814  0.3723
 8855TIP3   OH247979   1.858   3.264  15.250  0.1778  0.5919 -0.0641
 8855TIP3    H147980   1.912   3.312  15.187 -1.2083  0.6421 -1.2720
 8855TIP3    H247981   1.788   3.325  15.274 -0.4474 -0.1132 -0.0404
 8856TIP3   OH247982   0.300   5.349  16.073  0.3418  0.5328 -0.0349
 8856TIP3    H147983   0.302   5.426  16.016 -1.4139  0.5093 -0.1686
 8856TIP3    H247984   0.258   5.281  16.021  0.2010  0.0227  0.7267
 8857TIP3   OH247985   5.810   1.486  10.710  0.0192 -0.0789 -0.2031
 8857TIP3    H147986   5.831   1.393  10.702 -0.2137 -0.1832  0.3028
 8857TIP3    H247987   5.715   1.487  10.725  0.4215 -0.0075  3.0993
 8858TIP3   OH247988   0.581   4.771   3.298  0.1652 -0.0856 -0.1900
 8858TIP3    H147989   0.546   4.850   3.339 -0.1402 -0.3649  0.1002
 8858TIP3    H247990   0.635   4.731   3.365  0.0723 -0.2821 -0.2308
 8859TIP3   OH247991   5.765   3.582  12.973  0.3568  0.4285  0.0002
 8859TIP3    H147992   5.757   3.647  12.904  0.7964 -1.0358 -1.5093
 8859TIP3    H247993   5.676   3.547  12.984  0.4520  0.0223 -0.4955
 8860TIP3   OH247994   2.813   5.746  12.413 -0.0469 -0.3101  0.2931
 8860TIP3    H147995   2.879   5.678  12.397  0.1943 -0.2697  1.0578
 8860TIP3    H247996   2.838   5.817  12.354  1.1110  0.0317  1.1436
 8861TIP3   OH247997   0.880   1.015   0.770 -0.0524 -0.5814  0.2581
 8861TIP3    H147998   0.876   0.927   0.807 -2.1177 -0.7610 -0.2468
 8861TIP3    H247999   0.889   1.001   0.676 -0.4671 -0.2770  0.1674
 8862TIP3   OH248000   0.797   0.324   5.445  0.5083  0.2300 -0.1285
 8862TIP3    H148001   0.710   0.303   5.479  1.1424 -1.6809  0.4647
 8862TIP3    H248002   0.816   0.253   5.383  2.0827 -0.0656  0.6307
 8863TIP3   OH248003   0.904   1.596   6.497  0.0426 -0.3120 -0.2410
 8863TIP3    H148004   0.887   1.571   6.406  0.1130  0.9636 -0.6254
 8863TIP3    H248005   0.993   1.566   6.514  0.0726 -0.4489 -0.6255
 8864TIP3   OH248006   4.191   1.760  10.916  0.8380 -0.0806  0.2273
 8864TIP3    H148007   4.270   1.814  10.907  1.8462 -1.6618 -1.0095
 8864TIP3    H248008   4.206   1.685  10.857 -2.0888  0.1137 -0.9415
 8865TIP3   OH248009   3.867   3.057   5.528 -0.1886  0.6183  0.3706
 8865TIP3    H148010   3.779   3.052   5.564  0.4479 -2.6557  1.8901
 8865TIP3    H248011   3.856   3.048   5.434 -1.5016  2.2250  0.3174
 8866TIP3   OH248012   0.898   3.334  11.070 -0.3879  0.0043  0.1274
 8866TIP3    H148013   0.859   3.260  11.022 -0.1747  0.5192 -0.8678
 8866TIP3    H248014   0.823   3.390  11.092 -0.5790 -0.5980  1.0846
 8867TIP3   OH248015   4.388   4.450  13.481 -0.6809  0.0524  0.3615
 8867TIP3    H148016   4.332   4.377  13.509 -0.9407 -0.3504 -1.1211
 8867TIP3    H248017   4.441   4.413  13.411  0.5688  0.7846  0.8902
 8868TIP3   OH248018   4.826   3.421   3.461  0.4622 -0.1466 -0.1720
 8868TIP3    H148019   4.857   3.507   3.434  0.5861 -0.5007 -1.1827
 8868TIP3    H248020   4.837   3.421   3.557  0.9013  0.7720 -0.2078
 8869TIP3   OH248021   5.090   1.508  12.388 -0.4267  0.6199 -0.2998
 8869TIP3    H148022   5.158   1.471  12.444 -0.8725  0.2528  0.0115
 8869TIP3    H248023   5.099   1.461  12.305 -1.1556 -0.3892  0.1765
 8870TIP3   OH248024   5.620   0.410   1.107  0.3670 -0.1102 -0.1235
 8870TIP3    H148025   5.690   0.475   1.098  1.2954 -1.2928 -1.9322
 8870TIP3    H248026   5.632   0.352   1.033 -0.8599 -1.9757  1.0725
 8871TIP3   OH248027   3.835   0.523  16.324  0.3037  0.0035 -0.2945
 8871TIP3    H148028   3.758   0.508  16.270 -0.2375  1.7753 -0.0863
 8871TIP3    H248029   3.816   0.480  16.407 -0.9520  1.2568  0.1147
 8872TIP3   OH248030   4.442   4.237  14.755  0.6009 -0.4294 -0.6635
 8872TIP3    H148031   4.361   4.256  14.707  0.8877  0.4978 -0.7894
 8872TIP3    H248032   4.414   4.229  14.846  0.4084  0.1852 -0.6635
 8873TIP3   OH248033   6.743   0.723   3.160  0.1991 -0.7495  0.1413
 8873TIP3    H148034   6.811   0.669   3.119 -0.6326 -0.4881 -1.6721
 8873TIP3    H248035   6.783   0.810   3.166  0.5892 -0.9557  0.5666
 8874TIP3   OH248036   6.571   2.956  16.253 -0.2124 -0.0395  0.1072
 8874TIP3    H148037   6.511   2.893  16.213  1.5674 -0.5333 -1.9661
 8874TIP3    H248038   6.518   3.035  16.264 -1.2126 -0.3509 -1.9293
 8875TIP3   OH248039   1.354   4.549  11.083  0.2119  0.4224  0.0760
 8875TIP3    H148040   1.308   4.486  11.027  0.9072 -0.9025  0.9350
 8875TIP3    H248041   1.430   4.575  11.032  1.6289 -1.8700  0.8479
 8876TIP3   OH248042   6.139   6.460  17.175 -0.0249 -0.2339  0.0488
 8876TIP3    H148043   6.156   6.510  17.255  0.6927 -1.3441  0.6200
 8876TIP3    H248044   6.073   6.396  17.200 -1.7972  1.0776 -0.9757
 8877TIP3   OH248045   1.625   6.777   1.599 -0.3476 -0.7115 -0.0931
 8877TIP3    H148046   1.630   6.868   1.627  0.6452 -1.0953  1.1313
 8877TIP3    H248047   1.625   6.727   1.681 -0.6706 -1.8139 -0.7393
 8878TIP3   OH248048   6.449   3.851  14.165  0.0039 -0.0040  0.1034
 8878TIP3    H148049   6.396   3.778  14.133 -0.6031 -0.0954  1.2752
 8878TIP3    H248050   6.539   3.822  14.152 -0.0586  1.1017 -4.1275
 8879TIP3   OH248051   0.928   0.295   4.981  0.3897  0.0941 -0.2095
 8879TIP3    H148052   0.945   0.253   4.897  0.7977 -0.8349  0.3255
 8879TIP3    H248053   1.013   0.294   5.026  0.3378  1.2390 -0.0701
 8880TIP3   OH248054   2.931   2.604   4.611 -0.1915  0.1881  0.0330
 8880TIP3    H148055   2.931   2.624   4.517 -0.9054  1.1968  0.2342
 8880TIP3    H248056   2.946   2.510   4.615  2.6049  0.4824 -0.9963
 8881TIP3   OH248057   0.208   5.120   0.321 -0.3768  0.3323 -0.0830
 8881TIP3    H148058   0.131   5.132   0.377 -1.8386  2.4119 -2.3379
 8881TIP3    H248059   0.274   5.178   0.359 -1.1805  1.3327 -0.1802
 8882TIP3   OH248060   2.026   3.398  15.423  0.7917 -0.3434  0.3317
 8882TIP3    H148061   1.962   3.341  15.380  0.1574  0.3031  0.4153
 8882TIP3    H248062   2.073   3.440  15.351  2.9851 -2.7541  0.1620
 8883TIP3   OH248063   6.487   3.938   1.905  0.3924 -0.4574  0.6415
 8883TIP3    H148064   6.553   3.951   1.974  0.3616  0.3200  0.5297
 8883TIP3    H248065   6.502   4.009   1.843 -0.2523 -0.5463  0.3720
 8884TIP3   OH248066   1.979   1.867  13.470  0.2707  0.1020 -0.6135
 8884TIP3    H148067   1.982   1.887  13.564  0.3891 -0.2720 -0.5346
 8884TIP3    H248068   1.963   1.772  13.466  0.6579  0.0465 -0.9676
 8885TIP3   OH248069   5.149   2.451  15.921  0.8460 -0.4191 -0.0935
 8885TIP3    H148070   5.206   2.497  15.982 -0.9262  0.2031  1.1580
 8885TIP3    H248071   5.081   2.515  15.898 -1.0805 -2.0231  0.8606
 8886TIP3   OH248072   1.647   5.519   3.657 -0.2641 -0.4446 -0.2098
 8886TIP3    H148073   1.638   5.598   3.603  1.9335  1.0945  1.4936
 8886TIP3    H248074   1.569   5.518   3.712 -0.3919  0.4806 -0.3609
 8887TIP3   OH248075   2.512   3.313  12.688  0.0771 -0.3832  0.3152
 8887TIP3    H148076   2.445   3.371  12.723  0.8044  0.9583 -0.4413
 8887TIP3    H248077   2.577   3.306  12.757  0.7226  0.9529 -0.1334
 8888TIP3   OH248078   3.540   3.022  12.601  0.2840 -0.2242  0.0481
 8888TIP3    H148079   3.561   3.057  12.688  1.3558  0.0198 -0.2836
 8888TIP3    H248080   3.555   3.096  12.542 -0.5002 -0.3703 -0.3411
 8889TIP3   OH248081   3.581   2.380  15.715 -0.6253  0.5651 -0.4146
 8889TIP3    H148082   3.495   2.399  15.754 -0.2717 -0.4661  0.9505
 8889TIP3    H248083   3.620   2.466  15.701 -1.2137  1.0047  0.5396
 8890TIP3   OH248084   1.052   3.045  14.459 -0.2517 -0.2609 -0.2778
 8890TIP3    H148085   0.978   3.056  14.399 -1.0478 -0.3393  0.6646
 8890TIP3    H248086   1.017   2.996  14.533  0.8735 -0.7280 -0.0231
 8891TIP3   OH248087   3.647   4.451   0.029 -0.0699  0.3613  0.3217
 8891TIP3    H148088   3.628   4.443  -0.064  1.2178 -1.5179  0.1624
 8891TIP3    H248089   3.563   4.435   0.073  0.0917 -3.4782 -0.4488
 8892TIP3   OH248090   3.084   2.608  12.056  0.1989 -0.4376  0.2134
 8892TIP3    H148091   3.054   2.518  12.064  0.4764 -0.6895 -1.3190
 8892TIP3    H248092   3.134   2.610  11.975  1.2490  0.8232  0.8477
 8893TIP3   OH248093   2.000   4.913   3.412 -0.1452 -0.7359  0.2227
 8893TIP3    H148094   1.914   4.890   3.376  0.6259 -1.1344 -1.4485
 8893TIP3    H248095   2.000   5.009   3.416 -1.0099 -0.7504  1.2012
 8894TIP3   OH248096   1.064   5.951   1.003  0.2111 -0.6083  0.5478
 8894TIP3    H148097   1.018   6.013   1.060  1.0369  0.6034 -0.0812
 8894TIP3    H248098   1.114   6.005   0.944 -2.7124 -1.6208 -3.2669
 8895TIP3   OH248099   3.874   2.124   4.999  0.2542 -0.1058  0.2369
 8895TIP3    H148100   3.875   2.115   5.094  0.3682 -1.0728  0.1534
 8895TIP3    H248101   3.792   2.171   4.980  0.9352  1.4180  0.8965
 8896TIP3   OH248102   5.133   0.418   0.803 -0.1893  0.7087  0.0899
 8896TIP3    H148103   5.102   0.444   0.890 -0.4428  1.8111 -0.3098
 8896TIP3    H248104   5.165   0.329   0.814  0.6392  1.1554  1.5323
 8897TIP3   OH248105   0.313   0.501  11.979 -0.0572 -0.9299 -0.1642
 8897TIP3    H148106   0.350   0.509  11.891 -0.3874 -0.9225 -0.3041
 8897TIP3    H248107   0.349   0.576  12.027 -0.9421 -0.1617 -0.6769
 8898TIP3   OH248108   0.479   4.549  17.020 -0.6287  0.1658 -0.5530
 8898TIP3    H148109   0.573   4.557  17.040 -1.0149  0.5455  1.2758
 8898TIP3    H248110   0.475   4.558  16.925  1.2394 -0.3777 -0.7351
 8899TIP3   OH248111   3.816   5.465  12.062  0.1468 -0.3473  0.6086
 8899TIP3    H148112   3.756   5.506  12.000  1.7693  2.1323  0.5333
 8899TIP3    H248113   3.774   5.475  12.147 -0.7415 -1.0861  0.2681
 8900TIP3   OH248114   4.911   2.365  16.228  0.0442  0.2875 -0.2416
 8900TIP3    H148115   4.878   2.452  16.204  0.1203  0.9589  1.8956
 8900TIP3    H248116   4.949   2.377  16.314  1.5905 -1.5335 -0.6061
 8901TIP3   OH248117   6.113   2.789   5.036  0.1232  0.4189  0.4659
 8901TIP3    H148118   6.052   2.721   5.009  3.3219 -2.3572 -0.4274
 8901TIP3    H248119   6.119   2.780   5.131 -0.3875  0.2792  0.4859
 8902TIP3   OH248120   0.419   2.592  14.193  0.0997  0.2721  0.1294
 8902TIP3    H148121   0.357   2.528  14.160 -0.1279  0.4680  0.1702
 8902TIP3    H248122   0.495   2.541  14.220 -0.0135  0.0384  0.0080
 8903TIP3   OH248123   1.841   0.350  15.852  0.0966  0.3424  0.1756
 8903TIP3    H148124   1.904   0.421  15.857 -0.7304  1.0812  0.5100
 8903TIP3    H248125   1.849   0.304  15.935 -1.0010  1.5139  0.9729
 8904TIP3   OH248126   4.438   5.595   0.574 -0.3937 -0.1860  0.0465
 8904TIP3    H148127   4.415   5.581   0.666  0.0910  0.8626  0.3459
 8904TIP3    H248128   4.527   5.630   0.577 -0.3197 -0.2836 -0.8359
 8905TIP3   OH248129   5.774   3.317  12.658  0.4254  0.9754  0.4799
 8905TIP3    H148130   5.770   3.315  12.754  2.4421  0.0415  0.5869
 8905TIP3    H248131   5.724   3.240  12.631 -0.2463  1.3042  0.7553
 8906TIP3   OH248132   2.507   1.642   5.568 -0.2453 -0.6775  0.0874
 8906TIP3    H148133   2.556   1.717   5.602  0.6311 -1.1989  0.0147
 8906TIP3    H248134   2.453   1.614   5.641 -0.6818  0.1011  0.0735
 8907TIP3   OH248135   1.225   3.058   3.476 -0.8016 -0.0810  0.6410
 8907TIP3    H148136   1.291   3.011   3.425  0.4536  1.0701  1.1661
 8907TIP3    H248137   1.147   3.002   3.470  0.3796 -1.7913  0.5228
 8908TIP3   OH248138   2.113   6.046  13.749 -0.1884 -0.3685  0.6763
 8908TIP3    H148139   2.153   6.131  13.763 -0.5382 -0.0692 -0.0510
 8908TIP3    H248140   2.041   6.063  13.688  0.5326 -1.3602 -0.5249
 8909TIP3   OH248141   3.424   1.569  14.185  0.1741  0.6422 -0.1546
 8909TIP3    H148142   3.447   1.615  14.266  0.6519 -1.0314  0.7210
 8909TIP3    H248143   3.329   1.564  14.187  0.2278 -0.2386  0.8275
 8910TIP3   OH248144   6.474   2.927  13.381  0.3250  0.0047  0.4501
 8910TIP3    H148145   6.527   2.989  13.431  0.0200 -0.7736  1.7692
 8910TIP3    H248146   6.508   2.934  13.292  1.9640  0.2747  1.0581
 8911TIP3   OH248147   1.303   0.551   1.506  0.1236 -0.0120  0.5043
 8911TIP3    H148148   1.370   0.488   1.534  1.1332  1.1183  0.6973
 8911TIP3    H248149   1.257   0.575   1.586 -0.3424 -0.5640  0.4139
 8912TIP3   OH248150   0.668   1.853  16.810  0.3899 -0.0965 -0.2835
 8912TIP3    H148151   0.674   1.758  16.821  0.3233  0.0233  0.9199
 8912TIP3    H248152   0.595   1.879  16.867 -0.2807  0.5565 -1.4099
 8913TIP3   OH248153   4.205   6.344   6.433 -0.1327 -0.2944 -0.2018
 8913TIP3    H148154   4.111   6.351   6.452  0.0164  0.2518  0.3570
 8913TIP3    H248155   4.227   6.426   6.389  0.5603  0.6619  1.7977
 8914TIP3   OH248156   2.696   1.372   3.162 -0.8458 -0.2109 -0.2749
 8914TIP3    H148157   2.731   1.420   3.238 -1.3030 -0.9250  0.4059
 8914TIP3    H248158   2.768   1.373   3.098  0.1822 -1.0330  0.8154
 8915TIP3   OH248159   1.228   1.520   2.416  0.0530 -0.3207 -0.6949
 8915TIP3    H148160   1.265   1.476   2.339 -0.3726  0.1509 -1.1707
 8915TIP3    H248161   1.297   1.580   2.444 -0.1707  0.2340 -1.3136
 8916TIP3   OH248162   4.779   1.791  14.589 -0.0501 -0.1454 -0.1335
 8916TIP3    H148163   4.781   1.879  14.550  0.5459 -0.5192 -0.9783
 8916TIP3    H248164   4.731   1.738  14.526  0.3307 -0.6132 -0.0315
 8917TIP3   OH248165   3.255   5.240  16.470 -0.1226 -0.6334  0.3160
 8917TIP3    H148166   3.221   5.264  16.383 -2.6578  0.2255  1.4524
 8917TIP3    H248167   3.177   5.221  16.522  1.2064  0.4944  2.8854
 8918TIP3   OH248168   0.303   2.349  13.548  0.0924  0.0954  0.0032
 8918TIP3    H148169   0.333   2.330  13.459  0.8856  1.7100 -0.1297
 8918TIP3    H248170   0.252   2.430  13.539 -0.3628 -0.0793  0.9220
 8919TIP3   OH248171   6.330   1.442   6.179  0.0888 -0.2722  0.0371
 8919TIP3    H148172   6.345   1.349   6.191  2.8647  0.2324  1.1667
 8919TIP3    H248173   6.406   1.473   6.131 -0.4672  1.5272  0.2419
 8920TIP3   OH248174   5.246   4.302  13.240 -0.4973 -0.4121  0.2630
 8920TIP3    H148175   5.339   4.322  13.235 -0.7846  0.6824 -1.5197
 8920TIP3    H248176   5.243   4.207  13.257  0.9064 -0.3683  0.8993
 8921TIP3   OH248177   0.685   5.682   5.180 -0.4139 -0.2393 -0.0682
 8921TIP3    H148178   0.599   5.684   5.137 -0.9861 -0.2106  1.0399
 8921TIP3    H248179   0.688   5.596   5.222  0.4891 -0.6009 -0.8473
 8922TIP3   OH248180   4.901   1.065   2.541  0.0726  0.2862  0.4298
 8922TIP3    H148181   4.901   1.063   2.445 -1.1629 -0.6356  0.4311
 8922TIP3    H248182   4.915   1.157   2.562  3.0256  0.1818 -0.5631
 8923TIP3   OH248183   6.544   2.737  16.437 -0.1179 -0.2437 -0.7819
 8923TIP3    H148184   6.454   2.753  16.464  0.5031  1.3237  0.5648
 8923TIP3    H248185   6.562   2.806  16.373  1.1313  1.7313  1.5366
 8924TIP3   OH248186   4.437   5.049   5.762 -0.0102 -0.4266 -0.4462
 8924TIP3    H148187   4.476   5.049   5.674 -0.0587  1.3514 -0.5129
 8924TIP3    H248188   4.343   5.052   5.747  0.0014  0.9188 -0.3795
 8925TIP3   OH248189   2.681   1.249  12.324  0.1521  0.1200 -0.0190
 8925TIP3    H148190   2.623   1.221  12.253  1.7837 -0.6981 -1.0609
 8925TIP3    H248191   2.743   1.309  12.282 -0.3763  1.6457  1.2503
 8926TIP3   OH248192   4.093   6.334   0.081  0.3656 -0.2306  0.2408
 8926TIP3    H148193   4.188   6.327   0.092  0.2845 -0.8275  0.6440
 8926TIP3    H248194   4.082   6.389   0.003  1.0598 -1.3462 -0.6831
 8927TIP3   OH248195   4.734   2.617   3.613 -0.2924 -0.3737 -0.1721
 8927TIP3    H148196   4.816   2.569   3.621 -0.4248 -0.8636 -1.4997
 8927TIP3    H248197   4.693   2.581   3.535 -1.8074 -0.1794  0.4980
 8928TIP3   OH248198   3.126   5.942   1.442  0.1788  0.2359  0.3166
 8928TIP3    H148199   3.195   5.937   1.508 -1.3581  2.7666  2.2697
 8928TIP3    H248200   3.147   6.020   1.392 -0.6799  0.4086  0.2233
 8929TIP3   OH248201   6.626   4.572  12.296 -0.5024 -0.1183 -0.2830
 8929TIP3    H148202   6.664   4.659  12.285 -1.0036  0.0881 -0.4314
 8929TIP3    H248203   6.700   4.515  12.317 -0.4511  0.8120  2.5676
 8930TIP3   OH248204   4.008   1.860  17.153 -1.2312 -0.4525 -0.3218
 8930TIP3    H148205   3.931   1.893  17.199 -0.8624  0.2903 -0.2287
 8930TIP3    H248206   3.983   1.771  17.126 -2.7287  0.3245 -1.6884
 8931TIP3   OH248207   4.609   2.711   2.498  0.1365 -0.0491  0.0917
 8931TIP3    H148208   4.602   2.803   2.474  0.3117 -0.3281 -1.0708
 8931TIP3    H248209   4.697   2.703   2.535  0.8277 -0.0945 -1.4818
 8932TIP3   OH248210   4.562   4.772   2.670  0.6820  0.1917 -0.2211
 8932TIP3    H148211   4.516   4.827   2.733  0.0038 -0.2530 -0.3167
 8932TIP3    H248212   4.527   4.684   2.685  1.2717 -0.0997 -0.5133
 8933TIP3   OH248213   4.440   4.903   0.510 -0.4553 -0.5451 -0.3604
 8933TIP3    H148214   4.412   4.818   0.476  1.5561 -0.7554 -1.6588
 8933TIP3    H248215   4.495   4.940   0.440  0.9270  0.6125  1.2650
 8934TIP3   OH248216   0.279   3.943  13.600 -0.1790 -0.0051  0.3619
 8934TIP3    H148217   0.226   3.871  13.634  1.6794 -1.7081 -0.1465
 8934TIP3    H248218   0.329   3.973  13.675  1.8909 -1.9281 -0.1270
 8935TIP3   OH248219   6.348   4.670   3.491 -0.3708 -0.7968  0.4966
 8935TIP3    H148220   6.416   4.680   3.558 -1.1042 -0.7694  1.2505
 8935TIP3    H248221   6.374   4.730   3.421 -0.3275  0.2165  1.3617
 8936TIP3   OH248222   4.853   6.415  14.459  0.0311  0.4751  0.4450
 8936TIP3    H148223   4.766   6.402  14.421  0.1133 -0.5777  0.5643
 8936TIP3    H248224   4.886   6.326  14.471  1.3863  0.8767 -0.1936
 8937TIP3   OH248225   6.433   2.647   4.998  0.1382  0.6115  0.1070
 8937TIP3    H148226   6.386   2.658   4.916 -0.7482 -2.5920  0.0574
 8937TIP3    H248227   6.427   2.732   5.042  0.0370  2.1943 -2.7713
 8938TIP3   OH248228   4.145   3.557  16.689  0.0127  0.4356  0.3535
 8938TIP3    H148229   4.075   3.493  16.696  0.4061  0.0073  0.4658
 8938TIP3    H248230   4.162   3.584  16.780 -1.4435  2.1514  0.1761
 8939TIP3   OH248231   4.016   4.668  13.336 -0.2573  0.6909  0.4939
 8939TIP3    H148232   4.096   4.671  13.284  0.0592  0.9097  0.9939
 8939TIP3    H248233   3.984   4.758  13.337 -2.0364  0.1935 -2.0355
 8940TIP3   OH248234   5.689   1.376   2.809 -0.8479  0.3186  0.6582
 8940TIP3    H148235   5.754   1.446   2.811 -0.3435 -0.1556  1.7187
 8940TIP3    H248236   5.642   1.389   2.727 -0.1762  1.3619  0.4221
 8941TIP3   OH248237   6.038   3.941  13.529 -0.1992 -0.7807 -0.1434
 8941TIP3    H148238   6.095   3.952  13.453 -0.6745  1.4848 -0.2398
 8941TIP3    H248239   6.097   3.921  13.601  0.7414  1.0665 -0.3351
 8942TIP3   OH248240   6.771   5.187   0.929  0.4133 -0.3986 -0.2871
 8942TIP3    H148241   6.862   5.210   0.945  0.4827 -0.3873 -0.6917
 8942TIP3    H248242   6.755   5.110   0.985  1.1096 -1.3333 -1.3432
 8943TIP3   OH248243   0.637   2.319  12.082 -0.1070 -0.3024  0.0420
 8943TIP3    H148244   0.621   2.317  12.176 -0.2995 -3.2117  0.0400
 8943TIP3    H248245   0.700   2.390  12.070 -0.5548  0.5477  2.2455
 8944TIP3   OH248246   0.419   0.614   4.489  0.2935  0.3178  0.4257
 8944TIP3    H148247   0.376   0.533   4.460 -0.2848  0.2719  1.3711
 8944TIP3    H248248   0.416   0.610   4.584  1.2126  0.9636  0.4985
 8945TIP3   OH248249   0.429   2.800   3.593 -0.6928 -0.1045  0.4859
 8945TIP3    H148250   0.399   2.813   3.683  0.2971 -1.8286  1.1090
 8945TIP3    H248251   0.391   2.717   3.567 -1.1792  0.5034 -0.8152
 8946TIP3   OH248252   4.111   3.766   0.672  0.1009  0.4884 -0.1671
 8946TIP3    H148253   4.137   3.777   0.581 -1.4097 -0.8506 -0.7912
 8946TIP3    H248254   4.091   3.673   0.681  0.8371  0.4472  1.7221
 8947TIP3   OH248255   1.757   4.501  12.599 -0.4939 -0.4849 -0.3280
 8947TIP3    H148256   1.666   4.530  12.597 -0.8224 -1.4688 -1.2672
 8947TIP3    H248257   1.752   4.407  12.581  0.6923 -0.5981 -0.1475
 8948TIP3   OH248258   1.166   4.069   6.297 -0.0093 -0.4148  0.4340
 8948TIP3    H148259   1.079   4.074   6.255  0.0589 -0.3122  0.3057
 8948TIP3    H248260   1.197   4.159   6.299 -0.7764 -0.1383  2.3447
 8949TIP3   OH248261   5.313   5.682  12.299  0.0747  0.6077  0.0719
 8949TIP3    H148262   5.302   5.591  12.325 -0.6494  0.0270 -2.0994
 8949TIP3    H248263   5.407   5.698  12.309  0.0422  0.0487  1.6435
 8950TIP3   OH248264   2.757   3.630  11.161  0.2129  0.3837 -0.3705
 8950TIP3    H148265   2.672   3.670  11.184  0.2381 -0.9231  2.3490
 8950TIP3    H248266   2.739   3.536  11.156  1.0040  0.2844 -2.5775
 8951TIP3   OH248267   4.988   4.246  11.941 -0.5000 -0.2856  0.2235
 8951TIP3    H148268   5.079   4.219  11.949 -0.0828  0.7692 -0.7519
 8951TIP3    H248269   4.987   4.310  11.870 -1.8803  0.2715  0.6962
 8952TIP3   OH248270   1.283   5.420   0.700  0.3427 -0.5237 -0.3120
 8952TIP3    H148271   1.350   5.366   0.742 -0.0012 -0.6839  0.0443
 8952TIP3    H248272   1.276   5.386   0.611  0.7595 -0.4824 -0.3601
 8953TIP3   OH248273   5.001   6.317  13.744  0.0159 -0.1774 -0.3895
 8953TIP3    H148274   5.012   6.274  13.658 -0.1149  1.9242 -1.5187
 8953TIP3    H248275   4.966   6.248  13.800  1.3752 -2.0117 -1.6399
 8954TIP3   OH248276   0.902   4.108   6.563  0.1557 -0.3020  0.0698
 8954TIP3    H148277   0.855   4.033   6.526 -1.2287  1.1415 -1.2772
 8954TIP3    H248278   0.994   4.081   6.564 -0.0794 -1.4288 -1.9866
 8955TIP3   OH248279   0.467   3.482  15.576  0.1229 -0.0649 -0.5872
 8955TIP3    H148280   0.528   3.469  15.503  0.3587  0.9341 -0.5880
 8955TIP3    H248281   0.382   3.499  15.534 -0.0114 -0.7567 -0.5995
 8956TIP3   OH248282   5.159   6.435   4.303 -0.4637  0.2532  0.2462
 8956TIP3    H148283   5.065   6.439   4.321 -0.5089  1.1270 -0.1321
 8956TIP3    H248284   5.188   6.356   4.348 -1.4522 -0.2631  0.0078
 8957TIP3   OH248285   3.255   5.415   5.260  0.5186 -0.0943 -0.6480
 8957TIP3    H148286   3.218   5.426   5.347  2.3816 -1.5288  0.4028
 8957TIP3    H248287   3.210   5.339   5.224  0.5313 -0.1850 -0.4733
 8958TIP3   OH248288   1.704   5.015   4.053 -0.2244 -0.1686  0.2859
 8958TIP3    H148289   1.767   5.070   4.099  1.9796 -0.8744 -1.6713
 8958TIP3    H248290   1.744   4.928   4.053 -0.9685 -0.5546 -1.3793
 8959TIP3   OH248291   1.096   6.182   5.228  0.4018  0.0922  1.4231
 8959TIP3    H148292   1.080   6.128   5.151  0.0584 -1.2706  2.4067
 8959TIP3    H248293   1.096   6.272   5.195  0.2948 -0.4560 -0.1514
 8960TIP3   OH248294   3.524   0.597  15.102 -0.2239 -0.1384  0.7434
 8960TIP3    H148295   3.558   0.679  15.067  1.0517 -0.8249  0.2768
 8960TIP3    H248296   3.456   0.623  15.164 -0.4231  1.2215 -0.0077
 8961TIP3   OH248297   6.037   0.911   0.746 -0.6226 -0.0263 -0.3462
 8961TIP3    H148298   6.091   0.833   0.760  1.1183  0.6833 -2.4544
 8961TIP3    H248299   5.950   0.876   0.727 -0.7232 -1.2638  1.9834
 8962TIP3   OH248300   5.672   4.572   0.412 -0.6556 -0.4671 -0.2452
 8962TIP3    H148301   5.711   4.488   0.388  1.0936  0.0041  0.7505
 8962TIP3    H248302   5.619   4.553   0.489  1.9772 -0.2863  1.7624
 8963TIP3   OH248303   0.994   1.666  13.949  0.4237 -0.2595  0.0253
 8963TIP3    H148304   0.902   1.673  13.973  0.2729 -0.4314 -0.4815
 8963TIP3    H248305   1.027   1.756  13.953  0.5088 -0.3400  1.2501
 8964TIP3   OH248306   6.258   3.687   6.522  0.2109  0.4983 -0.2313
 8964TIP3    H148307   6.304   3.768   6.500 -1.3479  1.0541 -1.6327
 8964TIP3    H248308   6.185   3.683   6.460 -0.1016 -1.6859  0.1911
 8965TIP3   OH248309   0.837   4.313  13.299  0.0382 -1.0085  0.4258
 8965TIP3    H148310   0.885   4.267  13.230  2.5419  0.5655  0.9865
 8965TIP3    H248311   0.794   4.243  13.349 -0.6419 -2.2867 -1.8011
 8966TIP3   OH248312   0.339   4.784   2.502 -0.0048  0.7756  0.6354
 8966TIP3    H148313   0.250   4.754   2.520  0.4569 -0.1495  1.5282
 8966TIP3    H248314   0.392   4.705   2.504  0.7720  1.2484 -0.4035
 8967TIP3   OH248315   1.284   1.191   1.730  0.2620  0.3316  0.1071
 8967TIP3    H148316   1.372   1.212   1.699 -0.0202  0.1562 -0.8402
 8967TIP3    H248317   1.246   1.138   1.660 -0.0364 -0.9572  1.1943
 8968TIP3   OH248318   0.899   0.304  11.304 -0.4167 -0.2375  0.3894
 8968TIP3    H148319   0.917   0.306  11.398  1.3177 -0.0294  0.0798
 8968TIP3    H248320   0.965   0.361  11.265 -0.8282 -0.6659 -1.0029
 8969TIP3   OH248321   6.574   6.083   2.394  0.3032 -0.5227 -0.1033
 8969TIP3    H148322   6.579   6.177   2.375  0.1653 -0.4935  0.0058
 8969TIP3    H248323   6.662   6.051   2.375  1.2959  0.1735  2.7694
 8970TIP3   OH248324   3.078   4.686   1.543  0.2053 -0.4462 -0.3167
 8970TIP3    H148325   3.117   4.760   1.496  1.5222 -1.2489 -0.5197
 8970TIP3    H248326   3.122   4.609   1.507 -0.2650 -1.2342  0.7716
 8971TIP3   OH248327   5.782   4.181  12.268  0.2546 -0.9394 -0.1251
 8971TIP3    H148328   5.816   4.162  12.355  0.5269 -1.0299 -0.2491
 8971TIP3    H248329   5.732   4.103  12.245  1.4836 -1.5934 -0.6873
 8972TIP3   OH248330   3.663   2.490  14.135 -0.0487 -0.2123 -0.4525
 8972TIP3    H148331   3.712   2.416  14.171  2.8616  0.9928 -1.5727
 8972TIP3    H248332   3.731   2.551  14.105 -2.2440  1.0232 -3.4165
 8973TIP3   OH248333   2.420   4.957   4.104 -0.3494  0.6609  0.3611
 8973TIP3    H148334   2.383   4.879   4.063  1.2892  0.3720 -0.6806
 8973TIP3    H248335   2.363   5.029   4.077 -0.2639  0.2133 -1.0697
 8974TIP3   OH248336   4.427   4.329   0.111  0.2689 -0.4131 -0.3504
 8974TIP3    H148337   4.500   4.362   0.060 -0.1249  0.3541 -0.4277
 8974TIP3    H248338   4.439   4.367   0.198 -0.7168  0.7448 -0.6987
 8975TIP3   OH248339   4.646   0.321   6.009  0.0285  0.9372  0.0885
 8975TIP3    H148340   4.666   0.308   6.101 -0.9466  0.9692  0.3158
 8975TIP3    H248341   4.709   0.266   5.963  0.8665  1.3269  0.7414
 8976TIP3   OH248342   1.354   1.314  16.212  0.3363 -0.1465  0.2063
 8976TIP3    H148343   1.393   1.369  16.280 -1.4328  0.4324  0.7829
 8976TIP3    H248344   1.412   1.325  16.137  2.6851 -1.2515  1.7147
 8977TIP3   OH248345   6.409   2.414   2.690  0.1433  0.1152 -0.1269
 8977TIP3    H148346   6.425   2.408   2.785  0.7899  0.4444 -0.2095
 8977TIP3    H248347   6.443   2.332   2.655 -0.4696 -0.1882 -0.0345
 8978TIP3   OH248348   5.804   0.395   5.326 -0.2388 -0.3513  0.2694
 8978TIP3    H148349   5.843   0.309   5.339 -1.0303 -0.9877 -1.2144
 8978TIP3    H248350   5.865   0.457   5.366  0.6434 -1.5530  0.8164
 8979TIP3   OH248351   2.446   4.477  17.240 -0.3776  0.7248  0.0679
 8979TIP3    H148352   2.433   4.432  17.156  1.9036 -0.7426  0.4214
 8979TIP3    H248353   2.383   4.549  17.238 -0.8140  0.3899 -2.6441
 8980TIP3   OH248354   4.622   1.747  10.764  0.4612  0.4433 -0.3980
 8980TIP3    H148355   4.671   1.707  10.836  1.3383 -0.7584 -1.6095
 8980TIP3    H248356   4.683   1.745  10.690 -1.2539 -0.7012 -1.8562
 8981TIP3   OH248357   0.156   5.689   6.496 -0.3039  0.0838 -0.0403
 8981TIP3    H148358   0.242   5.648   6.489  0.3603  0.8622  2.6573
 8981TIP3    H248359   0.159   5.761   6.432 -0.0899 -1.6223 -2.0551
 8982TIP3   OH248360   3.339   1.089   4.404  0.1342 -0.5869 -0.5437
 8982TIP3    H148361   3.369   1.159   4.347 -0.0902  0.0503  0.1005
 8982TIP3    H248362   3.419   1.045   4.432  0.6865  1.6669  1.8968
 8983TIP3   OH248363   5.811   0.334   1.434 -0.5543  0.4897 -0.0719
 8983TIP3    H148364   5.722   0.367   1.449 -0.9882 -0.2667 -0.8735
 8983TIP3    H248365   5.867   0.391   1.487 -1.3392  2.0567 -0.8558
 8984TIP3   OH248366   2.352   4.130  16.649 -0.1240 -0.3693  0.1848
 8984TIP3    H148367   2.312   4.198  16.595  1.6295  1.0777  0.6151
 8984TIP3    H248368   2.446   4.145  16.641  0.2512 -1.4369  1.9575
 8985TIP3   OH248369   2.744   2.560  11.966  0.2660  0.1037 -0.2410
 8985TIP3    H148370   2.725   2.633  11.907 -0.6543  0.4224  0.4221
 8985TIP3    H248371   2.788   2.495  11.911 -1.1028  0.1401 -1.4222
 8986TIP3   OH248372   4.136   6.053   5.034 -0.4766  0.0289  0.7999
 8986TIP3    H148373   4.139   5.977   4.975  0.0860 -1.2122  2.3773
 8986TIP3    H248374   4.059   6.102   5.004 -0.3631 -0.6928 -0.7914
 8987TIP3   OH248375   5.349   1.641   5.117  0.3688  0.0813 -0.0462
 8987TIP3    H148376   5.370   1.685   5.200 -1.5336  1.4596 -0.2242
 8987TIP3    H248377   5.332   1.550   5.142 -0.1451  0.4695  1.0892
 8988TIP3   OH248378   0.691   4.471   4.092  0.3340  0.7359 -0.3321
 8988TIP3    H148379   0.623   4.451   4.027 -0.2669  1.2759  0.1178
 8988TIP3    H248380   0.759   4.517   4.042  1.3075 -1.5023 -1.1901
 8989TIP3   OH248381   0.964   3.224  16.720  0.0002 -0.1207 -0.5049
 8989TIP3    H148382   0.983   3.279  16.796 -0.7948  0.0354 -0.4028
 8989TIP3    H248383   1.042   3.230  16.665  0.2085  0.5209 -0.1435
 8990TIP3   OH248384   0.896   3.718  10.687  0.1712 -0.3890 -0.0992
 8990TIP3    H148385   0.824   3.690  10.630 -1.8106  2.7096  0.6693
 8990TIP3    H248386   0.854   3.742  10.769  2.3318 -0.0017  0.9706
 8991TIP3   OH248387   0.674   2.156   5.220 -0.3955  0.1688  0.8921
 8991TIP3    H148388   0.662   2.224   5.287 -0.7273  0.6632  0.3442
 8991TIP3    H248389   0.768   2.144   5.214 -0.3286  0.6551  0.9264
 8992TIP3   OH248390   2.672   2.157   1.010 -0.0353 -0.0134  0.4062
 8992TIP3    H148391   2.654   2.102   0.934  0.2289  1.1771 -0.5517
 8992TIP3    H248392   2.607   2.131   1.075  0.5536 -1.9447  0.2714
 8993TIP3   OH248393   2.822   0.082  16.833  0.1748  0.8021 -0.2215
 8993TIP3    H148394   2.875   0.016  16.788 -0.0647  0.0091  0.6311
 8993TIP3    H248395   2.797   0.144  16.764  0.2365 -0.1060 -1.0809
 8994TIP3   OH248396   3.384   0.057   5.035 -0.0922  0.9530 -0.1415
 8994TIP3    H148397   3.360   0.085   5.124  0.0025  3.9983 -0.9758
 8994TIP3    H248398   3.479   0.047   5.038 -0.0042  1.7608 -0.0654
 8995TIP3   OH248399   6.187   5.533   5.582  0.3808 -0.1233 -0.2399
 8995TIP3    H148400   6.103   5.490   5.568  0.1121  0.0115  0.8935
 8995TIP3    H248401   6.210   5.515   5.673  0.4720  1.7159  0.1473
 8996TIP3   OH248402   2.413   6.181   3.600  0.0581 -0.1591  0.0640
 8996TIP3    H148403   2.360   6.140   3.667  1.1179  1.7042  2.1786
 8996TIP3    H248404   2.361   6.256   3.570  0.3169  0.0252  0.0734
 8997TIP3   OH248405   5.887   0.204  16.253  0.4621 -0.1101  0.2445
 8997TIP3    H148406   5.893   0.132  16.315  0.2987 -0.0938  0.2816
 8997TIP3    H248407   5.930   0.171  16.174  1.1745  0.0820  0.5525
 8998TIP3   OH248408   3.431   2.335  14.204 -0.4808  0.1749 -0.2973
 8998TIP3    H148409   3.472   2.390  14.137  0.4491 -1.1251 -0.8461
 8998TIP3    H248410   3.460   2.372  14.287 -1.5068  1.7072 -0.5713
 8999TIP3   OH248411   1.278   1.751   2.223  0.0901  0.5204 -0.1438
 8999TIP3    H148412   1.290   1.669   2.175  1.1516 -0.4703  1.6602
 8999TIP3    H248413   1.363   1.796   2.214  1.1659 -0.7604  2.5754
 9000TIP3   OH248414   4.769   1.598  11.790  0.5989 -0.2545  0.3721
 9000TIP3    H148415   4.744   1.689  11.771 -0.4034 -0.2529  1.5757
 9000TIP3    H248416   4.773   1.556  11.704 -2.8535 -0.0361 -0.0469
 9001TIP3   OH248417   1.776   1.541   2.059  0.2092  0.5396  0.2374
 9001TIP3    H148418   1.821   1.459   2.079  0.0564  1.0437  2.9831
 9001TIP3    H248419   1.741   1.528   1.971  0.3966 -2.2337  0.4916
 9002TIP3   OH248420   2.130   0.032  12.035  0.4240 -0.4205  0.6464
 9002TIP3    H148421   2.195  -0.027  11.998  0.0886 -2.1550  2.6681
 9002TIP3    H248422   2.053   0.020  11.979  0.8810 -0.5884  0.0295
 9003TIP3   OH248423   2.825   4.630   3.358 -0.1440  0.4025  0.2784
 9003TIP3    H148424   2.848   4.717   3.326  0.2902 -0.2134 -1.1933
 9003TIP3    H248425   2.873   4.621   3.440 -1.0448  1.9349  1.0172
 9004TIP3   OH248426   3.009   2.282  11.887 -1.0419  0.0064 -0.1098
 9004TIP3    H148427   3.004   2.326  11.972 -2.7895  0.0016 -0.1892
 9004TIP3    H248428   2.935   2.316  11.837 -1.6541 -2.0217 -0.6568
 9005TIP3   OH248429   0.454   4.889   3.661  0.5696 -0.3321  0.2768
 9005TIP3    H148430   0.383   4.826   3.649 -0.0923  0.6225 -0.9588
 9005TIP3    H248431   0.416   4.958   3.716  0.8124 -0.2264  0.3150
 9006TIP3   OH248432   0.160   5.937   5.897  0.1416 -0.1943  0.3536
 9006TIP3    H148433   0.069   5.910   5.902 -0.5528  2.0428  1.1362
 9006TIP3    H248434   0.177   5.980   5.981  1.1256  1.6029 -0.6874
 9007TIP3   OH248435   3.331   1.159   2.850  0.4220 -0.0151 -0.0338
 9007TIP3    H148436   3.247   1.128   2.816 -1.0976  2.0677  1.5366
 9007TIP3    H248437   3.325   1.144   2.945  0.1551  3.4428  0.6358
 9008TIP3   OH248438   0.003   1.581  10.657  0.1302  0.1051 -0.1934
 9008TIP3    H148439   0.035   1.636  10.728 -0.3541  1.8419 -1.2801
 9008TIP3    H248440   0.080   1.566  10.602  0.2786 -0.4077  0.1400
 9009TIP3   OH248441   0.602   5.047   6.078  0.4346  0.2081  0.2511
 9009TIP3    H148442   0.640   5.133   6.060 -1.7582  0.5008 -4.3683
 9009TIP3    H248443   0.522   5.065   6.128  2.0594  0.2488  3.0933
 9010TIP3   OH248444   1.418   5.497   6.330 -0.2366  0.2908  0.2376
 9010TIP3    H148445   1.345   5.550   6.363 -0.0202 -0.3696  1.8801
 9010TIP3    H248446   1.489   5.560   6.318 -0.4794  0.6382  0.5587
 9011TIP3   OH248447   6.754   3.269   0.695 -0.3042 -0.0367 -0.1379
 9011TIP3    H148448   6.784   3.198   0.753 -0.4798 -1.7113 -2.0106
 9011TIP3    H248449   6.764   3.348   0.748  1.9611 -1.1726  1.3243
 9012TIP3   OH248450   1.324   3.039   5.062 -0.1829  0.0283  0.1530
 9012TIP3    H148451   1.263   2.965   5.056  0.1909 -0.2171 -1.0443
 9012TIP3    H248452   1.399   3.004   5.109 -0.1200 -0.2784 -0.1734
 9013TIP3   OH248453   4.717   3.610  17.291 -0.1586 -0.5001 -0.2348
 9013TIP3    H148454   4.653   3.587  17.358 -0.8802  0.0432 -0.7221
 9013TIP3    H248455   4.671   3.670  17.233  0.9638  0.3692 -0.2730
 9014TIP3   OH248456   2.734   0.912   2.198  0.5250 -0.2813 -0.1052
 9014TIP3    H148457   2.769   0.830   2.163 -0.8104 -1.3012  0.8832
 9014TIP3    H248458   2.775   0.980   2.143  0.1755 -1.6800 -2.2235
 9015TIP3   OH248459   2.774   5.159  16.282  0.2381 -0.1204 -0.7339
 9015TIP3    H148460   2.853   5.108  16.298  0.1776  0.2966  1.1985
 9015TIP3    H248461   2.799   5.223  16.216  1.0653 -0.9542 -1.2497
 9016TIP3   OH248462   3.611   0.714  14.243 -0.7377  0.0215  0.7602
 9016TIP3    H148463   3.603   0.777  14.315  1.1347  1.1711  0.0476
 9016TIP3    H248464   3.586   0.763  14.165  0.6428 -0.1130  0.2079
 9017TIP3   OH248465   5.913   2.511   2.003 -0.5060 -0.1754  0.3198
 9017TIP3    H148466   5.941   2.552   1.921  0.8310  1.4166  1.5056
 9017TIP3    H248467   5.818   2.501   1.993 -0.2790 -0.8716 -1.7488
 9018TIP3   OH248468   1.044   2.471   4.770  0.2582  0.3268  0.3211
 9018TIP3    H148469   0.959   2.488   4.730  0.4572 -0.1966 -0.3533
 9018TIP3    H248470   1.101   2.540   4.737  0.9304 -1.1966 -1.9800
 9019TIP3   OH248471   5.963   4.097   0.504  0.0853  0.1201  0.6121
 9019TIP3    H148472   5.960   4.039   0.581 -0.5445 -0.8654 -0.1390
 9019TIP3    H248473   5.928   4.180   0.535 -0.3035 -0.3123  1.3597
 9020TIP3   OH248474   4.555   0.923  17.137 -0.4705 -0.0062  0.3707
 9020TIP3    H148475   4.585   0.876  17.215  1.7643 -0.5700 -0.7463
 9020TIP3    H248476   4.618   0.994  17.127 -2.0628  1.4532  0.3135
 9021TIP3   OH248477   2.691   0.454   0.509 -0.1756  0.5748  0.0460
 9021TIP3    H148478   2.647   0.386   0.559  0.5113  0.4146  0.4432
 9021TIP3    H248479   2.765   0.410   0.467  0.0335  0.9858 -0.0245
 9022TIP3   OH248480   5.482   4.568  14.864 -0.0438  0.1504  0.0372
 9022TIP3    H148481   5.481   4.652  14.818 -0.8900 -0.4184 -1.0550
 9022TIP3    H248482   5.559   4.522  14.829 -0.6501 -0.2559 -0.8236
 9023TIP3   OH248483   4.913   2.598  12.475 -0.2423 -0.5461  0.4798
 9023TIP3    H148484   4.940   2.583  12.566 -0.6669  0.3753  0.7647
 9023TIP3    H248485   4.922   2.692  12.462  0.4867 -0.7516 -0.6672
 9024TIP3   OH248486   2.882   4.237   2.476 -0.3360 -0.3180  0.2777
 9024TIP3    H148487   2.811   4.194   2.429  0.6459 -0.9006 -0.7377
 9024TIP3    H248488   2.947   4.168   2.489  0.5220  0.4475  0.1713
 9025TIP3   OH248489   2.433   3.918   0.716 -0.0030  0.2117 -0.5957
 9025TIP3    H148490   2.376   3.995   0.715 -1.0384 -0.4788  1.0481
 9025TIP3    H248491   2.520   3.953   0.737 -0.8565  0.8072  2.4532
 9026TIP3   OH248492   1.298   6.408  13.133  0.5118  0.0401 -0.2552
 9026TIP3    H148493   1.324   6.483  13.187 -1.1909 -0.7530  1.8003
 9026TIP3    H248494   1.381   6.372  13.101  1.5016  1.3996  0.6490
 9027TIP3   OH248495   0.910   3.946   1.930  0.4296  0.8086  0.0985
 9027TIP3    H148496   0.873   4.027   1.964  1.4719  1.4092 -0.1602
 9027TIP3    H248497   1.004   3.961   1.928  0.5229  0.2268 -1.5780
 9028TIP3   OH248498   0.503   6.348   1.981  0.2369  0.1984 -0.0058
 9028TIP3    H148499   0.498   6.258   1.948  0.3908 -0.0432  0.6251
 9028TIP3    H248500   0.473   6.402   1.907 -3.8423 -0.5924  0.8506
 9029TIP3   OH248501   5.939   3.831  14.651  0.1833  0.2952 -0.4859
 9029TIP3    H148502   5.924   3.782  14.732 -0.6427 -0.2522 -0.9631
 9029TIP3    H248503   6.032   3.816  14.631  0.0611 -0.7025 -0.3756
 9030TIP3   OH248504   5.171   2.345  14.916  0.0458  0.0683  0.5512
 9030TIP3    H148505   5.225   2.404  14.864  1.0047 -0.4358  0.9526
 9030TIP3    H248506   5.116   2.300  14.852 -2.3267  2.8833  0.3631
 9031TIP3   OH248507   2.969   4.718   4.429 -0.3716 -0.0080 -0.6234
 9031TIP3    H148508   2.891   4.774   4.441  0.1583  0.7929 -0.8436
 9031TIP3    H248509   2.966   4.693   4.337  0.6225  1.5706 -1.1236
 9032TIP3   OH248510   0.144   1.273  15.588 -0.2034  0.1230 -0.9441
 9032TIP3    H148511   0.218   1.333  15.577  0.9571 -1.2706 -1.1083
 9032TIP3    H248512   0.068   1.330  15.597  0.6988  1.5965 -2.1171
 9033TIP3   OH248513   5.187   6.191  15.119  0.3017 -0.2835  0.3150
 9033TIP3    H148514   5.252   6.160  15.056  0.4296 -0.2628  0.4359
 9033TIP3    H248515   5.147   6.111  15.153  2.3236 -0.5161  2.4525
 9034TIP3   OH248516   6.025   0.113   4.225  0.4687 -0.4650 -0.1630
 9034TIP3    H148517   6.028   0.033   4.278 -2.0384  0.2212  1.1769
 9034TIP3    H248518   5.939   0.151   4.244  1.1340  1.9811 -1.6217
 9035TIP3   OH248519   5.740   0.712   0.130  0.3776  0.5123 -0.0041
 9035TIP3    H148520   5.780   0.774   0.190  0.7057  0.9061 -0.6196
 9035TIP3    H248521   5.646   0.717   0.148  0.5462 -0.0267  1.0783
 9036TIP3   OH248522   1.626   5.235  12.668 -0.5028  0.3314  0.6756
 9036TIP3    H148523   1.643   5.326  12.694 -0.2302  0.6912 -0.7159
 9036TIP3    H248524   1.609   5.239  12.574  0.9086 -1.2314  0.3055
 9037TIP3   OH248525   2.363   1.717   6.069  0.0882 -0.3376 -0.0425
 9037TIP3    H148526   2.275   1.721   6.107  0.9252 -2.7310  2.4880
 9037TIP3    H248527   2.420   1.695   6.143  2.6047 -0.3742 -1.8835
 9038TIP3   OH248528   4.754   4.339   2.617 -0.4797 -0.0143 -0.1040
 9038TIP3    H148529   4.804   4.420   2.611  0.1083 -0.4655 -2.1166
 9038TIP3    H248530   4.820   4.272   2.636 -1.0373  0.0132  2.1311
 9039TIP3   OH248531   2.051   4.940  12.520 -0.4771 -0.5713  0.2759
 9039TIP3    H148532   2.122   4.877  12.516 -1.3225 -1.5060 -0.6625
 9039TIP3    H248533   1.988   4.902  12.582 -0.1764  0.2493  1.1071
 9040TIP3   OH248534   0.558   4.847  11.307 -0.0184 -0.8842 -0.3814
 9040TIP3    H148535   0.471   4.882  11.324  0.2162 -0.4359 -0.0609
 9040TIP3    H248536   0.592   4.900  11.234  0.4516 -0.2160  0.2992
 9041TIP3   OH248537   0.662   1.737   5.686 -0.2316  0.0819 -0.6445
 9041TIP3    H148538   0.572   1.712   5.706 -0.4853  1.5446  0.2268
 9041TIP3    H248539   0.690   1.788   5.762  1.5546 -0.8440 -0.6383
 9042TIP3   OH248540   0.685   3.791  11.549 -0.5924  0.2729 -0.0210
 9042TIP3    H148541   0.599   3.819  11.580  0.1036  3.1894 -0.4343
 9042TIP3    H248542   0.678   3.791  11.453 -0.9681 -2.6748 -0.0935
 9043TIP3   OH248543   4.216   1.449  13.707  0.7585 -0.4364  0.1566
 9043TIP3    H148544   4.274   1.524  13.697 -1.2104  1.0005 -1.4252
 9043TIP3    H248545   4.143   1.482  13.759  0.6151 -1.7618  0.8351
 9044TIP3   OH248546   5.593   0.683  11.672 -0.1750 -0.2292 -0.1292
 9044TIP3    H148547   5.651   0.658  11.601 -0.3571 -2.7583  0.5255
 9044TIP3    H248548   5.507   0.650  11.646 -1.1805  2.4435 -0.5493
 9045TIP3   OH248549   3.842   5.142  16.427 -0.0237  0.2129  0.3395
 9045TIP3    H148550   3.827   5.048  16.419  0.0560  0.3531 -1.8589
 9045TIP3    H248551   3.936   5.152  16.412 -0.1769  0.7255 -0.2917
 9046TIP3   OH248552   0.129   2.207   1.209 -0.0831  0.1909  0.1579
 9046TIP3    H148553   0.169   2.189   1.294 -1.5439 -0.4851  0.7487
 9046TIP3    H248554   0.040   2.173   1.217 -0.6384  1.1999 -1.2389
 9047TIP3   OH248555   5.621   2.772  15.954  0.4324 -0.0115 -0.1273
 9047TIP3    H148556   5.619   2.705  15.886  0.8382  2.8901 -3.3051
 9047TIP3    H248557   5.544   2.755  16.007 -0.5095 -1.8669 -1.9454
 9048TIP3   OH248558   6.181   4.931  13.594 -0.1414 -0.8615 -0.2088
 9048TIP3    H148559   6.220   4.858  13.546  0.2346 -1.4101  0.8994
 9048TIP3    H248560   6.209   4.918  13.684 -0.1302  0.6200  0.0257
 9049TIP3   OH248561   3.059   3.768   0.997  0.2053 -0.6384  0.2607
 9049TIP3    H148562   2.977   3.775   0.947  0.1187  1.1786  0.6160
 9049TIP3    H248563   3.031   3.767   1.088  0.5030 -1.7213  0.3556
 9050TIP3   OH248564   0.376   0.153  16.924  0.0975 -0.6710 -0.1152
 9050TIP3    H148565   0.415   0.134  16.838  1.3985  0.5432  0.1876
 9050TIP3    H248566   0.312   0.083  16.936  0.7747 -1.5845 -1.5154
 9051TIP3   OH248567   2.013   2.442  11.981 -0.6168 -0.0103 -0.6804
 9051TIP3    H148568   2.056   2.489  12.053  1.1449 -1.3675 -0.7905
 9051TIP3    H248569   2.002   2.508  11.912 -0.7910  0.8941  0.1796
 9052TIP3   OH248570   3.332   5.572   0.466 -0.0518 -0.5417  0.4365
 9052TIP3    H148571   3.277   5.631   0.414  0.4778  0.0645  0.5526
 9052TIP3    H248572   3.270   5.514   0.509 -0.7166  0.9752  1.6075
 9053TIP3   OH248573   1.104   2.628  11.965 -0.2458  0.3356  0.4030
 9053TIP3    H148574   1.108   2.597  11.875 -0.7542 -1.5658  0.9954
 9053TIP3    H248575   1.150   2.712  11.964 -1.8697  1.2921 -2.0019
 9054TIP3   OH248576   0.972   5.480   4.075  0.5731  0.4393 -0.5494
 9054TIP3    H148577   0.961   5.500   4.168 -2.4590  0.7311 -0.8834
 9054TIP3    H248578   0.995   5.565   4.035  1.7474  0.3373 -0.1304
 9055TIP3   OH248579   4.549   2.787  10.603 -0.2021  0.2205 -0.1177
 9055TIP3    H148580   4.633   2.746  10.581  0.8453  1.7730  0.7687
 9055TIP3    H248581   4.565   2.881  10.590 -1.2709  0.6903  1.7183
 9056TIP3   OH248582   0.618   5.342  12.058 -0.2180 -0.1052 -0.1175
 9056TIP3    H148583   0.697   5.289  12.047  0.5816  0.7282  1.3430
 9056TIP3    H248584   0.646   5.431  12.036 -0.4021  0.4061  1.6323
 9057TIP3   OH248585   0.580   2.506  15.525 -0.5415  0.7520 -0.2439
 9057TIP3    H148586   0.506   2.471  15.477  1.3592 -1.8541 -1.4790
 9057TIP3    H248587   0.581   2.457  15.607 -1.1944  2.0869  0.6010
 9058TIP3   OH248588   0.410   3.126  14.776  0.4666 -0.2567  0.2686
 9058TIP3    H148589   0.338   3.104  14.718 -0.3680  0.1086  1.1264
 9058TIP3    H248590   0.457   3.196  14.731  0.1870 -0.3861 -0.2263
 9059TIP3   OH248591   6.338   3.314   4.638 -0.0407 -0.2910  0.2475
 9059TIP3    H148592   6.252   3.273   4.631  0.4324 -1.1141 -1.4756
 9059TIP3    H248593   6.399   3.241   4.652  0.3903  0.2960  1.6426
 9060TIP3   OH248594   2.042   0.984  14.192 -0.2404 -0.5162 -0.1818
 9060TIP3    H148595   1.956   1.015  14.163  0.4024 -0.2217 -1.9225
 9060TIP3    H248596   2.094   0.979  14.112  0.8447 -2.4536  0.5689
 9061TIP3   OH248597   4.327   5.621   2.347  0.0403 -0.0261 -0.2779
 9061TIP3    H148598   4.374   5.661   2.420 -0.6935 -2.5534  1.7046
 9061TIP3    H248599   4.264   5.688   2.320  1.2851  1.5020  0.4057
 9062TIP3   OH248600   3.498   2.401  12.816  0.2411  0.0034  0.3067
 9062TIP3    H148601   3.422   2.369  12.864 -0.2498 -0.1603 -0.5574
 9062TIP3    H248602   3.503   2.345  12.738  2.8676 -1.8048  1.6255
 9063TIP3   OH248603   4.319   6.407   1.172  0.1955 -0.0902  0.1102
 9063TIP3    H148604   4.297   6.348   1.100 -3.4948 -0.7816  1.5964
 9063TIP3    H248605   4.368   6.353   1.234 -1.9616 -1.3579  0.8188
 9064TIP3   OH248606   6.521   5.672  11.294 -0.7183  0.1042  0.1121
 9064TIP3    H148607   6.585   5.630  11.351 -0.0846  0.8632 -0.0175
 9064TIP3    H248608   6.573   5.707  11.221 -1.4087 -0.1097 -0.4890
 9065TIP3   OH248609   0.512   5.520   3.108 -0.0689  0.1905  0.0071
 9065TIP3    H148610   0.548   5.432   3.098 -1.0133 -0.2615  0.4288
 9065TIP3    H248611   0.452   5.530   3.034  0.8671  0.9237 -0.6768
 9066TIP3   OH248612   1.326   0.730   3.107  0.5299  0.2765  0.5031
 9066TIP3    H148613   1.338   0.763   3.018 -0.4469  1.5760  0.8330
 9066TIP3    H248614   1.333   0.807   3.163  1.9560 -0.6230  1.6688
 9067TIP3   OH248615   1.734   6.569   4.934 -0.5631  0.3444  0.1613
 9067TIP3    H148616   1.712   6.477   4.917 -1.3345  0.3166  1.2246
 9067TIP3    H248617   1.740   6.609   4.847  1.4106 -1.0552 -0.4304
 9068TIP3   OH248618   6.568   2.919  14.349 -0.3968 -0.1422  0.1668
 9068TIP3    H148619   6.581   2.988  14.284  1.3031 -0.6162 -0.0622
 9068TIP3    H248620   6.488   2.874  14.321 -1.4899  1.6323  0.2765
 9069TIP3   OH248621   1.337   5.127  14.126  0.3092 -0.1994 -0.1381
 9069TIP3    H148622   1.312   5.209  14.084 -1.3594 -1.1543 -1.1187
 9069TIP3    H248623   1.312   5.138  14.218 -0.5126  0.1493 -0.4006
 9070TIP3   OH248624   2.428   1.181   1.751  0.2300  0.6841 -0.4909
 9070TIP3    H148625   2.405   1.165   1.660 -4.0228  1.0011  0.3509
 9070TIP3    H248626   2.359   1.239   1.784  1.9309  1.0695  2.8123
 9071TIP3   OH248627   0.463   1.185  11.875  0.0766 -0.2049 -0.1908
 9071TIP3    H148628   0.378   1.146  11.856  0.8334 -0.6041 -3.2009
 9071TIP3    H248629   0.467   1.264  11.822  1.6175 -0.2463 -0.1921
 9072TIP3   OH248630   3.169   2.714   4.041 -0.2214  0.3513 -0.9123
 9072TIP3    H148631   3.175   2.721   3.946  0.3203 -0.4120 -0.9443
 9072TIP3    H248632   3.255   2.680   4.068  0.1799  1.9475 -0.0056
 9073TIP3   OH248633   4.490   4.762  16.331 -0.3072 -0.4016 -0.3987
 9073TIP3    H148634   4.501   4.791  16.421  0.2887  0.1919 -0.6575
 9073TIP3    H248635   4.520   4.836  16.278  2.2106 -1.8086 -1.0839
 9074TIP3   OH248636   0.528   1.425  11.765  0.1603  0.3486 -0.0219
 9074TIP3    H148637   0.528   1.509  11.810  1.0616  0.7187 -0.6780
 9074TIP3    H248638   0.493   1.444  11.678 -2.5160 -0.5413  0.7453
 9075TIP3   OH248639   0.940   1.804   2.707 -0.3768  0.3819 -0.0031
 9075TIP3    H148640   0.927   1.774   2.618  2.1237 -1.0302  0.0175
 9075TIP3    H248641   0.952   1.899   2.699 -1.8947  0.5276 -0.8992
 9076TIP3   OH248642   5.791   3.894  14.963 -0.9966 -0.1148  0.4474
 9076TIP3    H148643   5.823   3.974  14.921  0.0404 -0.6049  0.2810
 9076TIP3    H248644   5.731   3.926  15.031 -1.2983  0.7592 -0.2020
 9077TIP3   OH248645   6.299   1.426   3.880 -0.3391 -0.1788  0.1383
 9077TIP3    H148646   6.343   1.496   3.833 -0.9087  1.0163  1.3158
 9077TIP3    H248647   6.214   1.462   3.903 -0.5445 -1.1635  0.9932
 9078TIP3   OH248648   5.413   3.271   3.221 -0.0713 -0.3741  0.5272
 9078TIP3    H148649   5.361   3.194   3.245  1.5419 -1.6388  0.1567
 9078TIP3    H248650   5.454   3.299   3.302  0.9803 -1.2231  0.3149
 9079TIP3   OH248651   5.087   5.052  12.485  0.1621 -0.0169  0.0706
 9079TIP3    H148652   5.093   4.966  12.525 -1.8677  0.5461  1.7926
 9079TIP3    H248653   5.060   5.110  12.557 -0.2167  1.7263 -1.4027
 9080TIP3   OH248654   3.370   3.361   1.828 -0.0808 -0.1540 -0.0338
 9080TIP3    H148655   3.318   3.440   1.840  0.7911  0.2948  0.9962
 9080TIP3    H248656   3.305   3.292   1.812 -0.7906  0.9472 -2.2037
 9081TIP3   OH248657   5.889   1.703   2.424 -0.3538  0.4319  0.2158
 9081TIP3    H148658   5.857   1.789   2.396 -0.0443  0.4524 -0.0757
 9081TIP3    H248659   5.812   1.646   2.417 -0.9175  0.9548  1.6807
 9082TIP3   OH248660   5.771   5.202   5.044 -0.0588  0.2303 -0.2867
 9082TIP3    H148661   5.730   5.284   5.070 -0.7049 -0.5687  1.2940
 9082TIP3    H248662   5.778   5.208   4.949 -1.9480  1.2583 -0.3957
 9083TIP3   OH248663   5.616   1.720   3.717  0.3040  0.1358  0.1458
 9083TIP3    H148664   5.681   1.689   3.781 -0.1001  0.7650  0.8641
 9083TIP3    H248665   5.609   1.648   3.654  1.0186 -0.3169  0.5692
 9084TIP3   OH248666   1.512   1.514   2.531 -0.2508  0.2027 -0.2932
 9084TIP3    H148667   1.578   1.556   2.477  0.7311  0.4582  1.0517
 9084TIP3    H248668   1.554   1.502   2.616 -2.2178  1.3052  0.9407
 9085TIP3   OH248669   1.287   6.623   6.534 -0.3943  0.2709  0.3548
 9085TIP3    H148670   1.214   6.673   6.498 -0.2746 -0.0165 -0.3023
 9085TIP3    H248671   1.361   6.683   6.533 -0.6060  0.5537  0.9959
 9086TIP3   OH248672   0.737   3.089   6.319 -0.0505  0.2916 -0.0799
 9086TIP3    H148673   0.735   3.185   6.314  0.7396  0.4058  1.3722
 9086TIP3    H248674   0.822   3.068   6.356  0.0609 -1.0347 -1.0122
 9087TIP3   OH248675   2.413   4.897   0.980 -0.4036  0.4020  0.2301
 9087TIP3    H148676   2.373   4.821   1.024  0.3625  0.1065  0.4286
 9087TIP3    H248677   2.504   4.897   1.011  0.1398  0.2480 -1.2729
 9088TIP3   OH248678   4.741   1.926   3.336 -0.2029 -0.1405  0.1895
 9088TIP3    H148679   4.672   1.947   3.399  1.4050 -0.3995  2.1595
 9088TIP3    H248680   4.757   1.832   3.348  0.4219 -0.1091 -0.3041
 9089TIP3   OH248681   3.368   4.935   6.247  0.0168 -0.2680  0.3903
 9089TIP3    H148682   3.419   4.880   6.306 -0.3978 -0.2343  0.7860
 9089TIP3    H248683   3.431   4.997   6.211 -0.3837  2.6921  4.1574
 9090TIP3   OH248684   4.026   6.559  15.694 -0.2009 -0.2010 -0.1386
 9090TIP3    H148685   4.102   6.549  15.636 -1.3139 -0.8562 -1.5238
 9090TIP3    H248686   4.019   6.476  15.740 -1.3001 -0.9377 -1.5697
 9091TIP3   OH248687   1.970   0.354  11.468  0.1824  0.1935  0.4458
 9091TIP3    H148688   1.899   0.388  11.415 -1.3912 -2.5628  0.6083
 9091TIP3    H248689   1.965   0.402  11.550 -1.2601  0.3164  0.2977
 9092TIP3   OH248690   6.327   0.798  12.209 -0.2364  0.0135  0.0861
 9092TIP3    H148691   6.395   0.748  12.254  1.6317  0.4792 -2.0152
 9092TIP3    H248692   6.285   0.735  12.151 -1.1943 -0.1123  0.8794
 9093TIP3   OH248693   2.053   3.839  16.938 -0.2824 -0.9902  0.1369
 9093TIP3    H148694   2.054   3.903  16.867 -1.0227 -1.2953 -0.1612
 9093TIP3    H248695   2.145   3.823  16.957 -0.0637 -1.0028 -0.8472
 9094TIP3   OH248696   6.175   2.755   4.270 -0.0729 -0.2535 -0.8645
 9094TIP3    H148697   6.128   2.730   4.349  0.1886  0.9320 -0.3076
 9094TIP3    H248698   6.159   2.684   4.208 -1.3699 -0.5592 -0.1948
 9095TIP3   OH248699   2.226   5.061   4.800 -0.1738  0.4536  0.2582
 9095TIP3    H148700   2.173   4.984   4.779  1.0885 -0.4320  0.2069
 9095TIP3    H248701   2.230   5.110   4.718  1.5776 -1.0486 -0.6384
 9096TIP3   OH248702   2.267   5.512  15.170 -0.3183  0.6895 -0.3849
 9096TIP3    H148703   2.283   5.562  15.090  0.6609 -1.3628 -1.5345
 9096TIP3    H248704   2.173   5.519  15.184 -0.3650  1.8678 -1.1644
 9097TIP3   OH248705   1.608   4.113  11.609  0.0046  0.1750 -0.3448
 9097TIP3    H148706   1.589   4.206  11.608 -1.2852 -0.0400  0.9570
 9097TIP3    H248707   1.561   4.079  11.685 -0.1385 -1.6630 -1.1932
 9098TIP3   OH248708   0.516   2.856   1.939 -0.0442  0.1123  0.1903
 9098TIP3    H148709   0.581   2.821   2.001  0.3084  1.0838  0.3922
 9098TIP3    H248710   0.529   2.805   1.860  0.2863 -0.3818  0.5526
 9099TIP3   OH248711   5.332   3.478   0.414  0.3540  0.1126  0.3045
 9099TIP3    H148712   5.291   3.564   0.407  1.6727  0.8012  0.5926
 9099TIP3    H248713   5.424   3.494   0.392  0.3854 -1.4716 -0.9290
 9100TIP3   OH248714   6.412   2.047  16.611  0.0738  0.4668 -0.7499
 9100TIP3    H148715   6.358   1.971  16.633  0.1600  1.1045  2.1190
 9100TIP3    H248716   6.423   2.042  16.516 -1.3076 -2.1374 -0.8782
 9101TIP3   OH248717   3.577   1.827  13.114 -0.6006  0.3847  0.3052
 9101TIP3    H148718   3.626   1.824  13.032 -1.7056 -0.5929 -0.3374
 9101TIP3    H248719   3.645   1.838  13.182  0.4726 -0.5698 -0.5775
 9102TIP3   OH248720   3.144   1.958   3.093 -0.0195 -0.3149  0.0901
 9102TIP3    H148721   3.083   1.931   3.161 -0.6134  1.7208  0.4259
 9102TIP3    H248722   3.219   1.899   3.104 -1.1550 -1.6767  0.8379
 9103TIP3   OH248723   2.853   4.459   0.210 -0.4330  0.3857 -0.3182
 9103TIP3    H148724   2.941   4.495   0.203 -0.5566  0.4383 -2.5387
 9103TIP3    H248725   2.795   4.529   0.179 -1.3477  0.5163  1.5248
 9104TIP3   OH248726   6.077   2.720  14.828 -0.1973  0.2958 -0.7155
 9104TIP3    H148727   6.044   2.679  14.907  0.0109 -1.0130 -1.2817
 9104TIP3    H248728   6.034   2.806  14.826 -0.0686  0.4293  0.8831
 9105TIP3   OH248729   4.357   4.565   1.356  0.2402 -0.3427 -0.4688
 9105TIP3    H148730   4.393   4.600   1.275  1.9608 -1.4169 -0.1949
 9105TIP3    H248731   4.319   4.642   1.400 -0.3140  0.3218 -2.0383
 9106TIP3   OH248732   0.948   4.085  15.305  0.9229  0.1026 -0.0840
 9106TIP3    H148733   0.868   4.037  15.327 -1.5317  4.3406  1.5664
 9106TIP3    H248734   0.991   4.100  15.390  1.9660  0.2079 -0.6175
 9107TIP3   OH248735   4.250   2.249   4.360  0.1516  0.0217 -0.0258
 9107TIP3    H148736   4.167   2.248   4.409  0.8718  1.5960  1.2944
 9107TIP3    H248737   4.241   2.177   4.298 -1.2085 -1.4696  1.7661
 9108TIP3   OH248738   5.034   5.449   0.346  0.4540 -0.1553  0.9409
 9108TIP3    H148739   4.966   5.463   0.280  0.1171 -0.3196  1.2541
 9108TIP3    H248740   5.096   5.389   0.303  0.3666 -0.0668  0.6861
 9109TIP3   OH248741   3.913   0.607   1.095 -0.3560  0.4158 -0.0178
 9109TIP3    H148742   3.999   0.636   1.125 -1.0622  0.8536  1.6998
 9109TIP3    H248743   3.883   0.676   1.037  1.4679 -0.9141 -2.7324
 9110TIP3   OH248744   6.751   0.391   0.382 -0.2846  0.0876 -0.0058
 9110TIP3    H148745   6.684   0.422   0.322 -1.0395 -0.0453  0.7490
 9110TIP3    H248746   6.801   0.469   0.406  0.0037  0.1474 -0.7601
 9111TIP3   OH248747   5.945   2.241  13.606 -0.3385 -0.4337 -0.0913
 9111TIP3    H148748   5.971   2.241  13.698 -1.6234 -1.6405  0.2946
 9111TIP3    H248749   6.027   2.247  13.558  0.3587  0.1019  1.1159
 9112TIP3   OH248750   5.737   0.426  13.107  0.0777  0.3004 -0.0360
 9112TIP3    H148751   5.805   0.372  13.146  1.2876  0.2703 -2.0587
 9112TIP3    H248752   5.778   0.466  13.031 -2.8723 -2.0679 -3.2323
 9113TIP3   OH248753   3.757   1.786   5.516  0.7218  0.1295  0.6153
 9113TIP3    H148754   3.701   1.747   5.584  0.2642 -0.5121 -0.1248
 9113TIP3    H248755   3.703   1.786   5.437  1.4236  0.4355  0.1243
 9114TIP3   OH248756   1.786   0.690  16.023 -0.2876 -0.0771 -0.4066
 9114TIP3    H148757   1.852   0.658  15.961  0.3718 -0.1625  0.3210
 9114TIP3    H248758   1.762   0.613  16.075  0.0231  0.2315  0.2075
 9115TIP3   OH248759   0.527   1.446  16.626  0.3128  0.0822 -0.2219
 9115TIP3    H148760   0.488   1.379  16.569  0.8284  0.9175 -1.5898
 9115TIP3    H248761   0.454   1.506  16.645  0.8095  1.6264 -2.7555
 9116TIP3   OH248762   2.117   0.699  14.819  0.1435 -1.1139  0.1354
 9116TIP3    H148763   2.036   0.675  14.774  1.7273 -0.7653 -3.2528
 9116TIP3    H248764   2.140   0.785  14.782  1.6481 -0.8243  1.6299
 9117TIP3   OH248765   4.964   5.940  15.683 -0.1438 -0.4682  0.3373
 9117TIP3    H148766   4.883   5.930  15.733  0.0588 -0.7857  0.6056
 9117TIP3    H248767   4.961   5.870  15.619 -0.4096 -0.0531 -0.1105
 9118TIP3   OH248768   4.227   3.957  13.119 -0.1174 -0.2489 -0.1678
 9118TIP3    H148769   4.171   3.991  13.190 -0.1458 -0.5223 -0.0578
 9118TIP3    H248770   4.215   3.862  13.123  0.7669 -0.3552  0.2016
 9119TIP3   OH248771   0.063   5.860   0.922 -0.1148 -0.0742 -0.2242
 9119TIP3    H148772   0.134   5.923   0.924 -1.4048  1.4355  1.0168
 9119TIP3    H248773  -0.017   5.913   0.927 -1.3342 -1.7089 -1.1857
 9120TIP3   OH248774   5.993   3.330   6.216  0.0607  0.1592 -0.1933
 9120TIP3    H148775   5.949   3.314   6.133 -0.6948 -0.7103  0.3550
 9120TIP3    H248776   6.052   3.254   6.227 -0.9845 -0.5422  0.7780
 9121TIP3   OH248777   0.954   4.547   5.484 -0.7010 -0.0910 -0.3119
 9121TIP3    H148778   0.972   4.583   5.570 -0.7784  0.6877 -0.6198
 9121TIP3    H248779   1.040   4.546   5.440 -0.8133  0.3763 -0.5488
 9122TIP3   OH248780   1.463   2.126  17.033  0.1504 -0.1682  0.2270
 9122TIP3    H148781   1.517   2.160  17.105  1.3835 -0.7738 -0.3838
 9122TIP3    H248782   1.523   2.073  16.981 -0.4456  1.0430 -1.8235
 9123TIP3   OH248783   0.709   4.339   1.476  0.5665 -0.4658 -0.2583
 9123TIP3    H148784   0.642   4.326   1.409 -0.2709  0.0446  0.4572
 9123TIP3    H248785   0.756   4.418   1.448 -0.3444  0.2523  0.1852
 9124TIP3   OH248786   0.195   3.456  11.106 -0.0840  0.0331  0.1818
 9124TIP3    H148787   0.131   3.521  11.075 -0.8321 -1.2071 -0.9440
 9124TIP3    H248788   0.181   3.380  11.050  2.1312 -0.4194  0.1717
 9125TIP3   OH248789   4.960   2.837  13.145  0.4383 -0.2811 -0.2875
 9125TIP3    H148790   4.887   2.881  13.101  0.3283 -0.2040 -0.0294
 9125TIP3    H248791   4.918   2.773  13.202  0.2219  3.0355  3.6924
 9126TIP3   OH248792   3.551   6.201   5.300  0.1457 -0.3906  0.5746
 9126TIP3    H148793   3.625   6.171   5.353 -0.9355 -2.5925  0.9558
 9126TIP3    H248794   3.505   6.264   5.355  2.2298  1.8849 -0.0703
 9127TIP3   OH248795   0.059   1.054   4.993 -0.2778 -0.2817 -0.0432
 9127TIP3    H148796   0.049   0.965   5.028  0.8510 -0.2505  0.3841
 9127TIP3    H248797  -0.027   1.094   5.009 -0.8312 -1.3039 -0.3032
 9128TIP3   OH248798   6.292   3.944   6.230  0.2667 -0.6479 -0.2047
 9128TIP3    H148799   6.333   4.029   6.216  0.3025 -0.6616 -0.1823
 9128TIP3    H248800   6.297   3.930   6.324  1.3496 -1.2172 -0.3330
 9129TIP3   OH248801   3.008   2.578   1.841 -0.5646 -0.0613 -0.2081
 9129TIP3    H148802   2.949   2.504   1.852 -0.3852 -0.2477 -0.4800
 9129TIP3    H248803   3.033   2.575   1.748 -0.4842  0.2834 -0.1991
 9130TIP3   OH248804   3.171   6.103   4.085  0.1234 -0.3943  0.1544
 9130TIP3    H148805   3.096   6.162   4.074 -0.1644 -0.8614 -0.4500
 9130TIP3    H248806   3.157   6.062   4.170 -0.0137 -0.0692  0.2913
 9131TIP3   OH248807   5.649   4.684  16.834  0.0404 -0.1486  0.0061
 9131TIP3    H148808   5.596   4.764  16.831  1.1737  0.6383  0.2996
 9131TIP3    H248809   5.585   4.614  16.840 -0.9785  0.8394  1.5965
 9132TIP3   OH248810   0.678   2.319   0.337 -0.2006  0.2226 -0.4312
 9132TIP3    H148811   0.773   2.324   0.338 -0.2414  1.4727 -1.1177
 9132TIP3    H248812   0.651   2.376   0.409 -0.4313 -1.5117  0.9463
 9133TIP3   OH248813   5.943   2.646   1.478 -0.3903  0.1542  0.1457
 9133TIP3    H148814   5.946   2.557   1.443 -0.6149 -0.0789  0.7139
 9133TIP3    H248815   6.024   2.687   1.446  0.1532 -0.5283  0.6151
 9134TIP3   OH248816   1.701   2.642   5.323  0.3366 -0.2366  0.6617
 9134TIP3    H148817   1.704   2.558   5.369  1.3573 -0.7693 -0.3297
 9134TIP3    H248818   1.790   2.676   5.328  0.4151 -0.1780 -0.6515
 9135TIP3   OH248819   4.272   4.232  14.313  0.2399  0.3284  0.3783
 9135TIP3    H148820   4.290   4.173  14.240  0.5334 -1.9049  2.1434
 9135TIP3    H248821   4.358   4.263  14.340  0.2859 -0.1457  0.7843
 9136TIP3   OH248822   0.585   6.203  17.051 -0.5728  0.5604  0.1884
 9136TIP3    H148823   0.625   6.137  16.995 -2.0000  0.0512 -0.2871
 9136TIP3    H248824   0.646   6.212  17.125  0.0265 -0.7357 -0.1104
 9137TIP3   OH248825   4.575   3.449  15.851  0.2618 -0.0355  0.4278
 9137TIP3    H148826   4.505   3.505  15.883  0.3873  0.3656  0.0026
 9137TIP3    H248827   4.539   3.361  15.856 -0.0247  0.1019  0.8632
 9138TIP3   OH248828   0.427   3.803   3.256 -0.2522 -0.2463 -0.1455
 9138TIP3    H148829   0.364   3.780   3.188 -0.3396  0.8674 -0.4630
 9138TIP3    H248830   0.434   3.898   3.250  1.0307 -0.3022  0.2634
 9139TIP3   OH248831   3.589   2.271   6.183  0.2191  0.5130 -0.0370
 9139TIP3    H148832   3.681   2.257   6.205 -0.1589 -0.7031  0.9103
 9139TIP3    H248833   3.541   2.212   6.242 -1.1377  0.7761 -0.8323
 9140TIP3   OH248834   4.572   6.267  15.285 -0.7816 -0.2746 -0.2828
 9140TIP3    H148835   4.477   6.277  15.298 -0.4395  1.4391  1.2116
 9140TIP3    H248836   4.610   6.290  15.369  1.0729  0.8516 -1.3777
 9141TIP3   OH248837   3.152   1.857  13.687 -0.0499  0.1601  0.8410
 9141TIP3    H148838   3.206   1.835  13.611  0.5275 -1.3863  1.6567
 9141TIP3    H248839   3.063   1.835  13.661  0.0244  0.4693  0.3151
 9142TIP3   OH248840   5.551   4.430   2.858  0.6097 -0.1847 -0.5523
 9142TIP3    H148841   5.554   4.392   2.946 -1.8297 -2.1555 -1.1943
 9142TIP3    H248842   5.606   4.373   2.805  0.4860 -0.1871 -0.6795
 9143TIP3   OH248843   1.764   2.130  16.683  0.4350 -0.1623  0.0917
 9143TIP3    H148844   1.715   2.057  16.722 -0.1000 -1.7947 -3.2897
 9143TIP3    H248845   1.702   2.204  16.685 -0.6267 -1.0159 -0.2635
 9144TIP3   OH248846   4.254   1.825   2.999  0.0620  0.6864  0.3365
 9144TIP3    H148847   4.332   1.827   3.055  0.8118 -1.2136 -0.5675
 9144TIP3    H248848   4.279   1.769   2.926 -2.0973  0.2082 -0.0803
 9145TIP3   OH248849   0.812   0.725  12.573 -0.5136  0.1390 -0.3569
 9145TIP3    H148850   0.810   0.753  12.664  1.7417  0.8058 -0.4614
 9145TIP3    H248851   0.773   0.798  12.524 -0.7104  0.2507 -0.0335
 9146TIP3   OH248852   5.272   0.520  12.288  0.0175 -0.2690  0.1228
 9146TIP3    H148853   5.221   0.557  12.216  1.4956  0.5878 -0.5389
 9146TIP3    H248854   5.325   0.451  12.248  0.5299 -0.0843  0.4616
 9147TIP3   OH248855   2.565   3.861   1.676 -0.1031 -0.3509 -0.1700
 9147TIP3    H148856   2.572   3.768   1.651 -1.4972 -0.4259 -0.3568
 9147TIP3    H248857   2.655   3.887   1.694  0.1966 -2.1266  1.2731
 9148TIP3   OH248858   1.033   1.177  11.654  0.3444  0.0379  0.1639
 9148TIP3    H148859   0.952   1.221  11.630  0.6406 -0.1719 -1.3097
 9148TIP3    H248860   1.051   1.207  11.743 -1.3848  0.0096  0.5662
 9149TIP3   OH248861   6.060   1.659   1.649 -0.1029 -0.5462 -0.2311
 9149TIP3    H148862   6.087   1.603   1.722  1.2592 -0.7235 -0.8343
 9149TIP3    H248863   6.000   1.723   1.688 -1.0441 -1.8940  0.6378
 9150TIP3   OH248864   1.503   3.491  14.904  0.6943 -0.2821 -0.4251
 9150TIP3    H148865   1.549   3.457  14.980  2.0287  1.6470 -0.3098
 9150TIP3    H248866   1.428   3.432  14.894  0.8178 -0.9664  1.9747
 9151TIP3   OH248867   0.140   0.798   1.187  0.1972 -0.7882 -0.3005
 9151TIP3    H148868   0.062   0.853   1.190 -0.0727 -1.1999  0.9368
 9151TIP3    H248869   0.189   0.829   1.111 -0.6666  0.1616 -0.4894
 9152TIP3   OH248870   1.771   0.468  13.215 -0.3690 -0.0360  0.8506
 9152TIP3    H148871   1.735   0.435  13.133  1.4584 -0.3346  0.1370
 9152TIP3    H248872   1.789   0.389  13.267 -2.7517  0.1654  2.1859
 9153TIP3   OH248873   6.717   3.142  17.285 -0.3323  0.2631  0.4981
 9153TIP3    H148874   6.654   3.207  17.254 -1.2503 -0.5848  0.5609
 9153TIP3    H248875   6.717   3.152  17.380  0.2643  0.8316  0.4449
 9154TIP3   OH248876   1.857   1.639   4.690  0.1344 -0.1654 -0.3899
 9154TIP3    H148877   1.845   1.724   4.732 -0.7475  0.1216 -1.2096
 9154TIP3    H248878   1.774   1.621   4.646  0.6452 -1.0035 -1.0398
 9155TIP3   OH248879   2.905   2.723  15.610 -0.0672  0.4945  0.4551
 9155TIP3    H148880   2.901   2.700  15.703 -0.1620  0.9726  0.5742
 9155TIP3    H248881   2.907   2.639  15.564  0.9813  0.2525  0.9275
 9156TIP3   OH248882   2.348   4.850  12.390 -0.5520  0.3125  0.6305
 9156TIP3    H148883   2.323   4.868  12.300  2.8441 -0.1905 -0.5697
 9156TIP3    H248884   2.422   4.789  12.383 -0.1117  0.2967  3.7434
 9157TIP3   OH248885   5.188   2.240   3.413  0.2630  0.4142  0.3866
 9157TIP3    H148886   5.140   2.158   3.399  0.4277  0.1993  1.0678
 9157TIP3    H248887   5.194   2.249   3.508  3.3120 -0.6300  0.4090
 9158TIP3   OH248888   6.460   1.732  11.825 -0.1902 -0.0583  0.0467
 9158TIP3    H148889   6.448   1.740  11.919  0.9831 -0.7098  0.2631
 9158TIP3    H248890   6.428   1.645  11.803  0.4432 -0.2921  0.0143
 9159TIP3   OH248891   4.738   6.410  11.129 -0.1809  0.1680 -0.1831
 9159TIP3    H148892   4.817   6.390  11.078 -1.1229 -2.6213 -0.7296
 9159TIP3    H248893   4.764   6.391  11.220  0.2909  1.0969 -0.1118
 9160TIP3   OH248894   2.885   4.314  17.233  1.2992  0.2340 -0.2278
 9160TIP3    H148895   2.938   4.394  17.241  0.9011  0.5789 -0.9799
 9160TIP3    H248896   2.848   4.318  17.145  1.5927 -0.9846 -0.4203
 9161TIP3   OH248897   4.937   2.236   3.965  0.3173  0.1171  0.5538
 9161TIP3    H148898   4.844   2.217   3.965  0.5105 -0.9569 -0.6526
 9161TIP3    H248899   4.980   2.152   3.981  1.1125  0.0544 -1.5841
 9162TIP3   OH248900   3.713   2.033  16.448 -0.1802  0.2712  0.4694
 9162TIP3    H148901   3.754   2.012  16.532  1.8304  1.7477 -0.0381
 9162TIP3    H248902   3.787   2.036  16.386 -1.4471  0.3747 -1.0990
 9163TIP3   OH248903   2.188   1.121  12.537  0.2172 -0.6024 -0.3747
 9163TIP3    H148904   2.218   1.166  12.458  0.1041  0.8077  0.3455
 9163TIP3    H248905   2.201   1.185  12.607  0.6999 -1.9566  0.8301
 9164TIP3   OH248906   5.362   0.394   5.546  0.2726  0.1760  0.1996
 9164TIP3    H148907   5.272   0.362   5.533  0.2268  0.6727 -0.8858
 9164TIP3    H248908   5.383   0.372   5.636 -0.2593 -1.6492 -0.0798
 9165TIP3   OH248909   1.378   1.931  11.173  0.1789  0.5435  0.1623
 9165TIP3    H148910   1.444   1.991  11.140  0.4093  0.3183  0.2069
 9165TIP3    H248911   1.422   1.846  11.175  0.7690  0.8196  2.7371
 9166TIP3   OH248912   4.857   0.438   4.482  0.3759  0.4059  0.4637
 9166TIP3    H148913   4.797   0.507   4.454  2.5779  1.7287 -1.4621
 9166TIP3    H248914   4.851   0.371   4.414 -2.2473 -1.8218  2.6596
 9167TIP3   OH248915   4.313   1.615  11.466  0.1075 -0.1590  0.2710
 9167TIP3    H148916   4.347   1.541  11.517 -1.1747 -0.4556  0.7469
 9167TIP3    H248917   4.384   1.639  11.407  0.9963 -0.9586  0.9857
 9168TIP3   OH248918   2.539   0.116  16.927 -0.1084 -0.7207  0.0050
 9168TIP3    H148919   2.528   0.175  16.852 -0.9586 -2.3860 -1.2297
 9168TIP3    H248920   2.634   0.106  16.936  0.2553  2.7061  1.8473
 9169TIP3   OH248921   2.379   4.665  14.401  0.2276 -1.0601  0.2782
 9169TIP3    H148922   2.307   4.604  14.392  0.1270 -1.0116  0.7406
 9169TIP3    H248923   2.457   4.610  14.407  0.4004 -1.0873 -1.5991
 9170TIP3   OH248924   2.286   0.997   3.616 -0.1714 -0.4896 -0.3914
 9170TIP3    H148925   2.308   0.981   3.708 -1.2976 -0.8410 -0.1599
 9170TIP3    H248926   2.202   1.043   3.620 -0.3601 -0.7418 -1.2583
 9171TIP3   OH248927   6.208   6.648  16.481 -0.1086  0.0400  0.1374
 9171TIP3    H148928   6.242   6.651  16.571 -0.0754 -0.1487  0.1305
 9171TIP3    H248929   6.247   6.724  16.438  0.3400 -0.2025  0.1171
 9172TIP3   OH248930   4.611   1.651   1.668  0.3037 -0.5323  0.5902
 9172TIP3    H148931   4.595   1.688   1.755  1.3094 -0.3437  0.7037
 9172TIP3    H248932   4.641   1.562   1.686 -0.3216 -0.7894  0.3912
 9173TIP3   OH248933   4.617   1.367  17.128  0.4648 -0.0736 -0.1924
 9173TIP3    H148934   4.639   1.276  17.150  0.8453 -0.5439 -2.2738
 9173TIP3    H248935   4.687   1.394  17.069  0.4940  1.6961  0.5932
 9174TIP3   OH248936   4.720   4.648   1.218  0.0430 -0.2692 -0.7048
 9174TIP3    H148937   4.760   4.580   1.164  0.8003  1.3365 -2.2965
 9174TIP3    H248938   4.636   4.666   1.175 -0.1929 -0.2600 -0.2433
 9175TIP3   OH248939   3.292   4.200  11.687 -0.7049 -0.1036  0.0490
 9175TIP3    H148940   3.350   4.188  11.762  0.2249 -0.1543 -0.6719
 9175TIP3    H248941   3.204   4.192  11.724 -0.2594 -1.9325  0.8469
 9176TIP3   OH248942   6.619   5.069   0.683 -0.1070 -0.3810 -0.1035
 9176TIP3    H148943   6.524   5.068   0.697 -0.4344  0.6595 -1.9400
 9176TIP3    H248944   6.634   5.142   0.622  2.1841  1.0646  2.0169
 9177TIP3   OH248945   5.404   4.696   4.710  0.1392 -0.0226  0.6318
 9177TIP3    H148946   5.356   4.770   4.673  1.3038 -0.5181 -2.0518
 9177TIP3    H248947   5.448   4.733   4.787 -1.7944  1.2278  1.2404
 9178TIP3   OH248948   4.604   3.620  15.070 -0.0567  0.1397 -1.2424
 9178TIP3    H148949   4.682   3.675  15.072 -0.7416  1.1404 -0.1683
 9178TIP3    H248950   4.533   3.680  15.094 -1.0225 -0.9364 -1.3442
 9179TIP3   OH248951   1.760   3.575   5.982  0.0920 -0.7923  0.1057
 9179TIP3    H148952   1.838   3.603   5.934  0.4831 -2.2653 -0.1571
 9179TIP3    H248953   1.740   3.649   6.039  1.2238 -0.0791 -0.3757
 9180TIP3   OH248954   3.486   6.721   0.660  0.2257 -0.0127 -0.0962
 9180TIP3    H148955   3.447   6.636   0.681 -0.2301  0.0355 -0.7189
 9180TIP3    H248956   3.541   6.703   0.583  0.0897  0.2681 -0.2594
 9181TIP3   OH248957   5.634   5.003   2.181 -0.2905  0.2592  0.0765
 9181TIP3    H148958   5.590   4.929   2.223  0.5289 -1.6790 -2.2066
 9181TIP3    H248959   5.594   5.081   2.220 -2.1182 -1.3837  1.6769
 9182TIP3   OH248960   2.548   1.091   1.008  0.5332  0.5291  0.4005
 9182TIP3    H148961   2.544   0.997   0.991 -1.1093  0.8276 -1.1961
 9182TIP3    H248962   2.641   1.108   1.026  1.5890 -0.8502 -2.9137
 9183TIP3   OH248963   6.491   0.807   3.260  0.0363 -0.3498  0.4515
 9183TIP3    H148964   6.556   0.792   3.191  0.0715  3.2966 -0.5009
 9183TIP3    H248965   6.526   0.759   3.336  1.9927 -1.3447 -0.9785
 9184TIP3   OH248966   0.148   6.088  12.982  0.5228  0.0905  0.2740
 9184TIP3    H148967   0.147   6.086  12.887 -1.4692  1.3142  0.2260
 9184TIP3    H248968   0.095   6.164  13.006  0.8388 -0.2753  2.3633
 9185TIP3   OH248969   5.814   6.560  11.913  1.1401 -0.3961 -0.0820
 9185TIP3    H148970   5.746   6.496  11.895  2.2442 -1.3182 -1.1928
 9185TIP3    H248971   5.774   6.621  11.975 -0.8698 -0.5678 -1.1224
 9186TIP3   OH248972   2.215   0.297   5.944  0.1115  0.0829  0.0313
 9186TIP3    H148973   2.132   0.323   5.903 -1.0165 -1.2131  1.4087
 9186TIP3    H248974   2.219   0.202   5.933  1.3205  0.0945  0.1906
 9187TIP3   OH248975   5.886   2.651   4.476  0.4318  0.3830 -0.3439
 9187TIP3    H148976   5.843   2.724   4.431  0.0185 -0.2377 -0.9702
 9187TIP3    H248977   5.817   2.587   4.491  0.9251 -0.1788 -0.4215
 9188TIP3   OH248978   4.583   4.903   3.075 -0.2972  0.3164  0.1989
 9188TIP3    H148979   4.621   4.886   3.161  0.1603  0.6073  0.0633
 9188TIP3    H248980   4.559   4.817   3.041  1.9004 -0.1224 -0.4466
 9189TIP3   OH248981   5.922   6.567   2.049  0.4876  0.3418 -0.3535
 9189TIP3    H148982   5.885   6.597   2.132  0.7738  1.2111 -0.5223
 9189TIP3    H248983   5.981   6.496   2.072 -0.1763 -0.0844  0.0745
 9190TIP3   OH248984   2.119   2.602   2.602  0.4393  0.6412 -0.0919
 9190TIP3    H148985   2.176   2.594   2.679 -1.5656  1.3451  1.5481
 9190TIP3    H248986   2.054   2.532   2.613 -0.1884  1.0819 -0.8798
 9191TIP3   OH248987   3.995   4.046  14.212  0.5291  0.5557 -0.0033
 9191TIP3    H148988   3.936   4.035  14.138 -0.4892 -1.2066  1.0194
 9191TIP3    H248989   3.966   3.982  14.276  2.2788  1.0562  1.3715
 9192TIP3   OH248990   3.409   5.347   6.379  1.0514  0.3895  0.4354
 9192TIP3    H148991   3.359   5.292   6.439  0.3913  0.4123 -0.0760
 9192TIP3    H248992   3.465   5.400   6.435  2.2532 -1.3034  0.9232
 9193TIP3   OH248993   5.542   2.747   3.201  0.9523 -0.3503 -0.3370
 9193TIP3    H148994   5.571   2.809   3.134 -3.0222  1.9723 -0.2356
 9193TIP3    H248995   5.586   2.776   3.281  0.7807  1.0003 -0.7142
 9194TIP3   OH248996   5.008   6.691  13.411  0.2623 -0.1244  0.0277
 9194TIP3    H148997   4.984   6.730  13.495 -1.2752 -0.4798 -0.2235
 9194TIP3    H248998   4.941   6.625  13.395  0.9005 -0.5152 -1.1834
 9195TIP3   OH248999   4.362   1.086  14.849 -0.2410  0.0808  0.4455
 9195TIP3    H149000   4.363   1.010  14.907  0.8984  0.4174  0.9019
 9195TIP3    H249001   4.350   1.049  14.761  1.5391 -0.7606  0.5144
 9196TIP3   OH249002   1.471   1.833  10.746  0.1312 -0.0749 -0.3548
 9196TIP3    H149003   1.411   1.801  10.813  1.2362 -0.8963  0.2764
 9196TIP3    H249004   1.483   1.759  10.687  1.5123 -0.3713  0.2576
 9197TIP3   OH249005   3.808   4.184  15.196 -0.2616  0.3331 -0.2183
 9197TIP3    H149006   3.874   4.125  15.161 -1.0061  1.4422 -3.9447
 9197TIP3    H249007   3.858   4.251  15.243  1.0647 -0.2469 -0.7495
 9198TIP3   OH249008   3.243   1.271   0.540 -0.4747  0.7793 -0.0828
 9198TIP3    H149009   3.260   1.338   0.606  0.8474  1.0489 -0.6655
 9198TIP3    H249010   3.182   1.313   0.479  0.4341  1.4984 -0.5084
 9199TIP3   OH249011   5.255   5.243  11.045  0.7539 -0.1242 -0.4559
 9199TIP3    H149012   5.283   5.227  10.955 -0.7780 -1.6430 -0.7136
 9199TIP3    H249013   5.244   5.156  11.082  2.0444  0.4674  1.4784
 9200TIP3   OH249014   0.909   0.941  10.498 -0.6106 -0.1620  0.1726
 9200TIP3    H149015   0.835   0.933  10.437 -0.3937  0.3429 -0.1594
 9200TIP3    H249016   0.886   1.015  10.554  0.9721  2.0275 -1.8604
 9201TIP3   OH249017   2.421   0.367  15.024  0.2291 -0.5093  0.0374
 9201TIP3    H149018   2.402   0.461  15.019  1.5272 -0.2486 -0.7381
 9201TIP3    H249019   2.452   0.353  15.113  1.3485  0.1100 -0.2279
 9202TIP3   OH249020   1.132   5.111   2.404  0.3503  0.1851  0.2564
 9202TIP3    H149021   1.184   5.136   2.327 -0.6917 -0.4551 -0.6771
 9202TIP3    H249022   1.073   5.185   2.418 -0.8475 -0.5451 -0.8191
 9203TIP3   OH249023   1.924   2.357  14.359 -0.3542 -0.4412 -0.0039
 9203TIP3    H149024   1.871   2.388  14.432 -0.4323  1.2153 -0.7280
 9203TIP3    H249025   2.012   2.347  14.396 -0.0737  1.7692  0.0261
 9204TIP3   OH249026   0.060   4.393  16.121  0.0507  0.0056  0.2205
 9204TIP3    H149027   0.028   4.472  16.078 -2.2200 -1.0322 -0.1958
 9204TIP3    H249028   0.144   4.375  16.079 -0.7231  0.6561 -1.7148
 9205TIP3   OH249029   6.733   0.027   5.389  0.2416 -0.1998 -0.2579
 9205TIP3    H149030   6.791   0.056   5.318 -1.3379  0.8725 -1.1570
 9205TIP3    H249031   6.759  -0.064   5.404  0.7493 -0.4145 -2.0915
 9206TIP3   OH249032   4.599   5.069  13.688  0.6911 -0.2176  0.1038
 9206TIP3    H149033   4.588   5.159  13.718  0.3246  0.1251 -1.0181
 9206TIP3    H249034   4.578   5.072  13.595 -3.5432 -2.2369  0.7678
 9207TIP3   OH249035   3.981   3.685  13.539 -0.0692 -0.1950 -0.6612
 9207TIP3    H149036   4.072   3.690  13.511  1.2605 -0.7717  2.9856
 9207TIP3    H249037   3.957   3.593  13.528  0.3798 -0.3843 -0.1049
 9208TIP3   OH249038   5.595   6.667  14.423 -1.1152 -0.2016  0.7009
 9208TIP3    H149039   5.594   6.582  14.379  0.5822 -0.3266  0.8262
 9208TIP3    H249040   5.594   6.731  14.352  2.3894 -0.3984  0.2751
 9209TIP3   OH249041   4.927   1.427   2.810  0.5387  0.4003 -0.4409
 9209TIP3    H149042   4.926   1.391   2.722 -1.3623 -2.0747  0.4888
 9209TIP3    H249043   4.853   1.488   2.813  0.1237 -0.1059 -0.3456
 9210TIP3   OH249044   4.589   1.816  14.917 -0.1268 -0.5518  0.6416
 9210TIP3    H149045   4.509   1.796  14.868  0.8120 -0.3577 -1.0850
 9210TIP3    H249046   4.583   1.910  14.935 -0.5576 -0.6561  1.0569
 9211TIP3   OH249047   6.736   3.239   1.680  0.3902 -0.0739 -0.2360
 9211TIP3    H149048   6.702   3.328   1.691 -0.1661 -0.2858 -0.2244
 9211TIP3    H249049   6.669   3.183   1.717  1.0105 -0.4702  0.2926
 9212TIP3   OH249050   4.964   0.776   0.831 -0.2331  0.1996  0.4145
 9212TIP3    H149051   5.000   0.863   0.844 -0.0310 -0.0770  1.9432
 9212TIP3    H249052   4.917   0.757   0.912  1.1474 -1.7489  0.8464
 9213TIP3   OH249053   0.651   0.134   0.830 -0.2203 -0.9850 -0.0814
 9213TIP3    H149054   0.576   0.193   0.834  0.8350  0.5856 -1.8080
 9213TIP3    H249055   0.640   0.087   0.747  0.3801 -1.1683 -0.0668
 9214TIP3   OH249056   2.853   3.335   3.749  0.1498  0.1962 -0.5490
 9214TIP3    H149057   2.772   3.297   3.783  0.4744  0.1596  0.2112
 9214TIP3    H249058   2.922   3.289   3.796  0.5745  1.1973 -0.1681
 9215TIP3   OH249059   2.301   0.908   5.811 -0.5972  0.3198 -0.1752
 9215TIP3    H149060   2.328   0.937   5.899  3.1204 -0.5648 -0.8486
 9215TIP3    H249061   2.323   0.982   5.754  2.2144 -0.9494 -0.9422
 9216TIP3   OH249062   2.943   2.093  11.249  0.7230 -0.0870 -0.5695
 9216TIP3    H149063   2.990   2.089  11.165 -0.7976 -1.3367 -1.3914
 9216TIP3    H249064   2.913   2.004  11.265 -1.1589  0.6084  0.0464
 9217TIP3   OH249065   0.663   4.272   3.893  0.0128 -0.1226  0.6184
 9217TIP3    H149066   0.737   4.251   3.836  0.0459 -0.8470  0.9197
 9217TIP3    H249067   0.677   4.219   3.971 -0.6751 -0.0521  0.7980
 9218TIP3   OH249068   5.618   3.217   3.976  0.3694  0.4634  0.4995
 9218TIP3    H149069   5.607   3.227   4.071  1.8140  0.2404  0.7157
 9218TIP3    H249070   5.628   3.306   3.943 -0.3570  0.5565  0.5144
 9219TIP3   OH249071   4.764   0.124  14.654  0.5305  0.6414 -0.3363
 9219TIP3    H149072   4.707   0.179  14.600  1.1137  1.4061 -0.1956
 9219TIP3    H249073   4.719   0.040  14.659  0.0114  0.8534 -1.2269
 9220TIP3   OH249074   2.179   4.924   1.209 -0.0013  0.1574  0.9284
 9220TIP3    H149075   2.191   4.894   1.299  0.2459  1.5941  1.4002
 9220TIP3    H249076   2.209   4.851   1.155 -1.8606 -1.4731  1.9585
 9221TIP3   OH249077   2.340   5.792  16.572 -0.1987  0.6225  0.2880
 9221TIP3    H149078   2.395   5.856  16.616  1.3430 -1.0892  0.9563
 9221TIP3    H249079   2.311   5.732  16.641 -0.8345  0.0382 -0.4602
 9222TIP3   OH249080   5.137   4.893   8.249 -0.2485 -0.0873 -0.4575
 9222TIP3    H149081   5.190   4.861   8.322  0.1974  1.6247  0.0123
 9222TIP3    H249082   5.183   4.970   8.218 -1.9282  0.8618 -0.7038
 9223TIP3   OH249083   5.841   2.968  13.445  0.1334  0.0490 -0.3022
 9223TIP3    H149084   5.918   2.955  13.389  0.4279  2.2948 -0.4997
 9223TIP3    H249085   5.785   3.028  13.395 -0.0684  1.3065  1.3607
 9224TIP3   OH249086   3.570   1.153  13.576  0.0764 -0.6469 -0.3050
 9224TIP3    H149087   3.629   1.171  13.649  0.3250 -0.0697 -0.6402
 9224TIP3    H249088   3.516   1.080  13.606 -0.2245 -0.0378  0.6880
 9225TIP3   OH249089   5.883   0.592  11.860  0.2802 -0.1246  0.5329
 9225TIP3    H149090   5.925   0.672  11.830 -0.0730 -0.2489 -0.3463
 9225TIP3    H249091   5.940   0.522  11.829  0.5367 -0.2194  1.2110
 9226TIP3   OH249092   1.631   5.217  14.139 -0.0111 -0.1321 -0.0544
 9226TIP3    H149093   1.630   5.297  14.087  1.2281 -0.6214 -0.8571
 9226TIP3    H249094   1.575   5.156  14.091 -0.6387  0.0960  0.3576
 9227TIP3   OH249095   3.764   4.916  11.860  0.0448 -0.2287 -0.1138
 9227TIP3    H149096   3.773   5.000  11.906  2.7523  0.2574 -1.3632
 9227TIP3    H249097   3.710   4.937  11.784  1.5452  0.6817 -0.9698
 9228TIP3   OH249098   5.667   0.534  14.279  0.0596  0.1638  0.1236
 9228TIP3    H149099   5.760   0.543  14.299  0.1467  2.6305 -1.0147
 9228TIP3    H249100   5.665   0.506  14.187 -0.3581 -0.7984  0.4083
 9229TIP3   OH249101   6.445   4.121   5.565  0.5806 -0.6474  0.1883
 9229TIP3    H149102   6.433   4.094   5.657 -0.0798 -0.0231  0.2929
 9229TIP3    H249103   6.473   4.041   5.521 -0.6923 -1.3645  0.6256
 9230TIP3   OH249104   2.564   6.087  11.457 -0.5032  0.4896 -0.1849
 9230TIP3    H149105   2.607   6.166  11.426 -0.0450  1.0544  1.7734
 9230TIP3    H249106   2.605   6.016  11.407  0.0842  1.3434 -0.9456
 9231TIP3   OH249107   6.141   3.119  15.368 -0.0118  0.3538  0.3345
 9231TIP3    H149108   6.096   3.035  15.378  0.6342 -0.2756 -1.6233
 9231TIP3    H249109   6.224   3.107  15.415  1.4226 -1.2579 -2.3806
 9232TIP3   OH249110   5.669   4.567  17.176 -0.1790  0.6613  0.0326
 9232TIP3    H149111   5.639   4.523  17.096 -0.3266  2.6952 -1.0997
 9232TIP3    H249112   5.728   4.635  17.145  0.5499  0.8606  1.7646
 9233TIP3   OH249113   1.419   6.708  12.822  0.5082 -0.7545 -0.1968
 9233TIP3    H149114   1.377   6.634  12.779 -1.8387  1.3701 -1.8550
 9233TIP3    H249115   1.348   6.755  12.864  1.7891  0.9659  0.1419
 9234TIP3   OH249116   6.357   2.323   5.408 -0.1242 -0.4543  0.1788
 9234TIP3    H149117   6.302   2.354   5.336  0.0374 -1.6904 -0.5005
 9234TIP3    H249118   6.354   2.394   5.473 -2.1780 -0.3202 -0.0055
 9235TIP3   OH249119   1.749   5.116  14.937 -0.2684  0.1135  0.1159
 9235TIP3    H149120   1.813   5.098  14.867 -0.0109 -1.4627  0.7183
 9235TIP3    H249121   1.801   5.118  15.017 -0.5229  2.1922  0.2755
 9236TIP3   OH249122   1.359   3.102  16.845  0.2673 -0.9251 -0.2166
 9236TIP3    H149123   1.421   3.041  16.806  2.4877 -0.4110  2.2131
 9236TIP3    H249124   1.307   3.049  16.905  0.1598 -0.9389 -0.3234
 9237TIP3   OH249125   2.477   1.895   4.197  0.0161  0.2896  0.3645
 9237TIP3    H149126   2.559   1.908   4.150  0.2858  0.0313  0.7536
 9237TIP3    H249127   2.423   1.842   4.138 -0.0715  0.8976 -0.1056
 9238TIP3   OH249128   4.936   3.579   1.661 -0.3712  0.5843  0.7116
 9238TIP3    H149129   4.947   3.597   1.568 -1.6103 -1.9184 -0.0058
 9238TIP3    H249130   4.841   3.584   1.675 -0.6021 -2.5805  0.9323
 9239TIP3   OH249131   2.688   4.294  11.435 -0.1231  0.5326  0.1116
 9239TIP3    H149132   2.759   4.346  11.473  0.0771 -1.0095  2.0385
 9239TIP3    H249133   2.727   4.208  11.419 -0.8804  0.4324 -1.4090
 9240TIP3   OH249134   4.965   3.846   1.850 -0.4054  0.1179  0.6241
 9240TIP3    H149135   4.939   3.757   1.827 -1.6306  0.1137  1.8800
 9240TIP3    H249136   4.893   3.879   1.904  0.4029  1.5869  0.8687
 9241TIP3   OH249137   3.646   1.133  14.843  0.2594  0.0450  0.4341
 9241TIP3    H149138   3.616   1.163  14.929  1.7963  1.3468  0.5521
 9241TIP3    H249139   3.727   1.181  14.828 -0.0854  0.0149 -1.8455
 9242TIP3   OH249140   1.715   6.048   4.197  0.1120  0.0830 -0.3635
 9242TIP3    H149141   1.803   6.011   4.210  0.0900  0.1890  0.1216
 9242TIP3    H249142   1.658   5.972   4.185  0.3638  0.0363 -1.3028
 9243TIP3   OH249143   1.029   6.224  17.020 -0.0135 -0.1352  0.1295
 9243TIP3    H149144   0.960   6.195  17.079 -0.7201 -0.0597 -0.6498
 9243TIP3    H249145   1.042   6.316  17.042  2.1276 -0.8754  2.5068
 9244TIP3   OH249146   5.453   5.108   6.833  0.4739  0.5523 -0.6597
 9244TIP3    H149147   5.366   5.104   6.872  0.4071 -2.4027 -0.9120
 9244TIP3    H249148   5.487   5.194   6.858 -0.8042  0.1010  3.2333
 9245TIP3   OH249149   5.908   3.416   4.990 -0.0069 -0.9552 -0.2261
 9245TIP3    H149150   5.900   3.505   4.956 -0.4443 -1.1884 -0.7509
 9245TIP3    H249151   5.844   3.365   4.941  0.5126 -1.6463 -0.2183
 9246TIP3   OH249152   0.213   3.744  14.478 -0.3043  0.6114  0.0001
 9246TIP3    H149153   0.161   3.719  14.402 -1.3532  2.4119  0.0649
 9246TIP3    H249154   0.150   3.752  14.549  0.5536 -0.2941  0.9073
 9247TIP3   OH249155   4.725   4.801   5.370 -0.3550 -0.4150  0.3772
 9247TIP3    H149156   4.720   4.779   5.463 -0.8233 -1.1728  0.1810
 9247TIP3    H249157   4.729   4.716   5.325 -0.9671 -0.0764 -0.3379
 9248TIP3   OH249158   0.501   5.524   4.154  0.1102  0.6823 -0.1784
 9248TIP3    H149159   0.543   5.477   4.082  1.0689  2.0066 -0.5167
 9248TIP3    H249160   0.471   5.455   4.213  0.0417 -0.4004 -1.4199
 9249TIP3   OH249161   4.936   5.243   2.623  0.2708 -0.4882 -0.2055
 9249TIP3    H149162   4.854   5.289   2.644  0.5810  0.4000 -0.8748
 9249TIP3    H249163   5.004   5.309   2.635  0.9148 -1.2433  0.4255
 9250TIP3   OH249164   1.103   0.864  16.948 -0.3825 -0.1732 -0.6268
 9250TIP3    H149165   1.051   0.925  17.001  0.4300  0.7405 -0.8560
 9250TIP3    H249166   1.192   0.872  16.983 -0.0488 -0.3720 -1.4072
 9251TIP3   OH249167   0.113   3.216   0.204 -0.0486 -0.4918  0.2205
 9251TIP3    H149168   0.036   3.272   0.217  0.0229 -0.8386  2.4960
 9251TIP3    H249169   0.092   3.136   0.253  3.3575  0.9822  4.7223
 9252TIP3   OH249170   4.902   3.507  17.100  0.2380 -0.1432 -0.2844
 9252TIP3    H149171   4.988   3.483  17.136 -0.3077 -0.3253  0.9449
 9252TIP3    H249172   4.868   3.572  17.161 -1.1319 -1.1708  0.0832
 9253TIP3   OH249173   3.561   2.205  12.220 -0.1562  0.1365  0.2176
 9253TIP3    H149174   3.479   2.156  12.216  0.0680 -0.6314  3.1071
 9253TIP3    H249175   3.608   2.167  12.294  0.4727  4.0805  2.0928
 9254TIP3   OH249176   0.089   6.268   2.759  0.1559  0.4520 -0.1981
 9254TIP3    H149177   0.166   6.323   2.755  0.2260  0.3585 -0.1312
 9254TIP3    H249178   0.096   6.210   2.684  1.1130 -0.8259  0.8214
 9255TIP3   OH249179   0.136   0.558   5.148 -0.1159  0.2453  0.2355
 9255TIP3    H149180   0.085   0.487   5.108  1.0391  0.0033 -0.8843
 9255TIP3    H249181   0.227   0.539   5.125  0.4170  1.0971  1.5039
 9256TIP3   OH249182   3.005   2.823   1.966  0.5300  0.5918 -0.1032
 9256TIP3    H149183   3.002   2.728   1.976  1.1125  0.5757 -0.0568
 9256TIP3    H249184   2.980   2.856   2.053 -1.5898  0.5132 -0.6292
 9257TIP3   OH249185   3.843   2.757  13.494  0.4168  0.5060 -0.1760
 9257TIP3    H149186   3.778   2.745  13.425  0.1244  0.0273  0.1776
 9257TIP3    H249187   3.833   2.680  13.550  2.2950 -0.3537 -0.9234
 9258TIP3   OH249188   2.899   1.721  14.650  0.0156 -0.0455 -0.1128
 9258TIP3    H149189   2.939   1.731  14.736  0.6599 -0.5099 -0.3537
 9258TIP3    H249190   2.867   1.809  14.628  0.4505  0.2217  0.3082
 9259TIP3   OH249191   4.477   5.335   4.064  0.0143 -0.3835 -0.4872
 9259TIP3    H149192   4.445   5.343   4.154  1.1629 -4.2766  0.4634
 9259TIP3    H249193   4.569   5.361   4.069 -0.6210  2.3687 -1.3364
 9260TIP3   OH249194   1.563   5.399  16.669 -0.3050  0.5504 -0.0691
 9260TIP3    H149195   1.518   5.458  16.730  0.0542  0.6832  0.0689
 9260TIP3    H249196   1.508   5.401  16.590 -1.6669 -0.8895  0.7957
 9261TIP3   OH249197   4.641   5.501  15.706 -0.2932 -0.7051  0.5466
 9261TIP3    H149198   4.604   5.579  15.747  1.6609  0.8150 -0.4293
 9261TIP3    H249199   4.607   5.428  15.759 -1.2596  0.8575  2.2018
 9262TIP3   OH249200   2.411   5.117  14.537 -0.0181  0.4345  0.5118
 9262TIP3    H149201   2.492   5.142  14.581  1.4576 -1.0037 -1.2354
 9262TIP3    H249202   2.412   5.022  14.538 -0.2166  0.3376 -1.9840
 9263TIP3   OH249203   6.188   3.058  11.148 -0.1244  0.6440  0.3948
 9263TIP3    H149204   6.239   2.976  11.144 -0.4773  0.3251  1.8265
 9263TIP3    H249205   6.201   3.098  11.063 -0.2588 -1.1057 -0.5033
 9264TIP3   OH249206   1.636   6.362   1.378 -0.3021 -0.3003  0.4131
 9264TIP3    H149207   1.561   6.408   1.342 -0.7713  0.3462  2.0966
 9264TIP3    H249208   1.667   6.306   1.307 -2.2928 -0.4957 -0.3497
 9265TIP3   OH249209   2.542   5.225   0.709  0.0937 -0.2886  0.6204
 9265TIP3    H149210   2.611   5.267   0.761  0.9021 -1.7743  0.8241
 9265TIP3    H249211   2.465   5.279   0.723  0.9781  0.8847  1.1686
 9266TIP3   OH249212   4.597   3.321   1.163  0.4629  0.7572 -0.2873
 9266TIP3    H149213   4.692   3.318   1.174  0.7347 -2.0599 -2.2364
 9266TIP3    H249214   4.562   3.312   1.252  2.0077  1.2594  0.4017
 9267TIP3   OH249215   4.376   1.172  11.462 -0.1367  0.1686 -0.2458
 9267TIP3    H149216   4.418   1.165  11.377 -0.1543 -0.5900 -0.1967
 9267TIP3    H249217   4.414   1.251  11.501  2.1609 -1.1064  0.2808
 9268TIP3   OH249218   4.303   6.125  17.172 -0.4803  0.2676 -0.0303
 9268TIP3    H149219   4.237   6.086  17.115 -3.4840  3.6022  0.7818
 9268TIP3    H249220   4.343   6.194  17.118 -2.8539  2.9772  1.3895
 9269TIP3   OH249221   4.500   0.103   5.810  0.1264 -0.0972 -0.6286
 9269TIP3    H149222   4.581   0.152   5.827 -0.3481  0.2835  0.6607
 9269TIP3    H249223   4.529   0.015   5.786  0.9337 -0.6744  2.1272
 9270TIP3   OH249224   1.212   5.428   0.993  0.2307 -0.0695  0.1201
 9270TIP3    H149225   1.224   5.457   0.902 -2.1981 -1.1365 -0.6370
 9270TIP3    H249226   1.240   5.502   1.046  0.9690  0.8835 -1.5192
 9271TIP3   OH249227   5.297   4.510  16.677  0.0052 -0.0178  0.5895
 9271TIP3    H149228   5.335   4.423  16.684 -0.8788 -0.3263  1.9066
 9271TIP3    H249229   5.283   4.538  16.767 -0.9986  0.9055  0.1748
 9272TIP3   OH249230   6.030   4.061   6.166  0.2421  0.6957  0.4029
 9272TIP3    H149231   6.091   3.990   6.146  0.0583  1.0558 -1.6998
 9272TIP3    H249232   6.042   4.077   6.259  3.9796  1.2911 -0.0064
 9273TIP3   OH249233   6.759   4.990   1.129  0.0627 -0.2368  0.6288
 9273TIP3    H149234   6.687   4.929   1.114 -1.3112  1.7596 -1.8705
 9273TIP3    H249235   6.729   5.046   1.200 -0.3600 -0.1325  0.3697
 9274TIP3   OH249236   3.536   5.267  12.216  0.3438 -0.2161  0.0003
 9274TIP3    H149237   3.566   5.355  12.236 -0.1164  0.0314 -0.3769
 9274TIP3    H249238   3.491   5.238  12.295  0.2541 -0.0045  0.0273
 9275TIP3   OH249239   1.258   1.534   6.537 -0.3333  0.0848 -0.0491
 9275TIP3    H149240   1.226   1.471   6.472  0.1767 -0.0943 -0.1366
 9275TIP3    H249241   1.246   1.619   6.496  0.4658 -0.0505 -0.6143
 9276TIP3   OH249242   3.233   2.614   2.000 -0.1670  0.1817  0.0219
 9276TIP3    H149243   3.258   2.538   2.052  0.0046 -0.1093 -0.4812
 9276TIP3    H249244   3.160   2.584   1.947 -0.5374  0.5632  0.2997
 9277TIP3   OH249245   2.374   4.976   5.341  0.7306  0.3556  0.1598
 9277TIP3    H149246   2.318   4.913   5.296 -0.2956  1.3204  0.0377
 9277TIP3    H249247   2.315   5.048   5.365  2.0231  1.6719 -0.4667
 9278TIP3   OH249248   1.245   5.914  11.780  0.4799 -0.4377 -0.7718
 9278TIP3    H149249   1.168   5.969  11.798 -0.1639 -0.9132 -1.9397
 9278TIP3    H249250   1.296   5.964  11.718  0.0153 -1.0335 -1.6511
 9279TIP3   OH249251   3.895   0.117  11.857  0.3696  0.5329 -0.1259
 9279TIP3    H149252   3.949   0.057  11.908 -1.8305 -1.7887 -0.3252
 9279TIP3    H249253   3.824   0.142  11.916 -0.4869  0.3135 -1.0242
 9280TIP3   OH249254   3.375   2.356   4.794  0.3184  0.1330 -0.0392
 9280TIP3    H149255   3.299   2.323   4.841 -1.9745  4.0581 -0.5447
 9280TIP3    H249256   3.448   2.347   4.856 -0.4588 -3.4101  0.5955
 9281TIP3   OH249257   2.905   5.622   0.099  0.0742 -0.4957 -0.6886
 9281TIP3    H149258   2.929   5.628   0.007  1.1743 -1.0753 -0.4526
 9281TIP3    H249259   2.818   5.581   0.098 -0.1521 -0.0243 -1.4791
 9282TIP3   OH249260   2.239   1.503  14.573  0.4109  0.3471  0.1132
 9282TIP3    H149261   2.325   1.466  14.555 -0.2340 -0.9136 -0.4656
 9282TIP3    H249262   2.199   1.512  14.487 -0.4283 -0.0686  0.4536
 9283TIP3   OH249263   1.480   1.859  14.007 -0.2415  0.2562 -0.8071
 9283TIP3    H149264   1.434   1.838  13.926  0.5093 -1.8207 -0.7435
 9283TIP3    H249265   1.435   1.808  14.074  1.2708 -0.7221 -0.5116
 9284TIP3   OH249266   4.970   5.842  14.841  0.2550 -0.4155 -0.2093
 9284TIP3    H149267   4.925   5.918  14.880  1.4897 -0.0811  0.6044
 9284TIP3    H249268   4.986   5.869  14.750 -0.9273 -0.4385 -0.4437
 9285TIP3   OH249269   0.162   6.007   5.098  0.0744 -0.0899 -0.3359
 9285TIP3    H149270   0.117   5.928   5.126 -0.3131  0.4024  0.4825
 9285TIP3    H249271   0.156   6.007   5.003  0.6307 -1.3560 -0.3840
 9286TIP3   OH249272   1.060   6.618  12.156  0.2612  0.2813  0.1629
 9286TIP3    H149273   1.131   6.585  12.210 -0.8860 -2.7607  0.0464
 9286TIP3    H249274   0.991   6.641  12.218 -1.0819 -3.2734  0.2149
 9287TIP3   OH249275   4.643   1.572   5.175  0.2800  0.7607  0.8910
 9287TIP3    H149276   4.554   1.547   5.199 -0.2446 -1.1313 -2.4090
 9287TIP3    H249277   4.633   1.623   5.095  2.1253  1.1837  0.8800
 9288TIP3   OH249278   6.734   0.022  15.228 -0.0562 -0.5443 -0.2571
 9288TIP3    H149279   6.683  -0.021  15.297  0.8759  1.5730  1.8785
 9288TIP3    H249280   6.813  -0.033  15.220 -0.0358 -0.6648  0.6070
 9289TIP3   OH249281   5.626   1.824   0.690  0.1297  0.2000 -0.8065
 9289TIP3    H149282   5.603   1.794   0.602 -1.6178 -0.0764 -0.2907
 9289TIP3    H249283   5.542   1.840   0.733  0.8924 -0.9200  1.2536
 9290TIP3   OH249284   1.918   0.269  14.066  0.2023  0.3548  0.2886
 9290TIP3    H149285   1.941   0.340  14.006  1.7685 -0.2785  0.0933
 9290TIP3    H249286   1.828   0.288  14.093 -1.3604 -0.3551 -3.7765
 9291TIP3   OH249287   3.263   0.653  11.762 -0.1650 -0.0091 -0.1343
 9291TIP3    H149288   3.338   0.691  11.807 -0.4511  0.3029  0.0801
 9291TIP3    H249289   3.294   0.639  11.672  0.3946 -0.6032  0.1428
 9292TIP3   OH249290   4.826   6.049  14.972  0.5328 -0.1808  0.1982
 9292TIP3    H149291   4.867   6.134  14.955 -1.7289  0.7365 -0.9239
 9292TIP3    H249292   4.800   6.054  15.064 -1.0848  1.0856 -0.2726
 9293TIP3   OH249293   6.032   5.865  15.017  0.3498 -0.4376  0.3740
 9293TIP3    H149294   6.035   5.902  15.105  0.0648  2.4028 -0.7126
 9293TIP3    H249295   6.112   5.813  15.010  0.6469 -0.2737  2.1079
 9294TIP3   OH249296   4.214   0.313  16.402 -0.7578 -0.6400  0.6571
 9294TIP3    H149297   4.223   0.279  16.491 -2.3268  0.3785  1.2461
 9294TIP3    H249298   4.304   0.323  16.371  0.0039  1.9626  3.3081
 9295TIP3   OH249299   6.371   4.443  11.952  0.2648  0.0833  0.3490
 9295TIP3    H149300   6.310   4.397  12.010 -0.9761  1.4301  0.1425
 9295TIP3    H249301   6.386   4.527  11.995  0.5583  0.4778 -0.5016
 9296TIP3   OH249302   4.612   4.256   0.605  0.4113 -0.1105 -0.8737
 9296TIP3    H149303   4.676   4.300   0.549  0.6147 -0.6306 -1.0535
 9296TIP3    H249304   4.556   4.327   0.638  2.1177  0.6045  0.6766
 9297TIP3   OH249305   3.013   5.992  12.655 -0.0365  0.1656  0.5213
 9297TIP3    H149306   3.034   5.942  12.576 -1.4334 -0.1631  0.3340
 9297TIP3    H249307   3.070   6.069  12.650 -0.2708  0.2779 -0.9368
 9298TIP3   OH249308   2.027   3.893   5.178  0.7729  0.4300  0.9793
 9298TIP3    H149309   2.096   3.829   5.162  0.8605  0.6757  0.3306
 9298TIP3    H249310   1.947   3.850   5.148  0.5766  0.0103  2.0551
 9299TIP3   OH249311   0.094   1.041   0.110 -0.0384 -0.0585  0.8380
 9299TIP3    H149312   0.158   1.017   0.042 -1.0862  0.4165 -0.3579
 9299TIP3    H249313   0.112   1.133   0.129  0.1586 -0.1503  1.0969
 9300TIP3   OH249314   0.590   3.793   2.216 -0.4089 -0.2153  0.6114
 9300TIP3    H149315   0.602   3.707   2.257  0.2082  0.0341  0.9732
 9300TIP3    H249316   0.666   3.803   2.160 -0.6104 -0.0050  0.3745
 9301TIP3   OH249317   0.279   6.436  14.282 -0.5946 -0.1227 -0.0906
 9301TIP3    H149318   0.281   6.532  14.275 -0.3451 -0.1170  0.0510
 9301TIP3    H249319   0.247   6.406  14.197 -1.0122  0.1022 -0.0165
 9302TIP3   OH249320   5.253   2.471  16.223 -0.1343  0.1653 -0.3087
 9302TIP3    H149321   5.251   2.409  16.296 -2.2864 -0.3860 -0.7626
 9302TIP3    H249322   5.198   2.544  16.252  1.7956  1.5747 -0.0666
 9303TIP3   OH249323   4.575   5.547   3.715 -0.0792 -0.2521 -0.3337
 9303TIP3    H149324   4.548   5.597   3.792 -0.0055  1.2084 -1.2016
 9303TIP3    H249325   4.613   5.466   3.750 -0.5635  0.1193  1.1198
 9304TIP3   OH249326   5.996   3.298  12.309 -0.6825  0.4581 -0.0781
 9304TIP3    H149327   6.000   3.336  12.397 -1.3718  2.5619 -0.9007
 9304TIP3    H249328   5.959   3.210  12.322  0.1754  0.3386  1.8168
 9305TIP3   OH249329   4.738   5.297   2.290  0.0396  0.2607 -0.2080
 9305TIP3    H149330   4.702   5.246   2.217  0.2236 -0.3969  0.1527
 9305TIP3    H249331   4.770   5.231   2.351 -2.3913  0.7048  1.6731
 9306TIP3   OH249332   0.871   0.112   0.250  0.2816 -0.5852  0.2140
 9306TIP3    H149333   0.877   0.088   0.342  0.5118  0.6615  0.5449
 9306TIP3    H249334   0.948   0.071   0.210  0.5844 -0.5286  0.7250
 9307TIP3   OH249335   0.458   4.396   5.579  0.2501  0.2964 -0.1054
 9307TIP3    H149336   0.408   4.462   5.627  0.2922 -0.9395  1.7152
 9307TIP3    H249337   0.528   4.445   5.536 -0.4739  1.5927  0.1521
 9308TIP3   OH249338   0.928   2.864   2.218 -0.1319 -0.2800  0.2523
 9308TIP3    H149339   0.837   2.876   2.247  0.5245 -1.0714  2.9207
 9308TIP3    H249340   0.956   2.952   2.191 -2.1191 -0.3091 -2.2243
 9309TIP3   OH249341   3.911   0.948  15.108 -0.3174 -0.0364  0.7547
 9309TIP3    H149342   3.998   0.976  15.136 -0.0996 -0.6123  0.6675
 9309TIP3    H249343   3.851   0.990  15.170 -0.0302  0.9228  0.3898
 9310TIP3   OH249344   0.343   0.038   2.690  0.4263  0.2888 -0.1768
 9310TIP3    H149345   0.275   0.093   2.728 -0.0296  1.0412 -2.0061
 9310TIP3    H249346   0.298  -0.013   2.623  1.4719  0.0422 -0.7102
 9311TIP3   OH249347   0.691   6.173   4.641  0.2659  0.0757  0.2029
 9311TIP3    H149348   0.712   6.131   4.558 -0.7916 -2.4866  1.1346
 9311TIP3    H249349   0.750   6.132   4.704 -0.3407  0.4823  1.0484
 9312TIP3   OH249350   5.411   0.753   1.793 -0.0764  0.1362 -0.0935
 9312TIP3    H149351   5.434   0.846   1.801 -0.4172  0.0397  2.7444
 9312TIP3    H249352   5.315   0.752   1.795 -0.1717 -0.1902 -2.2320
 9313TIP3   OH249353   6.043   0.223   0.592  0.4430 -0.2910  0.5023
 9313TIP3    H149354   6.002   0.309   0.593  0.9201 -0.0620  0.8010
 9313TIP3    H249355   5.993   0.173   0.528  1.2698  0.7601 -1.0280
 9314TIP3   OH249356   6.383   5.022   1.994  0.1812 -0.4384  0.3206
 9314TIP3    H149357   6.313   4.999   1.933 -0.8357  1.1345  0.8290
 9314TIP3    H249358   6.441   5.081   1.945 -0.4067  0.4882  0.6995
 9315TIP3   OH249359   3.933   4.644  16.967  0.3346  0.1920  1.0138
 9315TIP3    H149360   4.013   4.654  16.915  0.1903 -1.3663  0.4474
 9315TIP3    H249361   3.960   4.663  17.056  1.6187 -1.3209  0.9909
 9316TIP3   OH249362   4.238   4.363  15.387  0.1935  0.4056  0.0412
 9316TIP3    H149363   4.263   4.318  15.306  0.3303 -0.1542  0.3882
 9316TIP3    H249364   4.153   4.403  15.368  0.1411  0.1239 -0.3194
 9317TIP3   OH249365   0.629   2.456   4.974 -0.1876  0.2929 -0.6040
 9317TIP3    H149366   0.720   2.463   5.002  0.5000  2.9461 -2.9936
 9317TIP3    H249367   0.622   2.367   4.938  2.4893  0.9433 -3.1628
 9318TIP3   OH249368   4.678   1.199   4.313  0.6275 -0.0526  0.0895
 9318TIP3    H149369   4.727   1.204   4.231  0.9438  0.1414  0.2842
 9318TIP3    H249370   4.586   1.196   4.287  0.7733 -1.8916 -0.3299
 9319TIP3   OH249371   3.948   1.405  15.264  0.4822 -0.0328  0.5059
 9319TIP3    H149372   4.024   1.439  15.311  0.6568 -0.3530  0.4552
 9319TIP3    H249373   3.983   1.369  15.183  0.2945 -0.2794  0.5298
 9320TIP3   OH249374   4.086   6.454   5.919 -0.1007  0.5478 -0.2340
 9320TIP3    H149375   4.175   6.439   5.951 -0.5668  0.4972  1.1153
 9320TIP3    H249376   4.030   6.410   5.982 -1.1014  0.6618 -1.0133
 9321TIP3   OH249377   5.539   4.030   3.110 -0.4740  0.0149 -0.0226
 9321TIP3    H149378   5.596   4.052   3.036  1.0285 -2.6949  0.2090
 9321TIP3    H249379   5.573   4.081   3.183  1.1135 -0.8670 -0.1188
 9322TIP3   OH249380   1.221   2.222  11.675 -0.5768 -0.3185 -0.0316
 9322TIP3    H149381   1.229   2.227  11.580  1.9055 -0.3396  0.1042
 9322TIP3    H249382   1.227   2.313  11.704 -2.6399 -0.1753  0.0940
 9323TIP3   OH249383   4.186   1.945   1.117 -0.1618  0.3638 -0.4765
 9323TIP3    H149384   4.266   1.998   1.124  0.4235 -0.2299 -2.0566
 9323TIP3    H249385   4.140   1.981   1.041  0.5858 -1.7119 -2.0213
 9324TIP3   OH249386   1.184   5.357   2.190  0.0467  0.0674 -0.0053
 9324TIP3    H149387   1.163   5.331   2.100 -0.7529 -1.2527  0.5281
 9324TIP3    H249388   1.103   5.344   2.238  0.2871  1.3747  0.8030
 9325TIP3   OH249389   4.096   4.201   5.181  0.6914  0.2422  0.0497
 9325TIP3    H149390   4.130   4.116   5.208 -0.5367  0.1126  1.3104
 9325TIP3    H249391   4.152   4.264   5.227  1.2896  0.1099 -0.4920
 9326TIP3   OH249392   0.840   0.960  12.220  0.5056  0.1893 -0.1884
 9326TIP3    H149393   0.879   0.873  12.213 -0.1542 -0.1656  0.5049
 9326TIP3    H249394   0.778   0.965  12.147  0.0452 -0.1786  0.1803
 9327TIP3   OH249395   4.438   2.422  11.862  0.6663  0.3304 -0.2790
 9327TIP3    H149396   4.403   2.371  11.790  0.4097  0.3892 -0.1953
 9327TIP3    H249397   4.440   2.362  11.936  0.8856  0.2834 -0.3223
 9328TIP3   OH249398   1.341   4.032  14.733  0.0814  0.4243  0.3347
 9328TIP3    H149399   1.284   4.051  14.658  0.2559 -0.0376  0.0776
 9328TIP3    H249400   1.406   4.102  14.732  1.3281 -0.6845 -1.2077
 9329TIP3   OH249401   2.761   0.177  17.188 -0.8338  0.4586  0.3329
 9329TIP3    H149402   2.822   0.109  17.161 -1.3600  0.7649 -1.8290
 9329TIP3    H249403   2.733   0.152  17.276  1.1099 -0.5702  0.6962
 9330TIP3   OH249404   6.538   5.120  16.014  0.4551  0.1546 -0.0608
 9330TIP3    H149405   6.454   5.163  15.995  0.4501 -0.2669 -1.0381
 9330TIP3    H249406   6.537   5.041  15.961  2.2004  0.9940 -1.4415
 9331TIP3   OH249407   4.196   5.674  15.227  0.0593 -0.2440 -0.2781
 9331TIP3    H149408   4.122   5.631  15.183 -0.2962  2.2367 -2.3391
 9331TIP3    H249409   4.162   5.699  15.313 -1.2215  0.0442 -0.8476
 9332TIP3   OH249410   3.828   1.779  13.271  0.2228 -0.4582  0.4153
 9332TIP3    H149411   3.888   1.718  13.314 -2.0945 -2.3107  1.2200
 9332TIP3    H249412   3.765   1.804  13.339  0.3467  1.9092 -0.2356
 9333TIP3   OH249413   4.560   6.622   1.485 -0.1988  0.5199  0.3278
 9333TIP3    H149414   4.480   6.596   1.439  0.5531  0.5465 -1.0482
 9333TIP3    H249415   4.536   6.619   1.577 -0.7083 -3.2271  0.2213
 9334TIP3   OH249416   1.051   3.728   6.210 -0.2618  0.4122  0.5370
 9334TIP3    H149417   1.085   3.705   6.296  0.3547 -1.3783 -0.1430
 9334TIP3    H249418   0.987   3.659   6.190  0.2792  0.2739 -0.8074
 9335TIP3   OH249419   1.187   3.342   2.249  0.9473  0.6264  0.0942
 9335TIP3    H149420   1.112   3.295   2.212  2.0362 -0.2029 -1.1437
 9335TIP3    H249421   1.149   3.421   2.288 -0.4235  0.9459 -1.7495
 9336TIP3   OH249422   2.559   2.082   0.565 -0.1448 -0.2317 -0.0576
 9336TIP3    H149423   2.592   2.157   0.516  1.0569 -1.0696 -0.5811
 9336TIP3    H249424   2.633   2.053   0.619 -0.2637 -1.6152 -0.5794
 9337TIP3   OH249425   6.030   5.962  15.286 -0.0277 -0.6252  0.1643
 9337TIP3    H149426   5.942   5.934  15.259  0.0366 -0.6437 -0.0338
 9337TIP3    H249427   6.015   6.029  15.353 -0.2069 -0.2079 -0.2851
 9338TIP3   OH249428   3.094   5.804   1.889  0.2933 -0.0308  0.1392
 9338TIP3    H149429   3.158   5.740   1.921  0.1431  0.6087  1.8491
 9338TIP3    H249430   3.119   5.886   1.931 -0.8861  0.5071 -0.1698
 9339TIP3   OH249431   3.317   2.062  16.311  0.1330  0.2976 -0.0135
 9339TIP3    H149432   3.382   1.992  16.322  2.1731  2.1835  0.7078
 9339TIP3    H249433   3.360   2.140  16.346 -2.7477  1.5931  0.9652
 9340TIP3   OH249434   6.291   1.476  14.897 -0.0163  0.4947 -0.2581
 9340TIP3    H149435   6.335   1.548  14.943 -0.6883  1.0212 -0.4172
 9340TIP3    H249436   6.345   1.461  14.819  0.4395  0.4419  0.0631
 9341TIP3   OH249437   3.347   5.598  13.313 -0.5007 -0.2465  0.0539
 9341TIP3    H149438   3.288   5.664  13.276 -1.7952 -0.6141  1.3649
 9341TIP3    H249439   3.306   5.573  13.396  1.1096 -1.1063  0.6343
 9342TIP3   OH249440   5.670   1.512   1.249  0.2699  0.2716  0.6836
 9342TIP3    H149441   5.762   1.489   1.235 -0.0642  0.1774 -1.8439
 9342TIP3    H249442   5.622   1.442   1.206 -1.0069  0.4328  1.8017
 9343TIP3   OH249443   0.861   3.278   3.336 -0.1000  0.4157  0.0189
 9343TIP3    H149444   0.899   3.201   3.294 -0.4984  0.4226 -0.3721
 9343TIP3    H249445   0.800   3.243   3.400 -1.4415  0.3673 -1.2193
 9344TIP3   OH249446   2.527   0.373  16.116  0.8000  0.0522 -0.0009
 9344TIP3    H149447   2.605   0.339  16.071  0.6107 -0.5080  0.0799
 9344TIP3    H249448   2.559   0.447  16.168  0.9155  1.1210 -1.5331
 9345TIP3   OH249449   3.078   0.717   6.102 -0.3266  0.1261 -0.6158
 9345TIP3    H149450   3.092   0.808   6.127  0.0472 -0.1111  0.0663
 9345TIP3    H249451   3.036   0.678   6.179 -0.2111 -0.3474 -0.7918
 9346TIP3   OH249452   4.450   5.929   5.286 -0.1094  0.1014 -1.0233
 9346TIP3    H149453   4.455   5.996   5.354 -0.6478 -2.0746  1.3306
 9346TIP3    H249454   4.363   5.939   5.248 -0.2647  0.6229 -0.5386
 9347TIP3   OH249455   2.779   6.392   6.284 -0.3426 -0.6417 -0.5717
 9347TIP3    H149456   2.854   6.357   6.332 -0.1338 -1.0336 -1.1756
 9347TIP3    H249457   2.722   6.317   6.271  0.9744 -1.2519 -3.5250
 9348TIP3   OH249458   1.583   0.348   3.995 -0.2198 -0.0551  0.0398
 9348TIP3    H149459   1.525   0.406   4.044 -0.4062  0.1460 -0.4126
 9348TIP3    H249460   1.523   0.291   3.946 -0.0416 -0.8205  0.6968
 9349TIP3   OH249461   0.449   5.187  16.720 -0.0110  0.7677  0.5046
 9349TIP3    H149462   0.537   5.225  16.723  1.2088 -1.4705 -2.1070
 9349TIP3    H249463   0.443   5.136  16.801  0.5438  1.9322  1.3125
 9350TIP3   OH249464   4.127   3.090  13.535 -0.6749 -0.3256 -0.8757
 9350TIP3    H149465   4.045   3.059  13.574 -0.8373  0.4505 -0.5796
 9350TIP3    H249466   4.103   3.168  13.485  0.2258  1.5482  1.3937
 9351TIP3   OH249467   0.925   0.326  12.883  0.3731  0.1569  0.1052
 9351TIP3    H149468   1.016   0.355  12.878  0.6089 -0.7072 -1.2272
 9351TIP3    H249469   0.929   0.240  12.925  0.2162 -0.0122 -0.2199
 9352TIP3   OH249470   2.595   2.145   5.174 -0.2562  0.3239  0.4290
 9352TIP3    H149471   2.600   2.064   5.225  2.0210 -0.3421 -0.7060
 9352TIP3    H249472   2.565   2.118   5.087  1.5706  0.4525 -0.2898
 9353TIP3   OH249473   6.642   4.622   2.550 -0.0134 -0.5422  0.4475
 9353TIP3    H149474   6.716   4.669   2.588 -1.6445  1.5438  1.2409
 9353TIP3    H249475   6.663   4.529   2.563  2.2241 -0.0100  1.0158
 9354TIP3   OH249476   4.826   1.590  17.253  0.0294 -0.3682 -0.3047
 9354TIP3    H149477   4.808   1.664  17.311  0.5588  0.8422 -1.6367
 9354TIP3    H249478   4.740   1.549  17.239 -0.3006  0.1076  0.2814
 9355TIP3   OH249479   4.706   1.843   3.863  0.3397  0.0415  0.3711
 9355TIP3    H149480   4.642   1.853   3.933  1.1262 -1.1204  1.3016
 9355TIP3    H249481   4.655   1.813   3.788 -0.4410  0.8110  0.5854
 9356TIP3   OH249482   4.109   4.917  10.749 -0.1225  0.2532  0.6476
 9356TIP3    H149483   4.068   4.858  10.685 -0.3857  0.8660  0.2400
 9356TIP3    H249484   4.201   4.891  10.750  0.5336  2.0557 -2.1280
 9357TIP3   OH249485   4.535   4.561  11.572 -0.1091  0.8010 -0.2754
 9357TIP3    H149486   4.569   4.649  11.562  0.7762  0.4059 -0.8559
 9357TIP3    H249487   4.612   4.504  11.570 -0.3792  0.1692  2.7681
 9358TIP3   OH249488   5.683   4.675   2.848  0.4180  0.2159 -0.2933
 9358TIP3    H149489   5.624   4.604   2.871  0.2364  0.1375 -0.9908
 9358TIP3    H249490   5.658   4.747   2.906  0.9711 -0.4600  0.7990
 9359TIP3   OH249491   2.143   5.128  14.058  0.0175  0.2095 -0.0949
 9359TIP3    H149492   2.209   5.114  14.126  0.2262  0.5990 -0.2152
 9359TIP3    H249493   2.125   5.222  14.061 -0.6364  0.0808  0.0321
 9360TIP3   OH249494   3.584   6.121  14.144  0.0491 -0.1656  0.2114
 9360TIP3    H149495   3.549   6.090  14.060  2.0481 -1.6352 -0.1488
 9360TIP3    H249496   3.507   6.133  14.199 -1.2647  0.2075 -1.6239
 9361TIP3   OH249497   2.215   0.470  11.766 -0.3277  0.2225 -0.5391
 9361TIP3    H149498   2.193   0.432  11.851  2.5479  0.5448  0.4521
 9361TIP3    H249499   2.213   0.396  11.706 -3.4188  0.1465 -0.5441
 9362TIP3   OH249500   4.184   0.380  12.615 -0.5670  0.1310  0.8594
 9362TIP3    H149501   4.132   0.368  12.694 -2.5698  1.8595 -0.0824
 9362TIP3    H249502   4.122   0.365  12.543  1.0877 -1.0359 -0.4266
 9363TIP3   OH249503   4.302   1.490   5.518 -0.6492  0.1139  0.4096
 9363TIP3    H149504   4.326   1.416   5.574  1.3212  1.1881  1.1210
 9363TIP3    H249505   4.227   1.529   5.561 -0.3850 -0.2447  1.2263
 9364TIP3   OH249506   6.151   1.428  13.292  0.5282 -0.6523 -0.1006
 9364TIP3    H149507   6.132   1.347  13.338 -1.0471 -0.5917 -0.5975
 9364TIP3    H249508   6.178   1.489  13.361 -3.1017 -0.1357  1.0762
 9365TIP3   OH249509   2.907   5.721  11.928  0.2098 -0.1724 -0.0945
 9365TIP3    H149510   2.864   5.686  11.850  0.9757 -1.3648 -0.0091
 9365TIP3    H249511   2.843   5.708  11.998  0.9381 -2.7299  0.2032
 9366TIP3   OH249512   2.453   0.480   3.873  0.4182  0.2297  0.1704
 9366TIP3    H149513   2.423   0.567   3.846 -0.7237  0.4505  2.0232
 9366TIP3    H249514   2.411   0.420   3.811 -2.9792  0.6398  1.8700
 9367TIP3   OH249515   3.396   5.526  16.379 -0.7360  0.0195 -0.3771
 9367TIP3    H149516   3.389   5.433  16.356  0.6661  0.4247 -2.8055
 9367TIP3    H249517   3.338   5.570  16.317 -1.9008  0.7470  1.1935
 9368TIP3   OH249518   2.142   6.349  11.354  0.4878  0.5979  0.3964
 9368TIP3    H149519   2.189   6.277  11.312 -1.0213 -1.7972  2.4493
 9368TIP3    H249520   2.188   6.362  11.437 -0.2254  0.8493  0.7593
 9369TIP3   OH249521   3.205   5.223  14.032  0.3994  0.6524  0.3499
 9369TIP3    H149522   3.192   5.200  13.940 -0.4103  1.2875  0.2883
 9369TIP3    H249523   3.119   5.206  14.072 -0.1005  2.9807  0.4024
 9370TIP3   OH249524   6.083   1.541   3.221 -0.4254  0.4109  0.6962
 9370TIP3    H149525   6.166   1.588   3.233  0.3215 -0.6905 -0.0477
 9370TIP3    H249526   6.108   1.449   3.218 -1.7031  0.0564  0.5513
 9371TIP3   OH249527   0.971   2.087   4.304  0.0348  0.1525 -0.4480
 9371TIP3    H149528   0.956   2.092   4.209 -1.9633  1.0185 -0.1409
 9371TIP3    H249529   0.943   1.998   4.327  0.4394 -0.0300 -0.6605
 9372TIP3   OH249530   3.234   4.494   1.410 -0.3645  0.0172 -0.1482
 9372TIP3    H149531   3.283   4.482   1.329 -0.7464 -3.5861  0.0001
 9372TIP3    H249532   3.269   4.428   1.469 -2.1982  0.4766  1.5553
 9373TIP3   OH249533   6.344   0.422   0.448 -0.0188 -0.4821  0.0058
 9373TIP3    H149534   6.423   0.476   0.437 -1.0279  0.6391 -2.3167
 9373TIP3    H249535   6.327   0.424   0.542  0.6965  2.2621  0.1614
 9374TIP3   OH249536   4.189   4.341   1.771 -0.2123 -0.8691  0.1088
 9374TIP3    H149537   4.275   4.382   1.781 -0.4683 -0.0567 -0.8824
 9374TIP3    H249538   4.160   4.324   1.861  0.0557  0.8112  0.5450
 9375TIP3   OH249539   3.495   6.600  14.136  0.3578  0.3453  0.5211
 9375TIP3    H149540   3.556   6.534  14.170 -0.5694 -0.0279  1.5362
 9375TIP3    H249541   3.446   6.554  14.068 -0.4802 -0.1346  1.4189
 9376TIP3   OH249542   0.165   3.220  16.906 -0.1841  0.2246  0.0330
 9376TIP3    H149543   0.226   3.159  16.947 -1.6210 -1.2911  0.0435
 9376TIP3    H249544   0.220   3.285  16.863  1.3816  0.3385  2.1036
 9377TIP3   OH249545   0.473   6.184  12.118  0.1301 -0.2195 -0.1215
 9377TIP3    H149546   0.477   6.243  12.042  1.4649 -0.8294 -0.5687
 9377TIP3    H249547   0.515   6.103  12.087  0.9078 -0.4028  1.3239
 9378TIP3   OH249548   2.562   2.232  16.446  0.0610  0.1619  0.3355
 9378TIP3    H149549   2.586   2.320  16.417  2.9784 -0.4268  0.6509
 9378TIP3    H249550   2.481   2.244  16.496  1.1323  2.8952  1.6116
 9379TIP3   OH249551   3.164   3.273   0.914 -0.0253  0.1840  0.3385
 9379TIP3    H149552   3.093   3.209   0.913  0.6629 -0.5864 -0.5799
 9379TIP3    H249553   3.225   3.240   0.980  0.4437 -0.2520 -0.3017
 9380TIP3   OH249554   4.282   2.128   5.161 -0.2018  0.0376 -0.0747
 9380TIP3    H149555   4.345   2.082   5.105  0.4146  2.3059 -1.4079
 9380TIP3    H249556   4.337   2.167   5.229 -0.2822  1.1245 -0.6153
 9381TIP3   OH249557   1.361   1.604  15.645  0.1128 -0.1408 -0.3731
 9381TIP3    H149558   1.435   1.556  15.682  0.4315  0.2998 -0.4273
 9381TIP3    H249559   1.289   1.541  15.644  0.9528 -1.1621 -1.9971
 9382TIP3   OH249560   5.578   1.688   3.212 -0.1658 -0.7588 -0.0984
 9382TIP3    H149561   5.520   1.618   3.242 -0.6276  0.5675  2.4198
 9382TIP3    H249562   5.662   1.669   3.252  0.3240 -1.0095 -1.2057
 9383TIP3   OH249563   2.264   4.891  13.072  0.6603  0.1630  0.0703
 9383TIP3    H149564   2.317   4.877  12.993  0.1951  1.3953 -0.4885
 9383TIP3    H249565   2.177   4.910  13.038  0.1847 -0.4106  0.9431
 9384TIP3   OH249566   2.438   4.813  16.896  0.1297  0.1926 -0.0984
 9384TIP3    H149567   2.452   4.842  16.987  0.7357  1.6526 -0.6206
 9384TIP3    H249568   2.527   4.805  16.861 -0.1086 -0.2168 -0.6080
 9385TIP3   OH249569   1.613   3.448   3.827 -0.1199 -0.3299 -0.0718
 9385TIP3    H149570   1.627   3.428   3.735  0.0928  0.5792 -0.2481
 9385TIP3    H249571   1.573   3.369   3.863  0.8626 -1.1227 -0.6827
 9386TIP3   OH249572   6.459   4.617   4.335  0.1091  0.5472  0.1066
 9386TIP3    H149573   6.406   4.582   4.263 -0.1308  0.0821  0.4973
 9386TIP3    H249574   6.500   4.539   4.373 -0.5822  0.6589  1.1180
 9387TIP3   OH249575   3.425   2.039  10.808 -0.0805 -0.1266  0.8163
 9387TIP3    H149576   3.401   2.102  10.740 -0.0767 -0.5016  0.4573
 9387TIP3    H249577   3.385   1.957  10.779  1.2206 -0.6499  0.4535
 9388TIP3   OH249578   0.068   5.417   5.320  0.1882  0.5450  0.3109
 9388TIP3    H149579   0.069   5.507   5.352 -0.1719  0.7391 -0.2177
 9388TIP3    H249580  -0.023   5.389   5.328  0.4511 -0.0893  1.3186
 9389TIP3   OH249581   2.408   3.106  15.981 -0.4822  0.1321 -0.3943
 9389TIP3    H149582   2.395   3.169  16.051 -0.2032  0.1489 -0.3539
 9389TIP3    H249583   2.337   3.122  15.920 -0.9785 -0.1748  0.0948
 9390TIP3   OH249584   4.181   5.945   4.491 -0.6517 -0.1779 -0.1492
 9390TIP3    H149585   4.117   6.011   4.467  0.1771  0.5924 -0.2759
 9390TIP3    H249586   4.251   5.954   4.426 -0.5779 -1.2719 -0.2561
 9391TIP3   OH249587   2.829   6.269  15.545  0.6015  0.0848 -0.7007
 9391TIP3    H149588   2.788   6.354  15.560 -0.5949 -0.3793 -1.1659
 9391TIP3    H249589   2.871   6.247  15.628  0.5016  0.8968 -0.4269
 9392TIP3   OH249590   3.495   0.252  12.001  0.2648  0.5163 -0.3465
 9392TIP3    H149591   3.471   0.248  11.908 -0.9065 -0.0678 -0.0408
 9392TIP3    H249592   3.590   0.250  12.001  0.2911  0.5694 -1.5365
 9393TIP3   OH249593   2.600   4.469  14.396  0.1417  0.1572  0.0186
 9393TIP3    H149594   2.692   4.497  14.397 -0.1443  1.1440  0.8906
 9393TIP3    H249595   2.601   4.383  14.438  0.5671  0.5405  0.8203
 9394TIP3   OH249596   1.467   1.195  14.931  0.0774 -0.0684  0.0537
 9394TIP3    H149597   1.388   1.185  14.878  0.3522 -2.3851 -0.0310
 9394TIP3    H249598   1.438   1.179  15.020  0.5325 -1.7066 -0.0604
 9395TIP3   OH249599   3.334   4.343  16.344 -0.6543  0.5765 -0.6238
 9395TIP3    H149600   3.413   4.291  16.363 -0.0554  1.4720 -0.6097
 9395TIP3    H249601   3.281   4.336  16.424 -1.7349 -1.9897 -1.4809
 9396TIP3   OH249602   3.784   4.616   0.982 -0.5135  0.5235 -0.1841
 9396TIP3    H149603   3.703   4.572   0.958  0.3686 -1.8697  0.9047
 9396TIP3    H249604   3.767   4.655   1.067 -1.0220  1.6072 -0.7562
 9397TIP3   OH249605   0.899   5.780   3.326 -0.3416  0.0973  0.3915
 9397TIP3    H149606   0.866   5.777   3.237  0.1732  2.2012  0.0881
 9397TIP3    H249607   0.933   5.691   3.342 -0.8027 -0.4213 -1.3379
 9398TIP3   OH249608   2.209   2.447   1.411  0.0545 -0.2913 -0.2625
 9398TIP3    H149609   2.264   2.508   1.361  0.4070  0.2540  0.7593
 9398TIP3    H249610   2.269   2.405   1.472 -0.8937  1.6896  2.2051
 9399TIP3   OH249611   3.563   0.266   5.334 -0.0415 -0.1856  0.1720
 9399TIP3    H149612   3.654   0.247   5.315  0.2693 -0.4884  1.7665
 9399TIP3    H249613   3.561   0.280   5.429 -1.8069 -1.1463  0.3209
 9400TIP3   OH249614   6.295   1.306  12.754  0.5373  0.0880 -0.6718
 9400TIP3    H149615   6.268   1.217  12.729  1.1745 -0.1932 -0.3803
 9400TIP3    H249616   6.338   1.340  12.675  1.5433 -0.3846 -0.3358
 9401TIP3   OH249617   0.156   1.076   4.236 -0.1512  0.1019 -0.2115
 9401TIP3    H149618   0.233   1.021   4.221 -1.8546 -2.3412 -0.6357
 9401TIP3    H249619   0.118   1.090   4.149  0.1064  1.8091 -0.0822
 9402TIP3   OH249620   2.319   5.643   6.124  0.3532  0.2051 -0.5734
 9402TIP3    H149621   2.308   5.549   6.139 -1.3318  0.6350  1.5615
 9402TIP3    H249622   2.383   5.650   6.054 -0.5961 -2.5550 -1.8536
 9403TIP3   OH249623   6.696   4.083   2.025  0.6027 -0.7148  0.2708
 9403TIP3    H149624   6.785   4.075   2.058  0.1642 -0.5030  1.5951
 9403TIP3    H249625   6.665   4.167   2.060  0.7734  0.5977 -2.4628
 9404TIP3   OH249626   4.141   3.435  10.913 -0.1300 -0.0743 -0.0079
 9404TIP3    H149627   4.052   3.469  10.913 -0.3201 -0.5273 -1.3999
 9404TIP3    H249628   4.137   3.357  10.968 -0.6256 -0.1907 -0.2115
 9405TIP3   OH249629   1.238   5.576   1.211  0.0507 -0.6584  0.0164
 9405TIP3    H149630   1.171   5.637   1.179  0.0489 -0.9100 -0.4760
 9405TIP3    H249631   1.201   5.537   1.290  0.0291 -0.0632  0.3065
 9406TIP3   OH249632   0.741   4.462  16.900 -0.0613  0.4077 -0.3638
 9406TIP3    H149633   0.729   4.536  16.960  0.8114  1.2955 -1.2347
 9406TIP3    H249634   0.697   4.489  16.820 -1.6996 -1.0030  0.0118
 9407TIP3   OH249635   5.358   3.721   5.865 -0.0047 -0.1468 -0.5091
 9407TIP3    H149636   5.367   3.626   5.864 -2.9999 -0.6097  1.7283
 9407TIP3    H249637   5.266   3.737   5.843 -0.1665  2.0064  1.3189
 9408TIP3   OH249638   2.376   2.077  16.148  0.4176 -0.2850  0.0471
 9408TIP3    H149639   2.414   1.999  16.108 -1.9036 -1.2849 -0.3739
 9408TIP3    H249640   2.387   2.064  16.242  1.4698 -0.3162 -0.0664
 9409TIP3   OH249641   3.222   1.161   2.478 -0.2166  0.6057 -0.4106
 9409TIP3    H149642   3.158   1.132   2.412  0.3764 -0.2255 -0.6343
 9409TIP3    H249643   3.307   1.145   2.437  0.2030 -1.2088  1.0422
 9410TIP3   OH249644   5.303   6.298   3.194 -0.2065  0.2091 -0.2289
 9410TIP3    H149645   5.208   6.301   3.183 -0.1695 -0.3838 -0.7498
 9410TIP3    H249646   5.335   6.259   3.113  0.5255  0.8597 -0.2532
 9411TIP3   OH249647   5.459   1.360  12.252 -0.1986  0.2154  0.9653
 9411TIP3    H149648   5.502   1.412  12.320 -2.8473  0.4784  2.5807
 9411TIP3    H249649   5.431   1.280  12.298 -1.8324  0.2919  0.1469
 9412TIP3   OH249650   3.412   0.962  13.667 -0.5259  0.0779  0.1798
 9412TIP3    H149651   3.331   0.958  13.718  0.8203  0.8903  2.5680
 9412TIP3    H249652   3.466   0.891  13.702 -0.0273 -0.1920 -1.0867
 9413TIP3   OH249653   2.973   1.702  13.352 -0.3246 -0.3928 -0.1755
 9413TIP3    H149654   3.005   1.630  13.297  0.7015  0.7787 -1.1950
 9413TIP3    H249655   3.015   1.780  13.315 -1.4348  0.7394  0.8616
 9414TIP3   OH249656   2.881   4.905   2.205 -0.4043  0.3658  0.1173
 9414TIP3    H149657   2.810   4.841   2.206  1.6917 -2.1434 -0.1711
 9414TIP3    H249658   2.887   4.935   2.296 -4.4718  4.0364 -0.5097
 9415TIP3   OH249659   1.630   4.123  16.272  0.2093 -0.7728 -0.4664
 9415TIP3    H149660   1.697   4.072  16.317  2.2630  1.2178 -1.1037
 9415TIP3    H249661   1.668   4.144  16.187 -0.9188  1.0261 -0.5900
 9416TIP3   OH249662   1.125   0.404   5.723 -0.0989 -0.0453 -0.3592
 9416TIP3    H149663   1.074   0.410   5.642 -0.8137  1.2192  0.1489
 9416TIP3    H249664   1.203   0.355   5.699 -1.3812 -1.7544 -1.2413
 9417TIP3   OH249665   6.766   3.495  13.152  0.1472 -0.4720 -0.6043
 9417TIP3    H149666   6.683   3.538  13.167  0.2053 -0.7993  0.8251
 9417TIP3    H249667   6.752   3.440  13.075 -0.9727 -0.5626 -0.3430
 9418TIP3   OH249668   4.134   0.926   2.476  0.9963 -0.2105  0.5791
 9418TIP3    H149669   4.155   0.846   2.524 -0.1943  0.1106  1.6855
 9418TIP3    H249670   4.049   0.953   2.511 -0.1946 -0.2290 -2.0678
 9419TIP3   OH249671   0.664   4.708  13.272 -0.3108  0.1837 -0.5235
 9419TIP3    H149672   0.623   4.634  13.316 -1.7582  1.5940  0.6057
 9419TIP3    H249673   0.746   4.723  13.319 -0.6276  0.0794  0.0647
 9420TIP3   OH249674   3.356   2.770   6.767 -0.7454 -0.5305 -0.0518
 9420TIP3    H149675   3.299   2.796   6.695 -0.9613 -1.3221 -0.1782
 9420TIP3    H249676   3.348   2.675   6.771 -0.0323 -0.5832  0.4311
 9421TIP3   OH249677   2.142   5.209  14.507  0.0275  0.2095 -0.2730
 9421TIP3    H149678   2.230   5.181  14.530  1.0128  1.7380 -1.8806
 9421TIP3    H249679   2.084   5.158  14.563  2.0042  0.5321  2.2077
 9422TIP3   OH249680   5.611   1.548   4.653 -0.5625  0.4267 -0.2213
 9422TIP3    H149681   5.658   1.627   4.628 -0.0919 -0.0193 -0.7855
 9422TIP3    H249682   5.669   1.505   4.716 -0.7197  0.4262 -0.0777
 9423TIP3   OH249683   5.686   1.061   3.928  0.2182  0.5056 -0.1911
 9423TIP3    H149684   5.715   0.996   3.863 -0.3774 -1.1818  1.1429
 9423TIP3    H249685   5.616   1.016   3.976 -0.1891  2.1546  0.8203
 9424TIP3   OH249686   5.628   3.352   5.221  0.1985 -0.2988 -0.1885
 9424TIP3    H149687   5.691   3.282   5.240  0.8915  0.3484 -0.0973
 9424TIP3    H249688   5.628   3.359   5.126 -1.7860 -2.1576 -0.4206
 9425TIP3   OH249689   6.667   1.967   0.153 -0.3131  0.0727  0.3805
 9425TIP3    H149690   6.627   2.054   0.158  1.0084  0.8477 -1.5124
 9425TIP3    H249691   6.617   1.922   0.084  0.6811  0.3035 -0.5115
 9426TIP3   OH249692   0.299   3.436   2.546 -0.0753  0.1585 -0.1776
 9426TIP3    H149693   0.311   3.349   2.510  1.2036  0.1680  0.2062
 9426TIP3    H249694   0.351   3.437   2.626  2.0605  2.0646 -1.4625
 9427TIP3   OH249695   5.345   6.562   3.405 -0.6073 -0.0832  0.1042
 9427TIP3    H149696   5.388   6.596   3.484 -2.2278  0.9840  0.5622
 9427TIP3    H249697   5.389   6.606   3.333 -0.8905  0.9578  0.5594
 9428TIP3   OH249698   1.040   5.576   0.671  0.0381 -0.1717 -0.2142
 9428TIP3    H149699   1.113   5.533   0.717 -2.0988 -2.5267  1.2002
 9428TIP3    H249700   1.029   5.659   0.718  3.7647  1.9355 -2.5307
 9429TIP3   OH249701   3.720   4.928   6.363  0.3995  0.2789 -0.2345
 9429TIP3    H149702   3.757   4.878   6.436 -1.6556 -0.6326  0.2509
 9429TIP3    H249703   3.692   5.011   6.403 -0.5252 -0.1309 -0.0220
 9430TIP3   OH249704   3.076   2.983   1.588  0.1621  0.2588  0.6448
 9430TIP3    H149705   3.061   2.894   1.557  0.3526  0.9862 -1.6771
 9430TIP3    H249706   3.037   3.040   1.521  0.7636  1.9515  1.6478
 9431TIP3   OH249707   5.141   6.362   2.450 -0.5419  0.3326 -0.5879
 9431TIP3    H149708   5.190   6.290   2.412 -0.3119 -0.0186  0.3645
 9431TIP3    H249709   5.051   6.329   2.457 -0.1397 -0.4581  1.3067
 9432TIP3   OH249710   1.476   5.050  16.886  0.7928  0.1020  0.0398
 9432TIP3    H149711   1.404   5.112  16.871  0.0693 -1.4216 -4.0848
 9432TIP3    H249712   1.433   4.965  16.893  2.0729 -0.7622 -1.8849
 9433TIP3   OH249713   1.036   4.082   2.876  0.0070  0.4904  0.6233
 9433TIP3    H149714   1.121   4.088   2.832 -0.2061  0.8815  0.2631
 9433TIP3    H249715   0.979   4.140   2.826 -0.6529 -0.2936  0.4605
 9434TIP3   OH249716   4.664   2.148   3.888  0.5102  0.0514  0.1198
 9434TIP3    H149717   4.593   2.152   3.823  0.1136  0.8484  0.5892
 9434TIP3    H249718   4.683   2.055   3.897 -1.0891 -0.2486  0.6413
 9435TIP3   OH249719   6.581   0.976  14.949  0.7683 -0.3008 -0.0131
 9435TIP3    H149720   6.624   0.989  15.033  1.8603  0.8276 -0.7072
 9435TIP3    H249721   6.509   1.039  14.948  1.6016  0.6766 -0.4484
 9436TIP3   OH249722   1.704   1.960   2.548  0.0264  0.8464 -0.0390
 9436TIP3    H149723   1.678   2.018   2.476  0.7461  0.6306 -0.4740
 9436TIP3    H249724   1.751   2.016   2.609  0.7552  0.7247 -0.4780
 9437TIP3   OH249725   4.602   2.947  14.697 -0.2111  0.2864 -0.0649
 9437TIP3    H149726   4.650   3.029  14.700  1.2080 -0.5272  0.5245
 9437TIP3    H249727   4.633   2.903  14.618 -1.0444  0.3633 -0.4375
 9438TIP3   OH249728   6.653   1.936   2.010  0.4285  0.0338 -0.9655
 9438TIP3    H149729   6.649   1.929   2.105  1.0214 -0.2184 -0.9529
 9438TIP3    H249730   6.616   1.854   1.978  1.1742 -0.3320 -0.9261
 9439TIP3   OH249731   2.419   1.961  14.775 -0.4476 -0.5305  0.1893
 9439TIP3    H149732   2.384   1.890  14.722  2.0688 -0.9339 -1.1066
 9439TIP3    H249733   2.504   1.928  14.806 -1.6247 -0.2020  4.3279
 9440TIP3   OH249734   2.197   1.274  11.406  0.2932 -0.3494 -0.1491
 9440TIP3    H149735   2.171   1.192  11.365  0.3562 -1.0999  1.2360
 9440TIP3    H249736   2.283   1.255  11.443  1.4162  1.1066 -1.8937
 9441TIP3   OH249737   0.369   1.491   3.457  0.1391  0.1819  0.0327
 9441TIP3    H149738   0.381   1.398   3.436  0.1505  0.0509  0.5992
 9441TIP3    H249739   0.377   1.495   3.552 -0.8437  0.6154  0.1162
 9442TIP3   OH249740   5.339   3.664   1.438 -0.0327 -0.1037  0.2140
 9442TIP3    H149741   5.334   3.687   1.345  0.3251 -0.4216  0.1110
 9442TIP3    H249742   5.312   3.743   1.484  1.2803  0.5625 -0.1163
 9443TIP3   OH249743   4.662   4.250   5.397 -0.2680  0.1992 -0.3812
 9443TIP3    H149744   4.571   4.278   5.411 -0.1742 -0.4889  2.1005
 9443TIP3    H249745   4.657   4.154   5.399  0.6717  0.1562  1.3642
 9444TIP3   OH249746   2.795   1.437   6.398  0.6690  0.3554 -0.3291
 9444TIP3    H149747   2.875   1.434   6.346  1.8802  0.4237  1.4310
 9444TIP3    H249748   2.770   1.529   6.399  1.7740  0.6670  0.8021
 9445TIP3   OH249749   0.740   1.150  12.819 -0.0058  0.0721 -0.2535
 9445TIP3    H149750   0.785   1.157  12.735  0.7897  2.6575  0.2999
 9445TIP3    H249751   0.809   1.163  12.884 -1.1074  1.3833  0.6966
 9446TIP3   OH249752   5.325   0.225   1.479 -0.9132 -0.4711  0.3973
 9446TIP3    H149753   5.248   0.213   1.423  0.3444 -1.0167 -1.3070
 9446TIP3    H249754   5.376   0.294   1.435  0.3437 -1.2587  0.5821
 9447TIP3   OH249755   3.004   4.976  11.531 -0.2313 -0.0914  0.2204
 9447TIP3    H149756   2.998   4.945  11.440 -0.8052 -0.0728  0.2455
 9447TIP3    H249757   3.063   4.914  11.573  0.1524 -0.0151 -0.2023
 9448TIP3   OH249758   4.877   4.286  12.290 -0.2010 -0.5936  0.4643
 9448TIP3    H149759   4.919   4.215  12.339 -1.2293 -0.4569  1.5813
 9448TIP3    H249760   4.950   4.337  12.255  0.5601 -2.0241 -0.1227
 9449TIP3   OH249761   6.410   1.700   0.630  0.4880 -0.0533 -0.2330
 9449TIP3    H149762   6.331   1.721   0.681  0.0881 -3.5798  0.9416
 9449TIP3    H249763   6.376   1.659   0.550  1.0354 -1.3139  0.1412
 9450TIP3   OH249764   0.281   3.881  12.302  0.0233 -0.1718  0.5646
 9450TIP3    H149765   0.293   3.893  12.208 -2.2849  0.5083  0.2946
 9450TIP3    H249766   0.266   3.787  12.312  1.4463 -0.4336  0.4461
 9451TIP3   OH249767   1.708   0.623   3.688 -0.3507 -0.2998  0.0170
 9451TIP3    H149768   1.736   0.532   3.698  0.1422 -0.2802 -1.0495
 9451TIP3    H249769   1.789   0.670   3.666 -0.6775  0.3161  0.1267
 9452TIP3   OH249770   3.295   3.741   0.161 -0.7696 -0.0898 -0.2094
 9452TIP3    H149771   3.206   3.706   0.167  0.0476 -2.1215  1.7983
 9452TIP3    H249772   3.312   3.776   0.249  0.3679  0.3637 -0.5960
 9453TIP3   OH249773   4.876   4.332  14.366 -0.2580 -0.4520 -0.0684
 9453TIP3    H149774   4.904   4.361  14.279 -0.5738 -0.6833 -0.2482
 9453TIP3    H249775   4.812   4.398  14.394 -1.4241 -1.2665 -0.7256
 9454TIP3   OH249776   4.429   0.107  10.920  0.4757 -0.7547  0.2397
 9454TIP3    H149777   4.419   0.015  10.897 -0.4261 -0.5319 -0.3470
 9454TIP3    H249778   4.351   0.149  10.884  1.7375  0.5471 -1.0977
 9455TIP3   OH249779   5.236   6.515  14.544  0.2699  0.1700  0.2784
 9455TIP3    H149780   5.294   6.589  14.561  0.2851 -0.0762  1.3826
 9455TIP3    H249781   5.172   6.549  14.481  0.5621  0.9700  0.3993
 9456TIP3   OH249782   1.355   6.124   1.259  0.0322  0.0359  0.0372
 9456TIP3    H149783   1.328   6.179   1.185  0.5080  2.1221  1.3409
 9456TIP3    H249784   1.351   6.182   1.335 -0.0897 -1.9365  1.6283
 9457TIP3   OH249785   3.550   4.797   1.077  0.2654  0.1406 -0.9604
 9457TIP3    H149786   3.570   4.877   1.029  0.9694  1.8133  1.8654
 9457TIP3    H249787   3.460   4.810   1.108 -0.4519 -1.2415 -2.2999
 9458TIP3   OH249788   1.946   6.769   1.807  0.7164  0.3077 -0.9652
 9458TIP3    H149789   1.914   6.719   1.882 -0.8608 -0.0881 -1.8461
 9458TIP3    H249790   1.957   6.858   1.840 -0.3666  0.2323 -0.3404
 9459TIP3   OH249791   3.038   0.662   2.298  0.2942 -0.4271 -0.2234
 9459TIP3    H149792   2.982   0.687   2.225 -0.7756 -1.0045  0.3888
 9459TIP3    H249793   3.081   0.744   2.324 -2.6983  0.7998  1.3715
 9460TIP3   OH249794   4.242   2.365   2.267 -0.3151  0.1810  0.0341
 9460TIP3    H149795   4.162   2.330   2.306 -0.1460  0.8435  1.0274
 9460TIP3    H249796   4.286   2.410   2.340  1.0840 -0.3804 -0.4339
 9461TIP3   OH249797   5.771   6.146  15.982  0.1667 -0.1830 -0.2167
 9461TIP3    H149798   5.738   6.221  15.933 -1.6961 -0.9486 -0.2120
 9461TIP3    H249799   5.860   6.132  15.949 -0.0887  0.9547 -1.4421
 9462TIP3   OH249800   3.335   4.357  15.041 -0.5609 -0.6257  0.5308
 9462TIP3    H149801   3.414   4.408  15.059 -0.8421  0.3222 -0.7112
 9462TIP3    H249802   3.359   4.267  15.062  1.1622 -0.4962 -0.6455
 9463TIP3   OH249803   4.600   0.903   3.554  0.1594  0.4570  0.3171
 9463TIP3    H149804   4.687   0.923   3.520  0.3549 -0.0629  0.4992
 9463TIP3    H249805   4.579   0.976   3.612 -0.9349  2.3019 -2.2094
 9464TIP3   OH249806   6.399   5.760   5.196 -0.7263 -0.3929  0.8970
 9464TIP3    H149807   6.484   5.790   5.228 -0.6997  1.1752 -0.4747
 9464TIP3    H249808   6.417   5.678   5.151  0.3885  0.6749 -0.7139
 9465TIP3   OH249809   4.683   5.126   2.068  0.0618 -0.0757 -0.0895
 9465TIP3    H149810   4.645   5.038   2.069 -0.0197 -0.0492 -0.5337
 9465TIP3    H249811   4.757   5.119   2.008  1.3877 -0.3811  1.5148
 9466TIP3   OH249812   3.098   1.921  16.218  0.7300 -0.0061 -0.3205
 9466TIP3    H149813   3.144   1.975  16.282  1.7782 -1.0165 -0.1976
 9466TIP3    H249814   3.131   1.833  16.233  1.4144 -0.1836 -2.6141
 9467TIP3   OH249815   4.055   5.974  11.769 -0.1606  0.2487  0.5688
 9467TIP3    H149816   4.021   6.064  11.762  1.0742  0.9381  2.4305
 9467TIP3    H249817   4.028   5.946  11.857  0.8819 -0.5560  0.6526
 9468TIP3   OH249818   3.623   4.385  13.186  0.2853 -0.1825  0.0363
 9468TIP3    H149819   3.604   4.364  13.277  0.8825 -1.5363 -0.1227
 9468TIP3    H249820   3.571   4.463  13.168 -0.3498 -0.2745  1.3420
 9469TIP3   OH249821   5.396   5.240   5.208 -0.7251 -0.3873 -0.5542
 9469TIP3    H149822   5.352   5.157   5.190 -1.6744 -0.3893  1.4354
 9469TIP3    H249823   5.489   5.220   5.199 -0.8770 -1.9930  0.8767
 9470TIP3   OH249824   1.654   4.255  15.583 -0.4657 -0.0841  0.4441
 9470TIP3    H149825   1.595   4.322  15.549 -0.2725 -0.3632 -0.4949
 9470TIP3    H249826   1.642   4.181  15.523  0.2135 -0.4454  0.7424
 9471TIP3   OH249827   1.842   0.500  12.125 -0.0959  0.2218 -0.0099
 9471TIP3    H149828   1.870   0.524  12.214  0.3544  1.5618 -0.5011
 9471TIP3    H249829   1.759   0.546  12.113 -1.1389 -1.4617  0.3765
 9472TIP3   OH249830   3.886   0.263   3.442 -0.1461  0.3897  0.4839
 9472TIP3    H149831   3.825   0.246   3.370 -0.5632  0.7417  0.7518
 9472TIP3    H249832   3.928   0.178   3.457 -0.7066  0.0945  0.4242
 9473TIP3   OH249833   3.703   5.248  13.558  0.3819 -0.1119 -0.1161
 9473TIP3    H149834   3.707   5.186  13.485  1.5865 -0.5143  0.2680
 9473TIP3    H249835   3.730   5.197  13.634 -1.2790  0.1795  0.7267
 9474TIP3   OH249836   2.629   5.970   3.625  0.8415 -0.0369 -0.4335
 9474TIP3    H149837   2.640   6.022   3.545  0.2162 -1.0571 -1.2113
 9474TIP3    H249838   2.563   5.904   3.602  0.1025  0.0860  1.1427
 9475TIP3   OH249839   1.233   2.991  16.503  0.0034 -0.1262 -0.0695
 9475TIP3    H149840   1.283   2.967  16.581 -1.3738 -0.3374  0.7711
 9475TIP3    H249841   1.218   2.908  16.458  1.4751  0.0766 -1.0302
 9476TIP3   OH249842   3.655   2.688   0.960  0.7487 -0.0452 -0.4634
 9476TIP3    H149843   3.734   2.679   1.012  1.1703 -1.1249 -1.2497
 9476TIP3    H249844   3.584   2.685   1.024  1.2000 -2.3566  0.0230
 9477TIP3   OH249845   0.355   4.573  13.219 -0.2839 -0.7340  0.5563
 9477TIP3    H149846   0.439   4.539  13.251 -0.0940 -1.8774 -1.0312
 9477TIP3    H249847   0.306   4.593  13.299  0.9798 -1.3340  1.5302
 9478TIP3   OH249848   2.880   2.420   1.278  0.1281  0.0659  0.4772
 9478TIP3    H149849   2.910   2.498   1.231 -1.7732  0.3452 -0.3631
 9478TIP3    H249850   2.870   2.449   1.369  3.2230 -0.3114  1.0459
 9479TIP3   OH249851   6.513   0.211  16.563 -0.6554 -0.3862 -0.0571
 9479TIP3    H149852   6.594   0.261  16.559 -0.6937 -0.1865  1.2006
 9479TIP3    H249853   6.472   0.238  16.646 -0.9855 -2.0150  0.3517
 9480TIP3   OH249854   5.987   4.006   3.093 -0.0037  0.3867 -0.4402
 9480TIP3    H149855   6.060   4.033   3.038 -0.7130  2.3464 -0.4987
 9480TIP3    H249856   5.936   4.086   3.106 -1.9015 -0.8272 -0.0376
 9481TIP3   OH249857   5.657   3.178   1.892 -0.0248  0.1071  0.1981
 9481TIP3    H149858   5.690   3.193   1.804 -2.1884  0.0074 -0.6790
 9481TIP3    H249859   5.638   3.266   1.926 -0.1692  0.0827  0.1788
 9482TIP3   OH249860   1.065   0.643  12.524  0.1128 -0.3976 -0.0559
 9482TIP3    H149861   0.978   0.678  12.542  0.0048 -0.9629  0.5207
 9482TIP3    H249862   1.056   0.598  12.440  0.1344  0.5126 -0.5618
 9483TIP3   OH249863   0.860   2.913  16.886 -1.0274  0.4726 -0.1986
 9483TIP3    H149864   0.827   2.962  16.961  0.0338  1.0994 -0.1239
 9483TIP3    H249865   0.953   2.900  16.905 -0.9183 -0.0353 -1.0460
 9484TIP3   OH249866   0.750   6.119   3.928  0.1219 -0.3272  0.5807
 9484TIP3    H149867   0.769   6.027   3.942 -0.4958 -0.6180 -0.4569
 9484TIP3    H249868   0.766   6.134   3.835  1.8637  1.0226  1.0386
 9485TIP3   OH249869   6.108   6.013   4.353 -0.4306 -0.0219 -0.1806
 9485TIP3    H149870   6.021   6.051   4.341 -0.4276  0.2481  0.5665
 9485TIP3    H249871   6.152   6.027   4.269 -1.3060 -0.7108 -0.7627
 9486TIP3   OH249872   2.476   5.650   5.844 -0.1534 -0.8214  0.0050
 9486TIP3    H149873   2.559   5.625   5.882  0.1616 -0.5649 -0.4997
 9486TIP3    H249874   2.436   5.567   5.816  0.2867 -0.8817 -0.4564
 9487TIP3   OH249875   4.054   1.350  12.228 -0.1245  0.1108 -0.5080
 9487TIP3    H149876   4.001   1.412  12.278  1.7434  0.2930  1.4090
 9487TIP3    H249877   4.075   1.280  12.291  2.8960  0.6979 -0.6818
 9488TIP3   OH249878   3.514   3.242  15.397  0.1148 -0.0626 -0.4880
 9488TIP3    H149879   3.510   3.170  15.335  0.7548 -0.5223 -0.0089
 9488TIP3    H249880   3.566   3.208  15.470 -0.9643  0.3187  0.4936
 9489TIP3   OH249881   4.782   1.044   3.839  0.8686  0.4177  0.1263
 9489TIP3    H149882   4.857   1.037   3.898  0.2891  0.5668  0.9008
 9489TIP3    H249883   4.818   1.083   3.759  1.4282  1.4021  0.8386
 9490TIP3   OH249884   1.345   6.609  16.818 -0.1839  0.4300 -0.1685
 9490TIP3    H149885   1.330   6.563  16.736 -1.4945 -0.2909  0.4419
 9490TIP3    H249886   1.386   6.692  16.793 -2.6457  1.2559 -1.7575
 9491TIP3   OH249887   1.687   2.793   0.650  0.4776 -0.5209 -0.2311
 9491TIP3    H149888   1.670   2.714   0.701  0.8816 -0.5020 -0.0676
 9491TIP3    H249889   1.615   2.797   0.587  0.0440 -0.6134  0.2560
 9492TIP3   OH249890   0.477   6.249  11.233 -0.3014 -0.2316 -0.0634
 9492TIP3    H149891   0.540   6.197  11.184 -0.3150 -1.9158  1.6140
 9492TIP3    H249892   0.391   6.220  11.201 -0.3214 -1.6049  1.1626
 9493TIP3   OH249893   2.153   4.931  10.820  0.2215 -0.2942  0.5852
 9493TIP3    H149894   2.074   4.945  10.767 -0.9168 -0.6308  2.1122
 9493TIP3    H249895   2.197   5.016  10.819  1.4416 -0.8223 -2.6518
 9494TIP3   OH249896   3.740   6.591  11.198 -0.1156 -0.4026 -0.6336
 9494TIP3    H149897   3.660   6.602  11.146 -0.2649  0.2080 -0.2895
 9494TIP3    H249898   3.788   6.522  11.154 -0.0029  0.4471 -1.8846
 9495TIP3   OH249899   2.837   1.121  11.746  0.0751  0.0866 -0.5983
 9495TIP3    H149900   2.793   1.203  11.768 -0.4716  0.1245 -1.7611
 9495TIP3    H249901   2.840   1.120  11.651 -1.5339 -2.0633 -0.7010
 9496TIP3   OH249902   3.652   6.191  17.311  0.1909  0.3197 -0.1315
 9496TIP3    H149903   3.567   6.188  17.267 -0.0477  0.6052  0.3039
 9496TIP3    H249904   3.716   6.171  17.242 -0.2947 -0.9277 -0.2498
 9497TIP3   OH249905   1.304   3.319   5.187 -0.5499  0.0988 -0.4362
 9497TIP3    H149906   1.213   3.350   5.177 -0.5816 -0.3974 -1.9339
 9497TIP3    H249907   1.299   3.225   5.168 -0.0454 -0.3818  1.5992
 9498TIP3   OH249908   0.509   6.436   1.075 -0.0606 -0.4744 -0.3671
 9498TIP3    H149909   0.520   6.531   1.082 -0.8367 -0.1770 -2.5944
 9498TIP3    H249910   0.578   6.408   1.016  1.3474 -1.6420  1.7007
 9499TIP3   OH249911   3.319   1.055  14.447  0.2775 -0.1892  0.7156
 9499TIP3    H149912   3.276   0.999  14.383  2.7224  0.0698 -1.2703
 9499TIP3    H249913   3.351   0.995  14.515  0.2953 -0.8331  0.1413
 9500TIP3   OH249914   2.002   0.570   5.947  0.2705 -0.0350  0.3530
 9500TIP3    H149915   2.026   0.578   6.039 -1.1313 -2.0524  0.9680
 9500TIP3    H249916   1.959   0.652   5.926  1.4715  0.8402  1.1905
 9501TIP3   OH249917   0.337   2.579   4.957 -0.0768 -0.0015 -0.2314
 9501TIP3    H149918   0.432   2.596   4.959 -0.3362  2.0761 -1.9927
 9501TIP3    H249919   0.304   2.636   4.887 -2.4268 -1.8218 -0.7215
 9502TIP3   OH249920   3.462   2.972   1.521 -0.0729 -0.1250  0.0900
 9502TIP3    H149921   3.556   2.983   1.535 -0.3128  0.8344  1.1065
 9502TIP3    H249922   3.429   3.061   1.508 -1.5393  0.2834  4.6765
 9503TIP3   OH249923   3.320   1.262   5.837 -0.7956  0.4888  0.3133
 9503TIP3    H149924   3.400   1.239   5.883  0.5276 -1.8437 -2.8213
 9503TIP3    H249925   3.348   1.321   5.767 -2.4173  2.3918  1.1728
 9504TIP3   OH249926   0.510   0.217  13.516  0.1087  0.0013  0.0860
 9504TIP3    H149927   0.498   0.304  13.554  0.4863  0.2334 -0.3168
 9504TIP3    H249928   0.589   0.225  13.463  2.1697 -1.4615  2.6716
 9505TIP3   OH249929   0.994   0.260  15.080 -0.3018  0.2562  0.1488
 9505TIP3    H149930   0.944   0.220  15.151  0.2425 -1.8774 -0.5870
 9505TIP3    H249931   0.944   0.338  15.056 -2.0449 -0.5588  0.9530
 9506TIP3   OH249932   3.646   2.200  15.321  0.1613  0.7489 -0.1399
 9506TIP3    H149933   3.700   2.120  15.317  0.0892  0.5523  1.9931
 9506TIP3    H249934   3.709   2.271  15.328  0.1840  0.6717  0.4572
 9507TIP3   OH249935   0.475   2.524  14.834  0.0747 -0.4812  0.1647
 9507TIP3    H149936   0.495   2.481  14.751  0.7160  0.8871 -0.4214
 9507TIP3    H249937   0.447   2.612  14.809 -0.8384 -0.4011  1.3468
 9508TIP3   OH249938   2.817   4.365   4.664  0.2959 -0.6724 -0.2721
 9508TIP3    H149939   2.832   4.320   4.747  0.4091 -1.1271 -0.5369
 9508TIP3    H249940   2.785   4.451   4.689  2.1444 -0.0978  0.3022
 9509TIP3   OH249941   4.864   2.521   2.309 -0.8654 -0.9090 -0.2980
 9509TIP3    H149942   4.805   2.593   2.333 -1.6333 -1.0584 -1.6465
 9509TIP3    H249943   4.819   2.476   2.237  0.5753 -1.4738 -0.8779
 9510TIP3   OH249944   4.558   5.390   6.271 -0.4582 -0.2462  0.6253
 9510TIP3    H149945   4.469   5.355   6.273 -0.6582  0.2227  0.2250
 9510TIP3    H249946   4.613   5.317   6.242 -0.9593 -0.0548 -0.8660
 9511TIP3   OH249947   5.838   6.313  16.891 -0.3686  0.3130  0.1948
 9511TIP3    H149948   5.875   6.396  16.862 -0.8603  0.1613 -0.9176
 9511TIP3    H249949   5.743   6.325  16.884 -0.4662 -0.1064  0.7076
 9512TIP3   OH249950   3.092   4.527   0.748 -0.6420  0.3954  0.0423
 9512TIP3    H149951   3.174   4.484   0.723 -0.3300  0.1025  1.4484
 9512TIP3    H249952   3.116   4.618   0.761 -0.5298  0.3142  0.4305
 9513TIP3   OH249953   6.661   3.780   2.141 -0.1139 -0.7535  0.0960
 9513TIP3    H149954   6.674   3.831   2.060 -0.2934 -2.2234 -0.8937
 9513TIP3    H249955   6.640   3.692   2.110 -0.2804 -1.3202  1.7687
 9514TIP3   OH249956   3.860   4.550  14.689 -0.2493  0.3868 -0.1223
 9514TIP3    H149957   3.891   4.635  14.721  0.0940 -0.3130  1.5302
 9514TIP3    H249958   3.907   4.537  14.607 -0.1543  1.6876 -0.3053
 9515TIP3   OH249959   6.304   4.636   1.183 -0.5457  0.1048  0.2806
 9515TIP3    H149960   6.387   4.600   1.153 -0.4969 -0.5090  1.1174
 9515TIP3    H249961   6.259   4.563   1.225 -1.3376  0.5301  0.2068
 9516TIP3   OH249962   1.778   3.168   1.461 -0.0899 -0.1347  0.0831
 9516TIP3    H149963   1.772   3.249   1.411 -1.0378  0.4283  1.0486
 9516TIP3    H249964   1.689   3.134   1.461  0.3621 -1.3784 -0.5923
 9517TIP3   OH249965   4.417   2.505  13.776  0.4649  0.2033  0.0565
 9517TIP3    H149966   4.453   2.471  13.694 -0.5045  1.1937 -0.8115
 9517TIP3    H249967   4.438   2.438  13.841  2.2048 -0.1131 -0.7608
 9518TIP3   OH249968   1.082   0.915  12.539 -0.3750 -0.1834  0.3235
 9518TIP3    H149969   1.092   0.820  12.534  0.2832 -0.1095  0.2123
 9518TIP3    H249970   1.135   0.949  12.467 -0.1570  0.3022  0.7113
 9519TIP3   OH249971   3.187   1.794   1.438  0.8972  0.2679 -0.5230
 9519TIP3    H149972   3.118   1.734   1.466  1.5386  0.3564  1.3346
 9519TIP3    H249973   3.268   1.747   1.452  1.3982  1.4353  0.7005
 9520TIP3   OH249974   4.544   3.019  13.985 -0.1494  0.4245 -0.4450
 9520TIP3    H149975   4.532   2.928  13.958 -2.0410 -0.0569  1.6646
 9520TIP3    H249976   4.636   3.038  13.965  0.7840 -2.5016  0.5057
 9521TIP3   OH249977   0.588   5.343  15.137  0.4209  0.1599 -0.1800
 9521TIP3    H149978   0.588   5.250  15.115  1.8789  0.0724  0.0626
 9521TIP3    H249979   0.648   5.349  15.212 -2.3379  0.8059  2.1308
 9522TIP3   OH249980   6.076   5.730   4.766 -0.1594  0.2043 -0.3903
 9522TIP3    H149981   6.031   5.807   4.801  0.8038  0.7883 -0.4069
 9522TIP3    H249982   6.086   5.671   4.841 -1.9599 -0.4594 -0.6175
 9523TIP3   OH249983   2.300   2.381  16.553 -0.2085 -0.4282 -0.2435
 9523TIP3    H149984   2.261   2.420  16.632  0.0520 -0.4448 -0.1049
 9523TIP3    H249985   2.286   2.446  16.485  0.6153  0.1095  0.0860
 9524TIP3   OH249986   4.784   0.592   2.570  0.7508 -0.0442 -0.3668
 9524TIP3    H149987   4.703   0.632   2.538 -0.4796 -2.1404 -0.0517
 9524TIP3    H249988   4.814   0.651   2.639 -0.5276  0.7643 -0.4689
 9525TIP3   OH249989   3.917   6.263  13.485 -0.1024 -0.3896 -0.9104
 9525TIP3    H149990   3.890   6.245  13.575 -0.4889  0.6536 -0.8036
 9525TIP3    H249991   3.847   6.318  13.449  0.5701  0.1094 -1.4988
 9526TIP3   OH249992   6.090   5.606   2.878 -0.2364  0.4567  0.1685
 9526TIP3    H149993   6.014   5.551   2.898 -1.1042  0.6798 -2.1707
 9526TIP3    H249994   6.102   5.597   2.784 -0.5392  4.3194 -0.4440
 9527TIP3   OH249995   0.127   4.518   0.010 -0.0841 -0.3901 -0.2124
 9527TIP3    H149996   0.051   4.544  -0.043 -0.0110 -0.3595 -0.3032
 9527TIP3    H249997   0.190   4.590  -0.002 -0.8501  0.6266  1.5551
 9528TIP3   OH249998   2.410   4.762   6.204  0.2573 -0.1162 -0.1067
 9528TIP3    H149999   2.330   4.718   6.177 -0.3538  2.0359 -2.1254
 9528TIP3    H250000   2.381   4.848   6.236  1.6712  0.2953  0.1544
 9529TIP3   OH250001   3.923   6.230   3.109  0.7844  1.0849  0.4728
 9529TIP3    H150002   3.837   6.210   3.074  0.0305  0.9299  2.3189
 9529TIP3    H250003   3.984   6.176   3.058 -0.3945 -0.1459  0.3283
 9530TIP3   OH250004   1.343   4.648  17.305 -0.2064 -0.4734  0.5703
 9530TIP3    H150005   1.404   4.621  17.236 -1.3891  0.1916 -0.7723
 9530TIP3    H250006   1.262   4.602  17.284 -0.0988 -1.7318  2.6256
 9531TIP3   OH250007   6.280   0.108  16.380 -0.0745  0.4345 -0.1885
 9531TIP3    H150008   6.236   0.173  16.325  0.5082  0.4748 -0.6114
 9531TIP3    H250009   6.349   0.158  16.425 -1.3837  0.7058  1.6362
 9532TIP3   OH250010   2.552   2.500  16.347  0.4216 -0.0246  0.3735
 9532TIP3    H150011   2.523   2.590  16.362 -1.8059 -0.7251  0.7064
 9532TIP3    H250012   2.507   2.473  16.267 -1.0047 -1.5859  1.6120
 9533TIP3   OH250013   4.973   6.259   5.850  0.3636 -0.1708  0.1898
 9533TIP3    H150014   5.066   6.270   5.870 -0.0754 -2.2528  4.2286
 9533TIP3    H250015   4.950   6.175   5.887 -3.3024  0.5246 -0.1586
 9534TIP3   OH250016   6.702   3.883   2.917  0.2984 -0.0994  0.1660
 9534TIP3    H150017   6.737   3.816   2.976 -1.1182 -2.9678 -2.0137
 9534TIP3    H250018   6.626   3.918   2.964 -0.1866 -1.5776  0.5523
 9535TIP3   OH250019   5.637   6.431   3.732  0.4104  0.7786 -0.3806
 9535TIP3    H150020   5.572   6.361   3.733  0.1161  0.9940  1.7977
 9535TIP3    H250021   5.666   6.437   3.641 -0.5013 -1.2762 -0.8531
 9536TIP3   OH250022   5.870   0.702   4.565  0.4210  0.0578 -0.1608
 9536TIP3    H150023   5.863   0.608   4.577  0.8886  0.0662  0.1858
 9536TIP3    H250024   5.944   0.713   4.506  0.9573  0.2576  0.5466
 9537TIP3   OH250025   1.850   4.705   3.749  0.2343  0.2769  0.3028
 9537TIP3    H150026   1.790   4.779   3.736 -0.4680 -0.2723  0.3816
 9537TIP3    H250027   1.831   4.645   3.677 -0.8108 -0.8765  1.4860
 9538TIP3   OH250028   3.875   4.782   1.293  0.0691 -0.2077  0.7224
 9538TIP3    H150029   3.912   4.834   1.222 -3.1010  1.1879 -0.1253
 9538TIP3    H250030   3.904   4.825   1.373 -0.8173  1.7274  0.0704
 9539TIP3   OH250031   3.750   2.824   4.236 -0.0330 -0.5376  0.3158
 9539TIP3    H150032   3.679   2.763   4.256 -2.0784  1.4856 -0.4187
 9539TIP3    H250033   3.759   2.819   4.141 -1.4838  1.5119  0.0060
 9540TIP3   OH250034   2.328   4.786  14.866  0.1960 -0.5152 -0.2904
 9540TIP3    H150035   2.327   4.790  14.961  0.6304  0.6712 -0.3162
 9540TIP3    H250036   2.236   4.776  14.841 -0.2161  1.5407  0.2060
 9541TIP3   OH250037   2.894   0.580   0.990 -0.3793 -0.2044 -0.1507
 9541TIP3    H150038   2.958   0.603   1.058 -0.6176 -2.1567  0.7992
 9541TIP3    H250039   2.894   0.655   0.930  0.5231  1.1653  1.4971
 9542TIP3   OH250040   4.291   5.322   1.788  0.2031  0.4900 -0.4566
 9542TIP3    H150041   4.294   5.298   1.881 -0.9287 -0.6852 -0.7035
 9542TIP3    H250042   4.383   5.326   1.761  0.5108 -1.5670  0.1276
 9543TIP3   OH250043   6.106   6.351  15.390  0.2646  0.3077 -0.1860
 9543TIP3    H150044   6.016   6.325  15.371  0.2813  1.0408 -1.4182
 9543TIP3    H250045   6.159   6.275  15.365 -0.1630 -1.4662  3.7199
 9544TIP3   OH250046   4.955   2.524   4.893  0.1504 -0.1865 -0.1509
 9544TIP3    H150047   4.891   2.460   4.860  0.4772  0.3095 -1.8407
 9544TIP3    H250048   4.902   2.600   4.916  0.0031 -0.2006 -0.4359
 9545TIP3   OH250049   3.408   4.889   0.427  0.0239 -0.0141 -0.4682
 9545TIP3    H150050   3.381   4.975   0.458 -0.6013 -0.6346  0.7913
 9545TIP3    H250051   3.383   4.829   0.497 -1.1902 -1.4556 -2.0352
 9546TIP3   OH250052   3.636   5.450  14.606 -0.3290 -0.5754  0.2783
 9546TIP3    H150053   3.566   5.442  14.541  0.4437 -0.3608 -0.6017
 9546TIP3    H250054   3.714   5.419  14.562  0.5487  1.1286  0.5227
 9547TIP3   OH250055   0.277   0.720  13.772 -0.2168 -0.3147 -0.2561
 9547TIP3    H150056   0.335   0.779  13.820 -1.0866 -0.4871  1.0749
 9547TIP3    H250057   0.332   0.646  13.747  0.6229  0.5274 -0.9583
 9548TIP3   OH250058   1.277   5.284   0.268 -0.4193 -0.3560 -0.3409
 9548TIP3    H150059   1.211   5.216   0.284  0.9712 -1.6638  0.1056
 9548TIP3    H250060   1.332   5.282   0.347 -0.4355  1.4264 -0.2548
 9549TIP3   OH250061   6.579   5.440  16.981 -0.0236 -0.3566  0.1722
 9549TIP3    H150062   6.579   5.434  16.886 -1.3307 -0.4301  0.1689
 9549TIP3    H250063   6.490   5.419  17.007 -0.3578  2.0801  1.2557
 9550TIP3   OH250064   4.925   1.816  13.219 -0.0071 -0.1807  0.2922
 9550TIP3    H150065   4.940   1.775  13.304  0.0109 -0.4959  0.1361
 9550TIP3    H250066   5.010   1.812  13.175 -0.7292 -2.9969 -1.0556
 9551TIP3   OH250067   4.052   6.284   5.355 -0.7028 -0.5389 -0.1477
 9551TIP3    H150068   4.033   6.324   5.271 -1.9047 -2.0355 -0.6382
 9551TIP3    H250069   3.975   6.230   5.374  0.4203 -1.8714  0.8818
 9552TIP3   OH250070   5.960   0.339  12.740 -0.0679 -0.0257  0.0192
 9552TIP3    H150071   5.935   0.257  12.696 -1.3909  1.3669 -2.0244
 9552TIP3    H250072   6.043   0.363  12.700  0.4322 -0.4571  0.7801
 9553TIP3   OH250073   4.147   5.064   3.622 -0.2134 -0.1876 -0.2348
 9553TIP3    H150074   4.153   5.154   3.656  1.6706 -0.5366  0.4840
 9553TIP3    H250075   4.153   5.074   3.527 -3.0386  0.6156 -0.4275
 9554TIP3   OH250076   0.846   6.132   3.418 -0.3132  0.1630  0.1283
 9554TIP3    H150077   0.831   6.221   3.387 -0.0611  0.1451 -0.0459
 9554TIP3    H250078   0.827   6.077   3.342  1.2746  0.1773 -0.3176
 9555TIP3   OH250079   6.028   0.649   3.653 -0.0224  0.1503 -0.1393
 9555TIP3    H150080   5.993   0.569   3.692  1.8222 -1.5830 -1.7980
 9555TIP3    H250081   5.981   0.720   3.697 -1.0468 -1.7841  2.1003
 9556TIP3   OH250082   3.903   0.759   2.614  0.3904 -0.1259  0.0047
 9556TIP3    H150083   3.941   0.672   2.621 -0.3286 -0.4609 -0.1732
 9556TIP3    H250084   3.832   0.749   2.551 -0.8774  0.1647  1.3348
 9557TIP3   OH250085   4.848   0.879  12.953 -0.3565  0.4241 -0.1366
 9557TIP3    H150086   4.858   0.860  12.860 -5.5466  2.3534 -1.4504
 9557TIP3    H250087   4.840   0.792  12.994  1.8789 -0.4568 -1.3843
 9558TIP3   OH250088   2.221   0.081  15.577 -0.2613 -0.1033  0.2222
 9558TIP3    H150089   2.235   0.176  15.580 -2.7475  0.3576 -0.8612
 9558TIP3    H250090   2.163   0.063  15.651 -0.3009 -0.6919  0.0527
 9559TIP3   OH250091   6.671   3.295   6.038  0.0500  0.1007 -0.2412
 9559TIP3    H150092   6.747   3.303   5.980  1.5610 -0.0479  1.6129
 9559TIP3    H250093   6.698   3.337   6.119 -1.4239 -0.9870  0.8807
 9560TIP3   OH250094   5.080   5.783   1.002  0.4383 -0.4974  0.3511
 9560TIP3    H150095   4.994   5.819   1.024 -0.2534 -2.5400  1.2915
 9560TIP3    H250096   5.139   5.820   1.068  0.1945  0.5534 -0.0106
 9561TIP3   OH250097   4.107   4.865   0.614 -0.2498 -0.6634 -0.2529
 9561TIP3    H150098   4.115   4.776   0.649  0.2343 -0.3755  0.3801
 9561TIP3    H250099   4.039   4.906   0.669 -0.8410 -0.7997 -0.8748
 9562TIP3   OH250100   6.308   3.898  11.216  0.2126  0.9682  0.3332
 9562TIP3    H150101   6.277   3.819  11.172 -0.9955  2.2902 -1.3799
 9562TIP3    H250102   6.298   3.880  11.309  0.2395 -0.9733  0.0043
 9563TIP3   OH250103   4.147   4.700  13.920  0.3427  0.4366 -0.0908
 9563TIP3    H150104   4.174   4.609  13.914 -0.7852  0.1462 -1.5251
 9563TIP3    H250105   4.138   4.728  13.829 -0.7135  1.5232  0.3159
 9564TIP3   OH250106   2.097   4.753  11.018  0.1939 -0.2840 -0.4024
 9564TIP3    H150107   2.108   4.804  10.938  1.5780 -1.1484 -0.7901
 9564TIP3    H250108   2.115   4.815  11.089  0.0349  0.2108 -0.7888
 9565TIP3   OH250109   0.224   5.646  16.066 -0.7110 -0.3677 -0.4696
 9565TIP3    H150110   0.191   5.713  16.126 -0.6530 -2.0275  1.5185
 9565TIP3    H250111   0.320   5.653  16.074 -0.6824 -0.0780 -1.0018
 9566TIP3   OH250112   2.720   2.493  17.221  0.3155 -0.0496 -0.1004
 9566TIP3    H150113   2.629   2.511  17.199  0.6132  1.4645 -0.2304
 9566TIP3    H250114   2.734   2.535  17.306  0.4670 -1.7318  0.7533
 9567TIP3   OH250115   6.574   3.073   1.827 -0.3151  0.0490 -0.1535
 9567TIP3    H150116   6.581   3.023   1.909 -0.7004  4.3192  2.8110
 9567TIP3    H250117   6.481   3.069   1.805 -0.3129 -0.6389 -0.0816
 9568TIP3   OH250118   0.860   5.711  14.748  0.0570  0.0596  0.0037
 9568TIP3    H150119   0.903   5.797  14.752  0.8014 -0.2672 -0.7871
 9568TIP3    H250120   0.923   5.655  14.703 -1.5211 -0.2546 -1.9070
 9569TIP3   OH250121   5.363   4.572  13.598  0.3849 -0.4873 -0.2551
 9569TIP3    H150122   5.392   4.487  13.567 -2.1834 -1.2797 -0.6980
 9569TIP3    H250123   5.337   4.619  13.519 -1.8660 -0.8075  0.2279
 9570TIP3   OH250124   2.582   3.003   1.721 -0.2487  0.1196 -0.2268
 9570TIP3    H150125   2.647   2.963   1.664 -1.1980 -0.5035 -0.8953
 9570TIP3    H250126   2.530   3.060   1.664  0.8964  2.1549  0.6547
 9571TIP3   OH250127   2.221   2.215   3.954  0.4420  0.3573 -0.3924
 9571TIP3    H150128   2.195   2.242   3.866 -0.2269  0.9358 -0.0282
 9571TIP3    H250129   2.316   2.223   3.955  0.3147  2.1450 -0.4958
 9572TIP3   OH250130   5.951   5.393   4.878 -0.3313  0.0586 -0.0978
 9572TIP3    H150131   5.978   5.476   4.917  1.1190 -0.5633  0.2880
 9572TIP3    H250132   5.980   5.326   4.940 -0.3342 -0.8144 -0.9995
 9573TIP3   OH250133   2.734   4.827  14.575  0.5031  0.0248  0.0411
 9573TIP3    H150134   2.642   4.831  14.550  0.2404  1.0309  1.0628
 9573TIP3    H250135   2.775   4.771  14.509 -0.9611 -0.9952 -0.0340
 9574TIP3   OH250136   3.803   5.792  14.903  0.0860 -0.3077 -0.2508
 9574TIP3    H150137   3.829   5.728  14.836  0.2521 -0.1073 -0.3804
 9574TIP3    H250138   3.711   5.810  14.885  0.0267 -0.5412 -0.1882
 9575TIP3   OH250139   1.189   5.018   3.892  0.1020 -0.0902 -0.1167
 9575TIP3    H150140   1.282   5.026   3.912 -0.0696  1.4626  0.1987
 9575TIP3    H250141   1.168   5.097   3.842 -1.0968 -0.2695  0.0666
 9576TIP3   OH250142   6.361   5.974   2.127 -0.0314  0.4694  0.4636
 9576TIP3    H150143   6.279   5.926   2.121  0.4575 -0.4896  1.0884
 9576TIP3    H250144   6.385   5.969   2.220  0.3149  1.4624  0.4422
 9577TIP3   OH250145   2.298   2.003   0.578  0.1289  0.2510  0.2681
 9577TIP3    H150146   2.263   2.020   0.665  2.0482 -0.3523  1.2052
 9577TIP3    H250147   2.391   2.023   0.585  0.2914  0.3796 -1.7114
 9578TIP3   OH250148   1.682   3.625  13.431 -0.4120 -0.5327  0.1109
 9578TIP3    H150149   1.668   3.554  13.369 -2.9422  0.8620 -1.0949
 9578TIP3    H250150   1.690   3.582  13.516  0.0584 -2.3305 -0.8027
 9579TIP3   OH250151   1.391   3.472  15.563 -0.2529  0.5396 -0.7267
 9579TIP3    H150152   1.479   3.493  15.593  0.3476 -0.0387 -2.0353
 9579TIP3    H250153   1.347   3.437  15.641  0.7429  0.6023 -0.1236
 9580TIP3   OH250154   2.834   6.408  14.542  0.1124  0.1339  0.3262
 9580TIP3    H150155   2.865   6.481  14.595 -0.5013  1.4673 -1.0510
 9580TIP3    H250156   2.898   6.402  14.471  1.9513 -2.7896  2.0166
 9581TIP3   OH250157   6.283   0.373   6.072  0.3299  0.0737 -0.3167
 9581TIP3    H150158   6.373   0.352   6.096  0.8276  1.8200 -0.5825
 9581TIP3    H250159   6.238   0.387   6.156  0.4085 -0.3460 -0.2030
 9582TIP3   OH250160   1.364   3.725  14.931 -0.3294 -0.3289  0.7575
 9582TIP3    H150161   1.420   3.795  14.965  1.0167 -0.8165 -0.3836
 9582TIP3    H250162   1.420   3.647  14.931 -0.7509 -0.6650 -1.1088
 9583TIP3   OH250163   1.753   4.199   3.653  0.4453  0.5824 -0.0442
 9583TIP3    H150164   1.702   4.144   3.593 -1.1634  0.8175  1.0500
 9583TIP3    H250165   1.798   4.137   3.710  1.0714  0.3791 -0.7418
 9584TIP3   OH250166   3.245   1.939  17.226  0.0587 -1.2151  0.0948
 9584TIP3    H150167   3.299   2.001  17.177  0.1736 -1.0898  0.3806
 9584TIP3    H250168   3.257   1.963  17.318  0.1453 -1.6914  0.2153
 9585TIP3   OH250169   4.240   3.680  13.453 -0.0058  0.1154  0.4702
 9585TIP3    H150170   4.288   3.691  13.535  0.6613  0.6834  0.0142
 9585TIP3    H250171   4.225   3.585  13.447 -1.2683  0.1724  1.9005
 9586TIP3   OH250172   4.171   0.330   1.365 -0.3943  0.0396 -0.2971
 9586TIP3    H150173   4.197   0.237   1.366 -1.1070 -0.1715  0.4542
 9586TIP3    H250174   4.201   0.363   1.450  0.7363  0.7641 -0.9692
 9587TIP3   OH250175   1.897   1.933  15.999  1.0168 -0.0770  0.2658
 9587TIP3    H150176   1.937   1.966  15.918  1.6195 -0.4582  0.4001
 9587TIP3    H250177   1.936   1.987  16.068  0.2660  0.4594  0.2810
 9588TIP3   OH250178   6.724   5.406  17.300  0.2040 -0.1158  0.2489
 9588TIP3    H150179   6.651   5.446  17.348 -0.4113  0.3004 -0.9820
 9588TIP3    H250180   6.739   5.466  17.227 -0.6383 -2.0329 -1.5753
 9589TIP3   OH250181   4.758   0.038   1.210  0.3655  0.2987 -0.0038
 9589TIP3    H150182   4.692   0.050   1.141 -0.3210 -0.9633  0.4117
 9589TIP3    H250183   4.717   0.074   1.288  0.3235 -0.1248  0.1701
 9590TIP3   OH250184   4.700   3.607   2.203  0.0181 -0.4507 -0.1524
 9590TIP3    H150185   4.698   3.618   2.298  1.3404 -1.7436  0.0704
 9590TIP3    H250186   4.696   3.696   2.168  0.1732  0.0843  1.1293
 9591TIP3   OH250187   4.155   5.639  11.118 -0.2406  0.2624 -0.3947
 9591TIP3    H150188   4.119   5.713  11.167 -0.7959  0.8838 -1.7071
 9591TIP3    H250189   4.148   5.565  11.179 -0.9019  1.0113  0.4726
 9592TIP3   OH250190   1.727   5.422  15.917 -0.1922 -0.2713  0.0166
 9592TIP3    H150191   1.735   5.460  16.004 -2.0256  0.2460 -0.0131
 9592TIP3    H250192   1.749   5.329  15.930 -1.8634 -0.5346  1.3593
 9593TIP3   OH250193   2.161   6.425  15.537 -0.4654  0.1470 -0.2605
 9593TIP3    H150194   2.190   6.339  15.568 -0.4805 -0.0941 -0.9023
 9593TIP3    H250195   2.136   6.472  15.617  0.8197  0.0372  0.2171
 9594TIP3   OH250196   2.096   0.626  16.533 -0.4722 -0.0884 -0.0155
 9594TIP3    H150197   2.098   0.673  16.450 -1.0680 -3.4959 -2.1119
 9594TIP3    H250198   2.185   0.591  16.543 -0.2548  0.7158  1.1164
 9595TIP3   OH250199   3.920   6.244   1.122  0.3641 -0.2451  0.1342
 9595TIP3    H150200   3.913   6.151   1.145 -0.3930 -0.5200 -1.1430
 9595TIP3    H250201   3.905   6.247   1.028  0.8313  1.1363  0.0840
 9596TIP3   OH250202   3.139   1.540  15.680  0.0858  0.3956  0.1168
 9596TIP3    H150203   3.081   1.515  15.752 -0.9782  2.4121  0.0220
 9596TIP3    H250204   3.110   1.485  15.606 -2.2236  1.7759 -0.1112
 9597TIP3   OH250205   0.619   0.388   4.348 -0.2593 -0.2339  0.0553
 9597TIP3    H150206   0.612   0.459   4.283  1.7253  0.1563  0.1919
 9597TIP3    H250207   0.669   0.426   4.420  0.8516 -1.7364  0.1435
 9598TIP3   OH250208   3.107   4.685   0.323  0.1715  0.0410  0.0505
 9598TIP3    H150209   3.180   4.625   0.338 -1.5227 -1.6353  2.4357
 9598TIP3    H250210   3.142   4.772   0.341  1.5715 -0.7399  1.2746
 9599TIP3   OH250211   2.714   6.515  17.286  0.5043  0.7596 -0.1452
 9599TIP3    H150212   2.677   6.426  17.282 -0.1416  1.0535 -2.4155
 9599TIP3    H250213   2.806   6.504  17.261  0.8090  0.5757  1.0159
 9600TIP3   OH250214   3.246   0.560  15.854  0.4339  0.4133 -0.6498
 9600TIP3    H150215   3.252   0.466  15.869 -0.9915  0.2763 -0.8258
 9600TIP3    H250216   3.240   0.598  15.941 -0.1149  0.2368 -0.6036
 9601TIP3   OH250217   0.684   2.425  15.101  0.1983 -0.2952  0.5165
 9601TIP3    H150218   0.608   2.373  15.126  1.4583 -1.9768  1.0376
 9601TIP3    H250219   0.651   2.515  15.096 -2.0199 -1.0895 -0.2852
 9602TIP3   OH250220   3.400   2.695  14.953 -0.0883 -0.2999  0.4678
 9602TIP3    H150221   3.353   2.753  15.011  1.5564  1.1139  0.4523
 9602TIP3    H250222   3.435   2.626  15.010 -0.4830 -0.2468  0.7732
 9603TIP3   OH250223   1.352   1.504  16.693  0.1598  0.2035 -0.4742
 9603TIP3    H150224   1.400   1.432  16.654 -1.0623 -1.1119  0.3669
 9603TIP3    H250225   1.396   1.522  16.775 -0.3272 -0.4962 -0.0564
 9604TIP3   OH250226   5.126   4.203  14.385  0.5898 -0.0813 -0.0985
 9604TIP3    H150227   5.032   4.219  14.373  0.7809  0.2520 -1.1900
 9604TIP3    H250228   5.169   4.280  14.350  1.2393  1.0139  2.8057
 9605TIP3   OH250229   5.260   3.744  14.735  0.1039  0.5105  0.0764
 9605TIP3    H150230   5.281   3.727  14.643  3.4622 -0.0043  0.7936
 9605TIP3    H250231   5.303   3.828  14.754  1.0910 -0.2891  1.5804
 9606TIP3   OH250232   0.297   6.776   1.466  0.7540 -0.3775  0.6131
 9606TIP3    H150233   0.234   6.708   1.490 -0.7961  0.9266  0.4560
 9606TIP3    H250234   0.362   6.731   1.412 -0.9954 -1.5082 -0.6660
 9607TIP3   OH250235   5.427   5.070   3.060  0.5293  0.3910 -0.2565
 9607TIP3    H150236   5.474   4.987   3.048  0.3304  0.4253 -1.3826
 9607TIP3    H250237   5.494   5.130   3.092  0.5785 -0.3033  0.9927
 9608TIP3   OH250238   0.459   1.039  14.875 -0.4942  0.4445  0.2316
 9608TIP3    H150239   0.477   1.018  14.783 -0.5105  0.3245  0.2563
 9608TIP3    H250240   0.459   1.135  14.877 -0.9346  0.4540  0.0152
 9609TIP3   OH250241   4.075   3.014   0.497 -0.1648 -0.5141 -0.1982
 9609TIP3    H150242   4.068   3.018   0.402 -1.8473  1.3754 -0.0569
 9609TIP3    H250243   4.157   3.060   0.517 -0.2876 -0.0595 -0.7115
 9610TIP3   OH250244   1.105   3.144  15.520 -0.4427  0.4822  0.8427
 9610TIP3    H150245   1.020   3.099  15.522 -0.5003  0.5752  0.5775
 9610TIP3    H250246   1.091   3.217  15.459 -0.5925  1.3544  1.8853
 9611TIP3   OH250247   2.119   4.905  13.358 -0.3747 -0.1364 -0.3852
 9611TIP3    H150248   2.081   4.856  13.285  0.3744  0.2645 -1.0676
 9611TIP3    H250249   2.102   4.851  13.435 -3.2281  0.5147 -0.4714
 9612TIP3   OH250250   4.086   4.477   0.257 -0.0846 -0.7408  0.1153
 9612TIP3    H150251   4.125   4.482   0.170 -0.3970 -1.1770 -0.0529
 9612TIP3    H250252   4.124   4.551   0.305  1.2391 -1.3709  0.0702
 9613TIP3   OH250253   1.769   4.452  15.762  0.7129  0.4297  0.0862
 9613TIP3    H150254   1.735   4.376  15.716  0.6403 -0.2960  1.2929
 9613TIP3    H250255   1.763   4.524  15.699 -0.6742 -0.2211 -0.5555
 9614TIP3   OH250256   3.821   5.482   1.793  0.0974  0.6852  0.2473
 9614TIP3    H150257   3.916   5.490   1.790  0.1356  0.1014 -0.5736
 9614TIP3    H250258   3.788   5.570   1.774  0.4781  0.7359 -0.1974
 9615TIP3   OH250259   2.108   4.594   2.979  0.0532  0.0111 -0.0853
 9615TIP3    H150260   2.095   4.500   2.987 -1.0717  0.2176  0.7805
 9615TIP3    H250261   2.165   4.616   3.054  1.2888 -0.1273 -0.9488
 9616TIP3   OH250262   6.323   0.909   4.964 -0.3130 -0.0103  0.2310
 9616TIP3    H150263   6.242   0.960   4.965 -0.3353 -0.0474  0.2500
 9616TIP3    H250264   6.387   0.969   4.925 -0.5862 -0.3316 -0.7484
 9617TIP3   OH250265   1.974   6.611   3.448  0.2165 -0.2573 -0.3052
 9617TIP3    H150266   1.901   6.578   3.397 -1.5687  1.9160  0.6748
 9617TIP3    H250267   2.051   6.600   3.391 -1.1296 -1.0495 -2.0433
 9618TIP3   OH250268   1.071   5.045   6.260  0.2680  0.5281 -0.3379
 9618TIP3    H150269   1.046   4.960   6.297  1.9168  0.3596  0.5126
 9618TIP3    H250270   1.017   5.108   6.306  0.5836  0.1034  0.6587
 9619TIP3   OH250271   0.406   1.901  12.490  0.5623  0.1735 -0.1103
 9619TIP3    H150272   0.413   1.902  12.586  0.5765  0.0913 -0.1098
 9619TIP3    H250273   0.312   1.898  12.473  0.5599 -2.6632 -0.0541
 9620TIP3   OH250274   3.248   5.896   0.871 -0.1234 -0.4148  0.1939
 9620TIP3    H150275   3.241   5.825   0.935 -1.5380  0.1174  0.6702
 9620TIP3    H250276   3.342   5.902   0.852  0.2846 -0.8656  1.9001
 9621TIP3   OH250277   1.660   2.615   5.020  0.0560 -0.1843 -0.2145
 9621TIP3    H150278   1.663   2.686   5.084 -1.4218  1.0545 -1.4552
 9621TIP3    H250279   1.689   2.538   5.070  1.0321  1.1116  1.3505
 9622TIP3   OH250280   1.355   0.847  17.095 -0.3663 -0.3181  0.3576
 9622TIP3    H150281   1.325   0.794  17.168 -0.9403 -0.3971  0.0723
 9622TIP3    H250282   1.415   0.790  17.046  1.9420  0.4917  2.0473
 9623TIP3   OH250283   1.637   3.433  14.596 -0.6757  0.6021  0.0296
 9623TIP3    H150284   1.558   3.399  14.555  0.0191 -0.8727 -0.1833
 9623TIP3    H250285   1.655   3.515  14.550  0.9538 -1.7010 -3.9689
 9624TIP3   OH250286   1.448   4.347  12.184  0.0444  0.4107  0.4808
 9624TIP3    H150287   1.415   4.305  12.105 -1.1587  1.0223  0.6205
 9624TIP3    H250288   1.426   4.440  12.171 -0.0469  0.5311  1.4661
 9625TIP3   OH250289   6.149   4.926  16.429  0.2004  0.2557  0.3756
 9625TIP3    H150290   6.115   4.847  16.389 -0.4767  0.5584  0.3466
 9625TIP3    H250291   6.197   4.895  16.506  1.4328 -0.3182 -0.5918
 9626TIP3   OH250292   5.969   1.319  15.810 -0.8670 -0.0368  0.6904
 9626TIP3    H150293   5.941   1.371  15.885  0.0796 -1.6885  2.2832
 9626TIP3    H250294   6.064   1.322  15.812 -0.8178 -0.5752 -0.1014
 9627TIP3   OH250295   3.958   5.324   0.748  0.0692  0.2427  0.0814
 9627TIP3    H150296   3.995   5.258   0.689  2.2917  1.9197 -0.5404
 9627TIP3    H250297   3.881   5.358   0.702 -0.2800 -0.8911 -0.2062
 9628TIP3   OH250298   1.351   2.776  16.702  0.9276  0.3184 -0.2914
 9628TIP3    H150299   1.432   2.826  16.706  1.0848  0.0692 -0.4045
 9628TIP3    H250300   1.378   2.684  16.709  0.6845  0.2193 -0.6621
 9629TIP3   OH250301   4.553   2.085  13.849 -0.5061 -0.5829 -0.2718
 9629TIP3    H150302   4.615   2.141  13.802 -2.1854  0.1674 -1.7115
 9629TIP3    H250303   4.516   2.142  13.917  2.2048 -1.7680  2.4779
 9630TIP3   OH250304   1.095   1.777   6.157 -0.1373  0.5344  0.0398
 9630TIP3    H150305   1.082   1.725   6.237  0.1119  0.0103 -0.2595
 9630TIP3    H250306   1.104   1.867   6.189 -0.6497  0.4106  0.5570
 9631TIP3   OH250307   3.529   3.899   2.981  0.1292  0.3737 -0.5200
 9631TIP3    H150308   3.544   3.808   3.007  0.9759  0.5083 -0.5181
 9631TIP3    H250309   3.596   3.917   2.915  1.4108  1.6561  1.0529
 9632TIP3   OH250310   0.768   0.622  11.647 -0.6572  0.2696 -0.2166
 9632TIP3    H150311   0.838   0.612  11.582 -0.0647 -1.0259  0.5677
 9632TIP3    H250312   0.802   0.685  11.710  0.4514 -1.3358  0.8935
 9633TIP3   OH250313   2.505   4.047  15.766  0.9924 -0.0016  0.6308
 9633TIP3    H150314   2.427   4.096  15.739  1.4237  0.2811 -0.1450
 9633TIP3    H250315   2.471   3.965  15.800  0.3994 -0.5119 -1.0585
 9634TIP3   OH250316   2.821   2.128   3.198  0.0775  0.3334  0.3261
 9634TIP3    H150317   2.767   2.049   3.194  0.5669  0.0315 -0.8546
 9634TIP3    H250318   2.842   2.139   3.290 -0.7569 -0.3975  0.6117
 9635TIP3   OH250319   2.299   4.621  13.429  0.0797  0.1459  0.4390
 9635TIP3    H150320   2.208   4.625  13.461  0.1481 -0.4291  0.7187
 9635TIP3    H250321   2.291   4.631  13.334 -0.2730  0.1258  0.4621
 9636TIP3   OH250322   3.416   3.299   1.130 -0.0908  0.2382  0.3210
 9636TIP3    H150323   3.466   3.223   1.100 -1.0554 -0.2416 -0.0983
 9636TIP3    H250324   3.341   3.262   1.176 -0.7850  0.9193 -0.2349
 9637TIP3   OH250325   2.601   5.662  11.578  0.0614  0.1214 -0.2208
 9637TIP3    H150326   2.604   5.579  11.531 -0.1568 -0.9328  1.5256
 9637TIP3    H250327   2.690   5.673  11.613 -0.3609 -0.3038  1.0273
 9638TIP3   OH250328   2.413   1.729  12.642  0.3010  0.1398 -0.1826
 9638TIP3    H150329   2.354   1.776  12.701 -0.0917  0.6271 -0.9545
 9638TIP3    H250330   2.496   1.725  12.690 -0.0391  0.4380  0.4447
 9639TIP3   OH250331   6.211   2.247  11.524 -0.0366 -0.6617 -1.3040
 9639TIP3    H150332   6.288   2.209  11.566  0.1780 -1.9205 -2.7256
 9639TIP3    H250333   6.175   2.175  11.472 -0.7802  0.5597 -2.5432
 9640TIP3   OH250334   0.822   3.902   1.189 -0.1268 -0.5758  0.3733
 9640TIP3    H150335   0.741   3.910   1.241 -0.7263 -1.4461 -0.3947
 9640TIP3    H250336   0.795   3.857   1.109  0.8167  0.5832 -0.6380
 9641TIP3   OH250337   6.548   0.535  16.693  0.0073 -0.2795 -0.0426
 9641TIP3    H150338   6.462   0.504  16.722  0.1532  1.5043  2.6168
 9641TIP3    H250339   6.529   0.587  16.615 -1.2685 -0.2699  0.2494
 9642TIP3   OH250340   5.984   6.446   3.954  0.3321  0.2737 -0.7052
 9642TIP3    H150341   6.056   6.442   4.018  0.8366  2.7536 -1.0178
 9642TIP3    H250342   6.028   6.446   3.869 -0.3610 -3.7833 -1.2824
 9643TIP3   OH250343   5.701   5.847  13.826  0.4576  0.2075  0.4344
 9643TIP3    H150344   5.660   5.933  13.833  1.3367  0.6343  0.5888
 9643TIP3    H250345   5.669   5.798  13.901 -1.7171 -0.3692 -0.7761
 9644TIP3   OH250346   1.256   1.336  12.304  0.2098  0.3141  0.4348
 9644TIP3    H150347   1.312   1.308  12.232  0.7795  1.2015  0.5103
 9644TIP3    H250348   1.174   1.288  12.291  0.3497  0.3555 -0.7251
 9645TIP3   OH250349   4.631   4.453   5.008  0.1281 -0.4741 -0.2260
 9645TIP3    H150350   4.543   4.473   5.041  0.0267 -0.1028 -0.6945
 9645TIP3    H250351   4.627   4.476   4.915  0.2636 -1.9512 -0.6137
 9646TIP3   OH250352   6.227   5.470  16.159 -0.2338 -0.1762 -0.5425
 9646TIP3    H150353   6.143   5.425  16.153 -0.4668  0.3159 -1.0966
 9646TIP3    H250354   6.254   5.459  16.250 -1.4418  0.6289 -0.0699
 9647TIP3   OH250355   4.657   4.269   3.068  0.5695  0.4452 -0.5980
 9647TIP3    H150356   4.710   4.242   3.144  0.5791 -0.5576 -0.9353
 9647TIP3    H250357   4.721   4.276   2.997  0.7088  2.3332 -0.3156
 9648TIP3   OH250358   2.480   5.703   5.502  0.1387  0.3467  0.2304
 9648TIP3    H150359   2.390   5.725   5.478 -0.0645 -1.0805 -0.4381
 9648TIP3    H250360   2.512   5.779   5.550 -1.2630  1.0701  0.0564
 9649TIP3   OH250361   3.805   1.340  16.069 -0.0328 -0.7136  0.1364
 9649TIP3    H150362   3.723   1.302  16.039 -1.0067 -0.4642  2.2842
 9649TIP3    H250363   3.872   1.276  16.044 -1.0177 -1.4504 -0.6718
 9650TIP3   OH250364   5.167   1.356   5.927  0.1653 -1.0089  0.6938
 9650TIP3    H150365   5.162   1.279   5.983 -2.5479 -2.6855 -1.5728
 9650TIP3    H250366   5.226   1.331   5.856  0.6526 -0.3172  0.8458
 9651TIP3   OH250367   3.704   5.175  16.114  0.8933  0.1783  0.0587
 9651TIP3    H150368   3.615   5.142  16.129  1.0150 -0.4015 -0.4431
 9651TIP3    H250369   3.759   5.096  16.114  1.3897  0.5230  0.2405
 9652TIP3   OH250370   0.138   6.580   1.543 -0.2191  0.0224 -0.1100
 9652TIP3    H150371   0.085   6.536   1.477 -0.9531 -2.9045  2.2024
 9652TIP3    H250372   0.217   6.527   1.550 -0.6689 -0.4744  2.0795
 9653TIP3   OH250373   4.506   0.294   4.915 -0.1823  0.2713 -0.4620
 9653TIP3    H150374   4.574   0.253   4.968  0.8531 -0.0783 -1.9762
 9653TIP3    H250375   4.424   0.269   4.957  0.5954  0.2408  1.0909
 9654TIP3   OH250376   2.114   0.793   3.029 -0.2894 -0.1434 -0.4875
 9654TIP3    H150377   2.159   0.876   3.045 -0.4507 -0.0578 -0.4726
 9654TIP3    H250378   2.144   0.765   2.943 -0.7504  0.2684 -0.7858
 9655TIP3   OH250379   1.528   1.538   3.336 -0.8771 -0.0338 -0.0689
 9655TIP3    H150380   1.507   1.462   3.281 -0.4477  0.9955 -1.7240
 9655TIP3    H250381   1.616   1.520   3.370 -0.6345 -0.1161 -0.7342
 9656TIP3   OH250382   4.267   0.066   1.585 -0.2266 -0.2175 -0.0533
 9656TIP3    H150383   4.178   0.071   1.551  0.4501 -1.0498 -2.0830
 9656TIP3    H250384   4.282  -0.027   1.599  0.3343 -0.0823  0.2595
 9657TIP3   OH250385   0.926   2.947  16.602 -0.1887 -0.0851  0.4450
 9657TIP3    H150386   0.908   2.974  16.692  1.7229  3.0255  0.0600
 9657TIP3    H250387   0.979   3.018  16.566  0.2480 -1.8331 -2.7597
 9658TIP3   OH250388   5.628   4.009   0.321 -0.0933  1.1644 -0.2647
 9658TIP3    H150389   5.676   4.092   0.318 -1.1038  1.7458 -0.8543
 9658TIP3    H250390   5.549   4.025   0.270  0.5537 -0.7360 -2.0131
 9659TIP3   OH250391   0.416   5.735  14.471  0.3821 -0.5202  0.2030
 9659TIP3    H150392   0.449   5.753  14.559  1.1703  0.9291 -0.3627
 9659TIP3    H250393   0.327   5.769  14.471  0.7920  0.5672  0.0908
 9660TIP3   OH250394   0.984   1.606   5.800 -0.4075  0.2081  0.0024
 9660TIP3    H150395   0.898   1.591   5.760 -0.4115  0.6125 -0.1430
 9660TIP3    H250396   0.993   1.536   5.865 -0.4254 -0.4315 -0.6707
 9661TIP3   OH250397   5.302   3.998   2.321 -0.1628  0.2549  0.1131
 9661TIP3    H150398   5.338   4.031   2.404  1.1224 -1.1099  0.1568
 9661TIP3    H250399   5.252   4.071   2.285  2.4524  2.2616  0.2241
 9662TIP3   OH250400   0.023   4.853  13.533 -0.0579  0.0688  0.5070
 9662TIP3    H150401  -0.060   4.831  13.491  0.5726 -1.1518 -0.1572
 9662TIP3    H250402   0.033   4.787  13.602  0.7769 -0.3739 -0.0128
 9663TIP3   OH250403   4.005   3.638  12.495  0.1566 -0.2635 -0.0361
 9663TIP3    H150404   3.940   3.696  12.456 -0.2380 -0.3535  0.4842
 9663TIP3    H250405   3.963   3.604  12.574  0.5821 -0.8465 -0.0532
 9664TIP3   OH250406   2.214   6.516   0.825  0.3320 -0.4637 -0.3779
 9664TIP3    H150407   2.132   6.470   0.809 -0.8063  0.6459  1.7091
 9664TIP3    H250408   2.242   6.485   0.911  0.8146  0.9153 -0.0125
 9665TIP3   OH250409   0.405   2.630   3.235 -0.4363 -0.6132 -0.0063
 9665TIP3    H150410   0.390   2.593   3.321 -2.0301  0.4928  0.2510
 9665TIP3    H250411   0.496   2.657   3.235 -0.0874 -1.7488  0.8663
 9666TIP3   OH250412   4.864   5.589   0.762  0.5670 -0.4383  0.3226
 9666TIP3    H150413   4.816   5.639   0.828  0.0614 -1.1077  0.4671
 9666TIP3    H250414   4.880   5.504   0.802  0.0354 -0.9410 -0.4997
 9667TIP3   OH250415   1.677   5.069  16.201  0.5603 -0.3479  0.6805
 9667TIP3    H150416   1.624   5.146  16.219  0.1514 -0.3017 -0.5904
 9667TIP3    H250417   1.748   5.101  16.145  0.3945 -0.8787  0.1513
 9668TIP3   OH250418   0.930   5.769   2.699  0.8513  0.1277  0.6687
 9668TIP3    H150419   0.947   5.735   2.611 -2.1763 -3.0969  1.1161
 9668TIP3    H250420   0.866   5.838   2.685  1.5474  0.7111  0.2728
 9669TIP3   OH250421   4.563   4.166   5.987  0.3234 -0.4122 -0.6404
 9669TIP3    H150422   4.586   4.194   5.898 -2.5782 -1.1437 -1.7279
 9669TIP3    H250423   4.469   4.183   5.994  0.6295  0.7463  2.7677
 9670TIP3   OH250424   2.040   2.227  11.544  0.3752 -0.4925 -0.1348
 9670TIP3    H150425   2.010   2.149  11.591  2.4217 -1.5215 -0.3821
 9670TIP3    H250426   2.024   2.207  11.452  0.4562 -0.4207 -0.1651
 9671TIP3   OH250427   5.297   1.241   5.648  0.1675  0.5156 -0.0569
 9671TIP3    H150428   5.388   1.217   5.660  0.1383 -1.1626 -2.4454
 9671TIP3    H250429   5.250   1.157   5.641 -0.8832  1.2064 -2.7643
 9672TIP3   OH250430   5.132   2.493  16.683 -0.3127 -0.4995  0.6369
 9672TIP3    H150431   5.158   2.581  16.710  0.0044 -0.7611  1.2068
 9672TIP3    H250432   5.160   2.437  16.755  3.1703 -1.6319 -1.3605
 9673TIP3   OH250433   1.604   0.350  16.138 -0.2400  0.3479  0.2703
 9673TIP3    H150434   1.582   0.443  16.148 -2.0846  0.0243 -0.3310
 9673TIP3    H250435   1.520   0.305  16.148  0.5022 -1.1981 -0.2044
 9674TIP3   OH250436   3.114   3.583  11.988 -0.1202  0.0795  0.1666
 9674TIP3    H150437   3.098   3.491  11.969 -0.6028 -0.0026  0.9305
 9674TIP3    H250438   3.042   3.609  12.045  1.2621  0.2851  1.9170
 9675TIP3   OH250439   1.871   4.026   3.824 -0.2401 -0.1994 -0.4353
 9675TIP3    H150440   1.934   3.954   3.813 -0.3020 -0.0468 -2.1629
 9675TIP3    H250441   1.794   3.986   3.864  0.2473 -0.7996 -0.0970
 9676TIP3   OH250442   4.649   5.663   6.117  0.2060  0.3408  0.1501
 9676TIP3    H150443   4.720   5.718   6.083  2.3753 -3.0466 -1.3128
 9676TIP3    H250444   4.636   5.596   6.050 -2.7125 -0.6268  1.5274
 9677TIP3   OH250445   2.725   2.656  16.804  0.4061  0.0329  0.1606
 9677TIP3    H150446   2.719   2.616  16.717  1.3967 -0.3303  0.2470
 9677TIP3    H250447   2.663   2.729  16.801 -0.6778 -0.8620 -0.3487
 9678TIP3   OH250448   6.643   6.446   2.560  0.2929  0.1475 -0.8938
 9678TIP3    H150449   6.646   6.400   2.644  2.2679 -1.4069 -1.7459
 9678TIP3    H250450   6.726   6.493   2.555  0.4816 -0.2877 -2.2407
 9679TIP3   OH250451   2.749   0.444   4.521 -0.2992  0.0361  0.3084
 9679TIP3    H150452   2.769   0.518   4.579 -1.0500  0.9065 -0.5047
 9679TIP3    H250453   2.659   0.421   4.543 -0.4742  0.1564 -0.2770
 9680TIP3   OH250454   2.669   5.288  12.012  0.3011 -0.6209 -0.3122
 9680TIP3    H150455   2.722   5.273  12.091 -0.8840  0.2678  0.7045
 9680TIP3    H250456   2.726   5.339  11.954  0.9270 -0.5956  0.3099
 9681TIP3   OH250457   4.474   1.082   6.966 -0.5480  0.1726  0.0075
 9681TIP3    H150458   4.515   1.065   6.881  0.6485 -0.4018  0.6646
 9681TIP3    H250459   4.539   1.134   7.013 -0.6637 -0.5760  1.0068
 9682TIP3   OH250460   2.978   1.996   3.708 -0.1172  0.7303 -0.2522
 9682TIP3    H150461   3.007   1.911   3.673 -0.0911  0.1141  1.1753
 9682TIP3    H250462   2.891   1.979   3.743  0.4646  0.8811  1.3662
 9683TIP3   OH250463   3.796   2.639   5.463 -0.0358 -0.6456 -0.1084
 9683TIP3    H150464   3.835   2.552   5.457  0.9320 -0.2232 -0.0684
 9683TIP3    H250465   3.865   2.694   5.501  0.5108  0.8349 -2.9720
 9684TIP3   OH250466   6.367   3.604  16.790 -0.3145  0.3009  0.2541
 9684TIP3    H150467   6.337   3.651  16.712  1.8311  0.8412 -0.2955
 9684TIP3    H250468   6.345   3.663  16.863  2.2751  2.2569 -0.4140
 9685TIP3   OH250469   2.486   0.782  16.393 -0.3166 -0.5083  0.4933
 9685TIP3    H150470   2.396   0.805  16.371  0.0365  0.7659  0.2672
 9685TIP3    H250471   2.509   0.844  16.462  0.7172 -0.1074 -0.1888
 9686TIP3   OH250472   6.396   4.000   3.393  0.6686  0.3382 -0.7043
 9686TIP3    H150473   6.446   3.976   3.471  0.9169  0.4933 -0.8162
 9686TIP3    H250474   6.459   4.045   3.337 -0.0871  2.6215  0.1255
 9687TIP3   OH250475   6.408   0.073  12.020  0.1567 -0.0945  0.0844
 9687TIP3    H150476   6.416  -0.021  12.004 -0.4221 -0.4377  1.6778
 9687TIP3    H250477   6.361   0.079  12.103  1.0989  1.6026  0.5210
 9688TIP3   OH250478   3.425   3.783  14.702 -0.5438 -0.3044 -0.4231
 9688TIP3    H150479   3.502   3.743  14.662  0.2381 -0.2000  0.9353
 9688TIP3    H250480   3.450   3.874  14.717 -1.3710  0.0421 -1.0731
 9689TIP3   OH250481   5.529   5.935   5.128  0.0654 -0.6098 -0.3655
 9689TIP3    H150482   5.460   5.984   5.173  1.5515  0.3383  0.9810
 9689TIP3    H250483   5.603   5.995   5.125  1.0302 -1.7921 -1.2826
 9690TIP3   OH250484   0.945   5.536   0.416  0.0027  0.5488  0.0593
 9690TIP3    H150485   0.982   5.606   0.363  2.3980 -0.9310 -0.4021
 9690TIP3    H250486   0.994   5.539   0.498 -1.4650  0.8221  0.9504
 9691TIP3   OH250487   3.874   1.679   2.582  0.2627 -0.6711 -0.2175
 9691TIP3    H150488   3.925   1.684   2.663  0.0372 -1.3304 -0.0292
 9691TIP3    H250489   3.921   1.616   2.528 -0.8090 -1.9776  0.3090
 9692TIP3   OH250490   3.032   4.225  11.803 -0.3586  0.0057  0.5672
 9692TIP3    H150491   2.960   4.247  11.862  0.2518 -2.1397  2.2542
 9692TIP3    H250492   2.992   4.167  11.737 -0.9899  2.2112 -1.0867
 9693TIP3   OH250493   4.296   4.702  12.396 -0.1840 -0.2918  0.2449
 9693TIP3    H150494   4.232   4.765  12.429 -0.7311 -0.6430 -0.1191
 9693TIP3    H250495   4.336   4.665  12.475  1.0671  1.4012  0.4626
 9694TIP3   OH250496   6.650   5.892  15.957 -0.0250  0.2820 -0.1836
 9694TIP3    H150497   6.720   5.861  15.899  1.2434 -1.3449  2.0799
 9694TIP3    H250498   6.570   5.853  15.920  0.7796 -0.9587 -0.7055
 9695TIP3   OH250499   1.371   2.688   2.193 -0.4232 -0.3730  0.1625
 9695TIP3    H150500   1.413   2.763   2.151  1.1101 -1.9682 -1.3427
 9695TIP3    H250501   1.426   2.669   2.269  0.0992 -0.8593 -0.3224
 9696TIP3   OH250502   5.838   1.029   0.903  0.4584 -0.7270 -0.6270
 9696TIP3    H150503   5.908   0.990   0.849  0.0666 -2.4546  0.0579
 9696TIP3    H250504   5.848   0.988   0.989  0.1610  0.9055  0.2335
 9697TIP3   OH250505   6.706   2.670   5.671  0.2189 -0.0073  0.5801
 9697TIP3    H150506   6.697   2.752   5.720  0.5435  0.0856  0.4897
 9697TIP3    H250507   6.795   2.674   5.635 -0.0056 -0.0915  0.0152
 9698TIP3   OH250508   6.112   4.461  11.240 -0.2672  0.5124 -0.4453
 9698TIP3    H150509   6.191   4.515  11.245 -0.9855  1.5885 -0.3328
 9698TIP3    H250510   6.046   4.511  11.288 -0.9692 -0.4694 -0.3582
 9699TIP3   OH250511   3.832   3.995  13.414 -0.0094 -0.0327  0.1429
 9699TIP3    H150512   3.757   3.937  13.427 -0.6587  0.2109 -2.1792
 9699TIP3    H250513   3.794   4.078  13.386  1.1139  0.0177 -1.3698
 9700TIP3   OH250514   0.431   4.217   3.998 -0.1464  0.2009 -1.0867
 9700TIP3    H150515   0.400   4.143   3.946 -0.1778 -1.2714  0.9098
 9700TIP3    H250516   0.508   4.249   3.950  1.5159 -2.8602 -0.7493
 9701TIP3   OH250517   3.540   2.382  14.469  0.0534 -0.2362  0.2368
 9701TIP3    H150518   3.536   2.399  14.563  0.2395 -1.7344  0.5434
 9701TIP3    H250519   3.550   2.287  14.462 -0.4779 -0.2118 -1.3139
 9702TIP3   OH250520   0.910   0.738  14.356  0.2142  0.1820  0.2187
 9702TIP3    H150521   0.984   0.733  14.296  1.0513 -0.2335  1.2480
 9702TIP3    H250522   0.844   0.680  14.317  0.8478 -0.3021 -0.1603
 9703TIP3   OH250523   4.110   1.117  12.376 -0.3262 -0.0670  0.0721
 9703TIP3    H150524   4.030   1.065  12.367  0.1547 -0.7260 -0.6086
 9703TIP3    H250525   4.176   1.053  12.403  0.1596  0.2878 -0.2653
 9704TIP3   OH250526   0.481   5.631  14.078 -0.5737 -0.2806  0.2627
 9704TIP3    H150527   0.450   5.662  13.993 -0.3496  2.4725  1.0695
 9704TIP3    H250528   0.576   5.631  14.070 -0.5767 -0.9961  0.2115
 9705TIP3   OH250529   5.672   4.616   5.094  0.3003 -0.4270 -0.0686
 9705TIP3    H150530   5.660   4.525   5.066 -1.4757 -0.2776  0.0988
 9705TIP3    H250531   5.622   4.623   5.175 -0.2092  0.8790 -0.4701
 9706TIP3   OH250532   1.991   1.988  11.687  0.4323 -0.1846  0.2630
 9706TIP3    H150533   2.065   1.993  11.748  1.3421 -1.7638 -0.6479
 9706TIP3    H250534   1.961   1.897  11.694 -1.3937  0.3991  0.5481
 9707TIP3   OH250535   1.919   0.640  15.350  0.1163  0.1284  0.0284
 9707TIP3    H150536   1.963   0.596  15.423 -1.2196  0.3012  0.9738
 9707TIP3    H250537   1.885   0.721  15.387  1.8923  1.6716 -1.5149
 9708TIP3   OH250538   4.286   0.838   4.578  0.2761  0.3794 -0.2807
 9708TIP3    H150539   4.315   0.835   4.669 -3.0001  0.0107  0.8847
 9708TIP3    H250540   4.256   0.928   4.566  2.9657  1.1819 -1.9192
 9709TIP3   OH250541   4.612   0.567  16.395 -0.0786  0.5760  0.9535
 9709TIP3    H150542   4.660   0.649  16.386 -1.0404  0.9452 -1.8322
 9709TIP3    H250543   4.521   0.590  16.376 -0.2200 -1.2238 -0.9725
 9710TIP3   OH250544   1.486   2.693  16.918 -0.0791 -0.3602 -0.5061
 9710TIP3    H150545   1.555   2.670  16.856 -1.3169 -0.8723 -1.7442
 9710TIP3    H250546   1.496   2.631  16.990  2.7454  1.5824  1.0013
 9711TIP3   OH250547   2.164   4.302   1.688 -0.2285  0.2720  0.0260
 9711TIP3    H150548   2.186   4.388   1.723 -1.1658  0.0768  1.1634
 9711TIP3    H250549   2.238   4.247   1.711 -1.0488  0.0092  2.3235
 9712TIP3   OH250550   0.727   6.032  15.573  0.1659 -0.5389  0.2968
 9712TIP3    H150551   0.688   5.960  15.522 -2.8947  0.6778  0.7211
 9712TIP3    H250552   0.758   5.990  15.653 -2.6045 -1.3742  1.0583
 9713TIP3   OH250553   2.179   6.035  12.097  0.0266 -0.4828 -0.3521
 9713TIP3    H150554   2.106   6.055  12.155  0.9460  1.5852  0.2024
 9713TIP3    H250555   2.257   6.050  12.151  0.9155  1.6002 -2.0356
 9714TIP3   OH250556   1.134   6.247  12.648 -0.3598  0.1980 -0.0227
 9714TIP3    H150557   1.073   6.320  12.656  0.8696  1.5133 -1.7760
 9714TIP3    H250558   1.080   6.172  12.624 -1.5413  0.7329  0.8945
 9715TIP3   OH250559   2.881   6.515  15.931  0.2388  0.7468  0.1782
 9715TIP3    H150560   2.969   6.522  15.894  0.0298  1.6340 -0.1740
 9715TIP3    H250561   2.895   6.514  16.026  0.8547 -2.5264  0.1770
 9716TIP3   OH250562   5.522   2.138   1.933 -0.8894  0.0067 -0.1434
 9716TIP3    H150563   5.537   2.082   1.856 -2.5609 -2.9277  1.4673
 9716TIP3    H250564   5.591   2.114   1.994 -2.8249 -2.1692  1.3998
 9717TIP3   OH250565   5.202   2.006   3.634 -0.5360  0.0515 -0.4355
 9717TIP3    H150566   5.135   2.049   3.687  0.7944  1.5017  0.1647
 9717TIP3    H250567   5.181   1.913   3.639 -1.6116  0.3398  1.0087
 9718TIP3   OH250568   3.317   0.511  15.249  0.4561 -0.1970  0.2099
 9718TIP3    H150569   3.289   0.471  15.167  1.8915 -1.4483  0.3028
 9718TIP3    H250570   3.383   0.452  15.284  1.7520  1.6119  0.9914
 9719TIP3   OH250571   3.551   3.626  11.523  0.3716  0.0286  0.0360
 9719TIP3    H150572   3.554   3.721  11.513  0.9704  0.0451  0.3314
 9719TIP3    H250573   3.491   3.611  11.596 -0.5996  0.1198 -0.7252
 9720TIP3   OH250574   1.693   2.884  15.719 -0.1013 -0.0596 -0.2027
 9720TIP3    H150575   1.671   2.951  15.654  2.2417 -0.0507 -1.0780
 9720TIP3    H250576   1.786   2.897  15.737 -0.3573 -0.9329  2.1984
 9721TIP3   OH250577   2.199   3.368   3.326  0.0105 -0.2645 -0.0057
 9721TIP3    H150578   2.224   3.320   3.405  0.1068 -0.4258 -0.1329
 9721TIP3    H250579   2.269   3.433   3.316  0.5803 -0.9450 -0.5573
 9722TIP3   OH250580   0.486   4.325   3.154  0.2532 -0.5807  0.3830
 9722TIP3    H150581   0.483   4.403   3.097 -0.7791  0.2847  1.5745
 9722TIP3    H250582   0.556   4.345   3.217 -0.2144 -0.4639  0.8750
 9723TIP3   OH250583   0.075   1.359   2.923 -0.2631 -0.1264  0.2125
 9723TIP3    H150584   0.030   1.429   2.876  1.3759  1.0989  0.3897
 9723TIP3    H250585   0.103   1.400   3.005  2.8316 -0.1970 -0.6850
 9724TIP3   OH250586   3.806   0.431   2.119  0.3956 -0.6094  0.1625
 9724TIP3    H150587   3.841   0.518   2.135  1.5093 -1.4294  2.7951
 9724TIP3    H250588   3.728   0.426   2.174 -1.7959 -0.1250 -2.7319
 9725TIP3   OH250589   4.268   0.088   5.530 -0.8535 -0.4412 -0.4214
 9725TIP3    H150590   4.309   0.002   5.544 -1.4129 -0.3316  2.3226
 9725TIP3    H250591   4.341   0.148   5.520 -0.4243 -0.9346 -0.3064
 9726TIP3   OH250592   6.107   1.205   6.224 -0.2271 -0.1550 -0.3615
 9726TIP3    H150593   6.201   1.194   6.239 -0.4183  0.4622  1.5882
 9726TIP3    H250594   6.073   1.116   6.218  0.2249 -0.4423  0.9125
 9727TIP3   OH250595   5.438   3.117  15.283  0.4224 -0.4178 -0.0608
 9727TIP3    H150596   5.499   3.065  15.335  0.7286  0.1475  0.1591
 9727TIP3    H250597   5.382   3.053  15.240  0.4256 -0.9093  0.6484
 9728TIP3   OH250598   0.255   4.376  15.558  0.2828  0.6928 -0.0916
 9728TIP3    H150599   0.341   4.376  15.601  0.7073  1.7126 -0.8972
 9728TIP3    H250600   0.193   4.371  15.630  1.0025 -1.3072  0.4676
 9729TIP3   OH250601   0.084   2.700  14.127 -0.3999  0.1101  0.1112
 9729TIP3    H150602   0.089   2.625  14.068  0.8957 -0.6052  1.0694
 9729TIP3    H250603   0.155   2.758  14.098 -0.9007  0.6072 -0.1396
 9730TIP3   OH250604   4.773   6.549  16.822 -0.3669  0.7105  0.2045
 9730TIP3    H150605   4.818   6.562  16.738  0.0876  2.1819  0.6438
 9730TIP3    H250606   4.699   6.493  16.802  0.7456 -0.4412 -0.8485
 9731TIP3   OH250607   6.485   2.504   5.589 -0.5034  0.4190 -0.5534
 9731TIP3    H150608   6.557   2.567   5.591 -0.4449  0.3411  0.1342
 9731TIP3    H250609   6.500   2.449   5.666 -0.3358 -0.6781 -1.3566
 9732TIP3   OH250610   0.715   0.268  12.347 -0.1662  0.1166  0.0842
 9732TIP3    H150611   0.724   0.340  12.410  0.2034 -0.9088  1.2412
 9732TIP3    H250612   0.626   0.236  12.361 -0.1575  0.0273 -0.0696
 9733TIP3   OH250613   4.467   1.750   1.900 -0.7565 -0.0460 -0.0067
 9733TIP3    H150614   4.444   1.660   1.925  3.0975 -0.8041  1.6109
 9733TIP3    H250615   4.419   1.805   1.962 -1.7559 -1.0756  0.1707
 9734TIP3   OH250616   6.041   1.455   3.996 -0.2141 -0.0792  0.1079
 9734TIP3    H150617   6.003   1.485   4.079 -2.0075 -0.9472 -0.3320
 9734TIP3    H250618   5.970   1.405   3.955  1.7535 -2.7234 -0.3257
 9735TIP3   OH250619   6.138   1.490   4.492  0.1339 -0.3916  0.1697
 9735TIP3    H150620   6.052   1.473   4.530  0.1535 -0.0782  0.3594
 9735TIP3    H250621   6.199   1.441   4.547 -0.0556 -1.8330 -0.8469
 9736TIP3   OH250622   1.045   4.949  16.612 -0.1445 -0.2698 -0.1105
 9736TIP3    H150623   1.009   5.030  16.574  1.0239  0.3892  0.1289
 9736TIP3    H250624   1.070   4.897  16.536  1.2922  0.6321 -0.2861
 9737TIP3   OH250625   1.351   1.844   5.713  0.1381  0.1362  0.4704
 9737TIP3    H150626   1.330   1.794   5.634  1.5384  0.4351 -0.1125
 9737TIP3    H250627   1.265   1.864   5.752 -0.6104  0.4941 -1.2661
 9738TIP3   OH250628   3.876   4.825  16.425 -0.2371 -0.0585  0.0720
 9738TIP3    H150629   3.785   4.815  16.453 -0.0111 -1.3180  0.4230
 9738TIP3    H250630   3.925   4.839  16.505  0.0366 -0.7615  0.0430
 9739TIP3   OH250631   4.520   2.629  11.400 -0.3150  0.1258  0.0257
 9739TIP3    H150632   4.494   2.696  11.463 -0.2441 -0.8042  1.0749
 9739TIP3    H250633   4.460   2.555  11.416 -0.0894 -0.2471 -0.7766
 9740TIP3   OH250634   3.861   1.026   5.726 -0.4358 -0.3476 -0.5080
 9740TIP3    H150635   3.781   0.977   5.707 -1.4172  1.4706 -1.2402
 9740TIP3    H250636   3.875   1.013   5.820 -2.3153  0.2911 -0.0878
 9741TIP3   OH250637   3.340   1.419   0.788 -0.1729 -0.1903  0.0467
 9741TIP3    H150638   3.421   1.436   0.740  0.0905 -3.2134 -0.8299
 9741TIP3    H250639   3.366   1.412   0.879 -0.1125  2.2839  0.2821
 9742TIP3   OH250640   3.976   0.319   2.651  0.1942  0.3515  0.2980
 9742TIP3    H150641   4.001   0.389   2.591 -1.1384  0.8950  0.3352
 9742TIP3    H250642   3.882   0.308   2.636  0.1829 -0.7107  1.0510
 9743TIP3   OH250643   5.168   4.675  16.892  0.0568  0.3004  0.0871
 9743TIP3    H150644   5.173   4.691  16.986 -1.4669  0.0734  0.2468
 9743TIP3    H250645   5.109   4.599  16.884  0.0835  0.3780 -1.0439
 9744TIP3   OH250646   5.958   6.710   4.433 -0.2690 -0.0548 -0.4868
 9744TIP3    H150647   5.874   6.703   4.477  0.2470  1.5998  0.8837
 9744TIP3    H250648   6.005   6.631   4.458 -0.9113 -0.3344 -0.1289
 9745TIP3   OH250649   1.628   0.494   1.020  0.0651 -0.4753 -0.1494
 9745TIP3    H150650   1.535   0.495   0.996  0.0473 -1.7677 -0.2211
 9745TIP3    H250651   1.654   0.403   1.009  1.1015 -0.3152  0.8146
 9746TIP3   OH250652   1.967   1.690  11.932 -0.3493 -0.2351  0.0141
 9746TIP3    H150653   1.886   1.689  11.983 -0.3867  0.6572 -0.0119
 9746TIP3    H250654   2.007   1.775  11.952  1.7560 -1.5438  1.8418
 9747TIP3   OH250655   1.653   1.686  14.152  0.0490  0.0100  0.6954
 9747TIP3    H150656   1.631   1.733  14.232  0.8430  0.2214  0.7907
 9747TIP3    H250657   1.596   1.726  14.085  1.1082  1.5351  0.6502
 9748TIP3   OH250658   4.223   3.371   6.331 -0.4882 -0.2748  0.0220
 9748TIP3    H150659   4.163   3.425   6.383 -1.0093 -1.7369  1.0439
 9748TIP3    H250660   4.185   3.283   6.338  1.4808 -1.1456  0.2376
 9749TIP3   OH250661   6.582   6.208   4.155 -0.1745  0.3526 -0.0538
 9749TIP3    H150662   6.526   6.173   4.224  1.2384  0.2292  1.0891
 9749TIP3    H250663   6.600   6.298   4.182  0.8841  0.1129  0.0753
 9750TIP3   OH250664   5.415   6.570   5.630  0.5714 -0.4295  0.3501
 9750TIP3    H150665   5.479   6.500   5.647 -0.1874 -1.1314  0.4107
 9750TIP3    H250666   5.421   6.627   5.707  2.5368  0.6567 -0.5440
 9751TIP3   OH250667   1.373   2.944  14.458 -0.5274 -0.7077 -0.1952
 9751TIP3    H150668   1.306   2.898  14.508 -0.2452 -1.2521 -0.3060
 9751TIP3    H250669   1.454   2.926  14.506 -0.1636 -1.7201 -1.1379
 9752TIP3   OH250670   5.951   4.869   5.729 -0.2141  0.0861 -0.6773
 9752TIP3    H150671   5.873   4.919   5.703 -1.2382 -1.8035 -1.4700
 9752TIP3    H250672   5.926   4.829   5.812  0.6780  1.0472  0.0653
 9753TIP3   OH250673   5.541   6.726   3.244 -0.0210 -0.0246 -0.0813
 9753TIP3    H150674   5.529   6.791   3.175  1.0720 -0.0129 -0.2769
 9753TIP3    H250675   5.581   6.652   3.201  0.5791 -0.0581  0.5190
 9754TIP3   OH250676   2.072   3.205   2.484  0.1339  0.0558  0.2248
 9754TIP3    H150677   2.046   3.116   2.504  0.4103 -0.3488 -1.1027
 9754TIP3    H250678   2.028   3.259   2.549  1.4658 -1.1897  2.2447
 9755TIP3   OH250679   2.297   0.645  12.671 -0.1580 -0.0429  0.1011
 9755TIP3    H150680   2.314   0.586  12.598  0.7617  0.5971 -0.2258
 9755TIP3    H250681   2.361   0.618  12.738 -0.0690  0.2555  0.1360
 9756TIP3   OH250682   2.382   2.523  13.645 -0.0644 -0.3375 -0.5121
 9756TIP3    H150683   2.336   2.441  13.629 -0.2030 -0.5402  0.7906
 9756TIP3    H250684   2.447   2.502  13.711  0.6812  0.3527 -1.0094
 9757TIP3   OH250685   2.340   1.516  15.524 -0.1237  0.2140  0.0432
 9757TIP3    H150686   2.245   1.503  15.519 -0.4786  1.6695  1.9464
 9757TIP3    H250687   2.367   1.532  15.434 -1.4748 -1.3194 -0.6831
 9758TIP3   OH250688   0.050   2.002  14.365  0.3202 -0.3341 -0.5944
 9758TIP3    H150689  -0.018   1.947  14.404 -0.4785 -0.9138 -2.7189
 9758TIP3    H250690   0.042   1.989  14.271  2.6305  0.4869 -0.9802
 9759TIP3   OH250691   2.090   3.421  13.789 -0.1601 -0.2158 -0.5463
 9759TIP3    H150692   2.103   3.348  13.848  0.7684  0.5701  0.2561
 9759TIP3    H250693   2.122   3.390  13.704  2.5995  0.0185  0.3053
 9760TIP3   OH250694   2.823   1.480  13.297 -0.5222  0.1947 -0.3128
 9760TIP3    H150695   2.904   1.472  13.247  0.2651 -0.3829  1.0058
 9760TIP3    H250696   2.822   1.571  13.326  0.4820 -0.1876  0.9863
 9761TIP3   OH250697   0.511   5.458  12.372  0.4332 -0.4200  0.0531
 9761TIP3    H150698   0.527   5.425  12.461  1.0562 -2.2976 -0.6945
 9761TIP3    H250699   0.590   5.506  12.350  0.3387 -0.0747  0.4655
 9762TIP3   OH250700   0.604   1.007   1.483 -0.3781  0.9028  0.3063
 9762TIP3    H150701   0.614   1.012   1.578 -0.3235 -0.8522  0.4167
 9762TIP3    H250702   0.677   0.952   1.454 -0.7318  0.9409 -0.6887
 9763TIP3   OH250703   3.109   0.591   5.188 -0.6169 -0.1167  0.5169
 9763TIP3    H150704   3.129   0.505   5.224 -1.3339 -1.0414 -1.1836
 9763TIP3    H250705   3.191   0.620   5.148 -0.2958  0.1367  1.3395
 9764TIP3   OH250706   2.521   6.514   5.014 -0.0092 -0.6659 -0.3757
 9764TIP3    H150707   2.595   6.512   5.075 -0.5028 -1.3961  0.2210
 9764TIP3    H250708   2.470   6.591   5.041  0.6164 -0.0609 -0.9017
 9765TIP3   OH250709   5.785   0.520  13.368  0.0396  0.2648 -0.0827
 9765TIP3    H150710   5.749   0.493  13.283 -0.1519 -0.5047  0.2321
 9765TIP3    H250711   5.725   0.481  13.432  0.6085  0.2124  0.4200
 9766TIP3   OH250712   5.145   2.950   4.270  0.1258 -0.0278 -0.1410
 9766TIP3    H150713   5.216   3.013   4.283 -0.0690  0.5621 -1.7332
 9766TIP3    H250714   5.065   3.000   4.285 -0.0306  0.1379 -1.4182
 9767TIP3   OH250715   6.487   3.732   2.769  0.0119  0.5308 -0.1165
 9767TIP3    H150716   6.480   3.804   2.707  0.0764 -0.4500 -1.2932
 9767TIP3    H250717   6.579   3.732   2.796  0.7552 -0.8547 -2.3532
 9768TIP3   OH250718   1.846   2.778   3.780 -0.0051  0.0882  0.3092
 9768TIP3    H150719   1.865   2.820   3.864  2.6974 -0.9800  0.3236
 9768TIP3    H250720   1.911   2.815   3.720 -0.6799 -0.5611 -0.8581
 9769TIP3   OH250721   2.355   3.300   1.868 -0.1300 -0.5775  0.5748
 9769TIP3    H150722   2.274   3.310   1.919 -0.6030 -0.5878 -0.1647
 9769TIP3    H250723   2.390   3.215   1.895 -1.0638 -1.1826 -0.0624
 9770TIP3   OH250724   0.847   2.387   4.177  0.2579  0.1160 -0.0084
 9770TIP3    H150725   0.774   2.349   4.227 -0.1438  1.2477  0.3066
 9770TIP3    H250726   0.812   2.397   4.088  0.1952  0.1864  0.0236
 9771TIP3   OH250727   2.752   0.885   3.115 -0.0998 -0.5494 -0.7038
 9771TIP3    H150728   2.834   0.836   3.122 -0.3737 -0.7853  1.7936
 9771TIP3    H250729   2.768   0.966   3.163 -0.5612  0.6151 -2.3982
 9772TIP3   OH250730   1.744   1.777   1.698 -0.7345  0.4907  0.1922
 9772TIP3    H150731   1.800   1.850   1.725 -0.0751 -0.2558  0.8994
 9772TIP3    H250732   1.732   1.790   1.604  3.0383 -0.8655 -0.6431
 9773TIP3   OH250733   2.495   6.281   1.279  0.7629 -0.1463 -0.0957
 9773TIP3    H150734   2.589   6.287   1.262  0.7411  0.0883 -0.1352
 9773TIP3    H250735   2.476   6.352   1.340  0.2798  1.0687 -1.5709
 9774TIP3   OH250736   0.326   6.202  16.576 -0.1749 -0.1836  0.5854
 9774TIP3    H150737   0.238   6.199  16.613  0.6847 -1.3837  2.6823
 9774TIP3    H250738   0.369   6.275  16.621  0.3195 -0.4797  0.6029
 9775TIP3   OH250739   3.981   4.042   6.593  0.1566 -0.1605 -0.2366
 9775TIP3    H150740   3.961   3.948   6.583 -0.5815 -0.2104  1.4565
 9775TIP3    H250741   3.919   4.085   6.534 -0.6670 -0.6645  0.2388
 9776TIP3   OH250742   1.250   3.722   2.078 -0.4150 -0.1119  0.3226
 9776TIP3    H150743   1.232   3.654   2.143 -0.8317 -1.0501 -0.7516
 9776TIP3    H250744   1.233   3.680   1.994  0.5442  0.9457 -0.4245
 9777TIP3   OH250745   6.718   1.290  14.897  0.2252  0.7289  0.1746
 9777TIP3    H150746   6.797   1.246  14.928 -0.0499  0.4665  0.5065
 9777TIP3    H250747   6.649   1.261  14.957 -0.4071 -0.1319 -0.9547
 9778TIP3   OH250748   0.840   3.028  13.500  0.1423  0.0164 -0.3089
 9778TIP3    H150749   0.935   3.031  13.491  0.6396 -2.2896  2.4725
 9778TIP3    H250750   0.813   2.952  13.448 -0.0864  0.2178 -0.4879
 9779TIP3   OH250751   5.576   6.590   5.888 -0.6840  0.0469  0.4180
 9779TIP3    H150752   5.667   6.598   5.858 -0.9786 -0.3810 -0.6301
 9779TIP3    H250753   5.570   6.501   5.923 -0.8588 -0.1470 -0.0970
 9780TIP3   OH250754   3.134   3.778   3.977  0.7795 -0.3269 -1.0221
 9780TIP3    H150755   3.066   3.826   3.931 -1.0427  0.0467  1.7590
 9780TIP3    H250756   3.210   3.835   3.976 -0.0924  0.8669 -1.1781
 9781TIP3   OH250757   0.956   1.171   1.389 -0.3766 -0.0949  0.4241
 9781TIP3    H150758   1.046   1.179   1.356 -1.3509 -1.3386 -2.9892
 9781TIP3    H250759   0.966   1.139   1.478  2.5792 -0.8984 -0.0883
 9782TIP3   OH250760   1.796   0.313   2.436  0.9050 -0.4593  0.0051
 9782TIP3    H150761   1.885   0.327   2.405  0.1716 -0.4442 -2.2659
 9782TIP3    H250762   1.740   0.351   2.368 -0.8644  0.8183  1.9934
 9783TIP3   OH250763   5.651   0.292   1.811  0.1257  0.2999  0.0326
 9783TIP3    H150764   5.571   0.260   1.768  0.4318  1.9083 -1.9124
 9783TIP3    H250765   5.630   0.383   1.833  0.9715  0.3236  0.7681
 9784TIP3   OH250766   1.568   1.943  11.913  0.7555 -0.2269  0.5257
 9784TIP3    H150767   1.566   2.028  11.870  3.8393  0.7202  1.9687
 9784TIP3    H250768   1.661   1.920  11.918  0.1012 -3.3349  0.9232
 9785TIP3   OH250769   6.593   4.132   3.243  0.3748 -0.3458 -0.4054
 9785TIP3    H150770   6.675   4.084   3.236  0.4021 -0.3838  0.1066
 9785TIP3    H250771   6.545   4.111   3.163 -0.0379 -2.0533  0.2439
 9786TIP3   OH250772   1.915   2.731  13.156  0.4641  0.1769 -0.0454
 9786TIP3    H150773   1.955   2.734  13.243 -0.0298  0.7604  0.1730
 9786TIP3    H250774   1.927   2.641  13.126  0.3498 -0.1082  0.7596
 9787TIP3   OH250775   2.570   4.926  13.903  0.0179  0.5016  0.2446
 9787TIP3    H150776   2.520   4.858  13.949 -0.6045  0.6786 -0.1633
 9787TIP3    H250777   2.509   4.963  13.840  0.6981  0.6427 -0.3559
 9788TIP3   OH250778   4.591   2.820   4.385  0.1532  0.3947  0.1241
 9788TIP3    H150779   4.538   2.866   4.450  1.1294  0.8689  0.6100
 9788TIP3    H250780   4.578   2.869   4.304 -0.4563  0.2719  0.1484
 9789TIP3   OH250781   0.329   6.535   0.217 -0.4125 -0.8455  0.3307
 9789TIP3    H150782   0.329   6.630   0.200 -0.9159 -0.7510  0.8308
 9789TIP3    H250783   0.421   6.511   0.218 -0.3069 -0.5946 -1.0672
 9790TIP3   OH250784   2.961   6.704   0.020 -0.0318  0.0918 -0.1975
 9790TIP3    H150785   2.891   6.671  -0.035 -0.8064 -0.7359  1.2536
 9790TIP3    H250786   3.017   6.754  -0.041 -0.4762 -1.3217 -1.8470
 9791TIP3   OH250787   4.419   5.966   6.568 -0.7821  0.0293  0.1736
 9791TIP3    H150788   4.513   5.954   6.584 -0.2652  1.1548 -1.6920
 9791TIP3    H250789   4.377   5.911   6.633  1.1710 -0.4714  1.1022
 9792TIP3   OH250790   2.277   3.239   0.868  0.5976 -0.2177  0.1870
 9792TIP3    H150791   2.222   3.269   0.941 -1.5274 -1.4164 -0.8250
 9792TIP3    H250792   2.347   3.189   0.910 -0.5111 -0.7853  1.4282
 9793TIP3   OH250793   6.667   6.167   1.715  0.2380 -0.1417  0.2936
 9793TIP3    H150794   6.616   6.247   1.727  0.4048  0.0027  0.0375
 9793TIP3    H250795   6.749   6.196   1.676 -0.6627 -0.7078 -2.1729
 9794TIP3   OH250796   1.585   1.926  14.575 -0.3820  0.3035  0.6144
 9794TIP3    H150797   1.525   1.919  14.500  0.7364  0.8582 -0.3641
 9794TIP3    H250798   1.667   1.958  14.537  0.7260 -0.9952  1.8312
 9795TIP3   OH250799   4.259   2.150   4.662  0.4780  0.3434  0.0107
 9795TIP3    H150800   4.163   2.141   4.666  0.5789 -0.6219  2.6541
 9795TIP3    H250801   4.275   2.200   4.583 -2.1057 -0.8450 -1.4090
 9796TIP3   OH250802   1.956   6.084   2.572  0.1294 -0.2192 -0.0580
 9796TIP3    H150803   2.038   6.124   2.543  0.3577 -1.4610 -1.2518
 9796TIP3    H250804   1.984   6.004   2.618 -0.3986 -0.9389 -0.9520
 9797TIP3   OH250805   6.325   2.628  12.406 -0.6129  0.4152 -0.1317
 9797TIP3    H150806   6.249   2.654  12.458 -0.4701 -1.1471  0.9175
 9797TIP3    H250807   6.290   2.567  12.341 -0.3407  0.0847  0.0283
 9798TIP3   OH250808   6.661   1.199   3.081  0.1025 -0.0377 -0.4169
 9798TIP3    H150809   6.590   1.190   3.145 -0.9096 -1.5252 -1.6706
 9798TIP3    H250810   6.619   1.184   2.996  1.8619 -0.6001 -1.2373
 9799TIP3   OH250811   3.903   0.927  15.809 -0.3062 -0.8940  0.3065
 9799TIP3    H150812   3.847   0.911  15.733  0.0608 -2.7344  0.3759
 9799TIP3    H250813   3.943   1.013  15.791 -2.3667  0.0177 -0.1828
 9800TIP3   OH250814   6.434   5.647   4.480 -0.6588 -0.2042 -1.1135
 9800TIP3    H150815   6.373   5.617   4.413 -0.6226 -2.1255 -0.3702
 9800TIP3    H250816   6.478   5.567   4.509 -1.0216  0.4588  1.5116
 9801TIP3   OH250817   4.093   4.364   0.669  0.0520  0.6158 -0.0414
 9801TIP3    H150818   4.009   4.341   0.629 -0.1405  0.9623  0.1557
 9801TIP3    H250819   4.152   4.293   0.644 -0.7740 -0.6328  1.4309
 9802TIP3   OH250820   0.416   6.540  13.441 -0.5898  0.2155  0.1670
 9802TIP3    H150821   0.379   6.624  13.469 -0.0948  0.0513  1.3459
 9802TIP3    H250822   0.369   6.475  13.493  0.0459 -0.1287  0.3086
 9803TIP3   OH250823   1.208   2.269   4.893 -0.5211 -0.1081 -0.5275
 9803TIP3    H150824   1.280   2.321   4.929  0.5324 -0.1685 -2.4183
 9803TIP3    H250825   1.152   2.333   4.849 -0.6118 -0.2920 -0.6785
 9804TIP3   OH250826   2.481   5.849   2.139 -0.1104  0.8356 -0.2719
 9804TIP3    H150827   2.545   5.866   2.208  0.7831 -0.1256 -0.8325
 9804TIP3    H250828   2.492   5.922   2.078 -2.1497  2.7059  1.3799
 9805TIP3   OH250829   5.169   5.631  12.066 -0.6743  0.0783 -0.1199
 9805TIP3    H150830   5.089   5.669  12.102  0.2061  0.8116  1.1163
 9805TIP3    H250831   5.233   5.635  12.137  0.3798 -0.8028 -0.9704
 9806TIP3   OH250832   0.049   4.588  16.687  0.0428  0.1194  0.3677
 9806TIP3    H150833  -0.012   4.524  16.648 -0.8563  0.6231  0.9108
 9806TIP3    H250834   0.124   4.588  16.628 -0.3999 -0.6674 -0.2197
 9807TIP3   OH250835   0.424   6.571  14.971 -0.1251  0.4720  0.2915
 9807TIP3    H150836   0.432   6.504  15.039  1.3397  0.4159  0.0858
 9807TIP3    H250837   0.405   6.522  14.891  3.0276  0.0145 -0.2924
 9808TIP3   OH250838   4.686   0.867   5.378  1.0258 -0.0386  0.2012
 9808TIP3    H150839   4.639   0.931   5.324  2.2943  0.0550 -0.8484
 9808TIP3    H250840   4.641   0.869   5.462  0.9668  2.1638  0.1665
 9809TIP3   OH250841   4.442   3.178  12.497 -0.3973 -0.3569  0.1005
 9809TIP3    H150842   4.421   3.264  12.532  0.1452 -0.8976  1.8413
 9809TIP3    H250843   4.403   3.116  12.558  1.2901 -1.3364  0.2661
 9810TIP3   OH250844   5.628   4.571  15.751  0.1964 -0.0934  0.2003
 9810TIP3    H150845   5.641   4.544  15.661  0.4411  2.0114 -0.4509
 9810TIP3    H250846   5.664   4.660  15.755 -2.0665  0.8629  1.6862
 9811TIP3   OH250847   5.239   1.004   3.408  0.2405 -0.9091 -0.0723
 9811TIP3    H150848   5.293   0.927   3.429  1.3655 -0.3889 -0.9135
 9811TIP3    H250849   5.201   1.031   3.492  0.1229 -2.1615  0.2867
 9812TIP3   OH250850   2.385   6.518   1.405 -0.3293 -0.6477 -0.2496
 9812TIP3    H150851   2.401   6.595   1.351  0.3155 -0.8808 -0.3942
 9812TIP3    H250852   2.351   6.553   1.487  0.1347 -0.1913 -0.2460
 9813TIP3   OH250853   6.395   6.592  10.822 -0.6269 -0.6666  0.1318
 9813TIP3    H150854   6.378   6.502  10.851 -0.2625 -0.8776 -0.2966
 9813TIP3    H250855   6.353   6.598  10.736 -1.1400 -0.2440  0.4018
 9814TIP3   OH250856   2.290   6.166  13.372 -0.5111  0.3747  0.4074
 9814TIP3    H150857   2.315   6.207  13.455  0.1664 -2.0676  1.5119
 9814TIP3    H250858   2.301   6.235  13.306  2.3940  1.4364  1.8550
 9815TIP3   OH250859   2.690   0.364   2.756 -0.3044 -0.3082  0.3890
 9815TIP3    H150860   2.690   0.432   2.689 -1.9118 -1.2252 -0.6324
 9815TIP3    H250861   2.779   0.363   2.790 -0.2676  2.4094  0.6067
 9816TIP3   OH250862   3.510   6.296   2.082  0.4536 -0.1891 -0.5538
 9816TIP3    H150863   3.462   6.277   2.002  2.1549 -0.1976 -1.6064
 9816TIP3    H250864   3.566   6.220   2.095  1.3831  0.5195 -0.2806
 9817TIP3   OH250865   5.691   2.358  14.688 -0.1357 -0.7380 -0.4159
 9817TIP3    H150866   5.637   2.419  14.638  0.6648  1.6887  1.4792
 9817TIP3    H250867   5.765   2.338  14.630  0.4543  1.4939 -0.4941
 9818TIP3   OH250868   0.183   3.058   1.096 -0.4129 -0.2355  0.1209
 9818TIP3    H150869   0.254   3.064   1.160 -1.3839 -1.3684  1.3679
 9818TIP3    H250870   0.109   3.021   1.145 -0.4762 -3.6178 -2.1490
 9819TIP3   OH250871   1.085   5.236  12.182  0.1881  0.2471  0.1923
 9819TIP3    H150872   1.141   5.171  12.140 -0.9526 -0.3655 -0.4383
 9819TIP3    H250873   1.124   5.320  12.157  1.6299 -0.1569  0.9498
 9820TIP3   OH250874   0.381   5.519   3.356  0.1417 -0.2450  0.5235
 9820TIP3    H150875   0.389   5.600   3.407  1.8309  0.9305 -1.4541
 9820TIP3    H250876   0.439   5.532   3.281 -0.6871 -2.7123 -0.6517
 9821TIP3   OH250877   4.225   4.993   1.102  0.7655  0.3460  0.2591
 9821TIP3    H150878   4.230   4.901   1.076 -3.4506  0.2395 -0.8243
 9821TIP3    H250879   4.294   5.036   1.051  1.7843 -1.9270 -0.4245
 9822TIP3   OH250880   6.583   4.381   6.132 -0.0138  0.9196  0.0186
 9822TIP3    H150881   6.673   4.382   6.165  0.0154  0.3443 -0.0379
 9822TIP3    H250882   6.588   4.420   6.045  0.8962 -2.7621 -1.7564
 9823TIP3   OH250883   1.257   2.065   3.501  0.4839 -0.3250 -0.6460
 9823TIP3    H150884   1.333   2.097   3.550 -0.1031 -0.0076  0.0874
 9823TIP3    H250885   1.222   2.143   3.458  2.6989 -1.0430 -4.0816
 9824TIP3   OH250886   5.061   1.485   0.014 -0.5875 -0.5626 -0.1235
 9824TIP3    H150887   5.104   1.542   0.078 -0.3977  0.5065 -1.1607
 9824TIP3    H250888   4.980   1.530  -0.008  0.0725 -0.0950 -1.7702
 9825TIP3   OH250889   4.007   4.347  16.777 -0.4612  0.1904 -0.3944
 9825TIP3    H150890   4.045   4.297  16.850 -0.9709 -0.0079 -0.2523
 9825TIP3    H250891   3.920   4.371  16.809 -0.6368  0.2146 -0.8901
 9826TIP3   OH250892   5.000   3.587   4.411  0.5951 -0.0832 -0.2508
 9826TIP3    H150893   5.025   3.510   4.462  0.1987  0.3359  0.6056
 9826TIP3    H250894   5.078   3.609   4.361  0.2265 -2.0154 -1.7969
 9827TIP3   OH250895   1.414   5.064   2.814 -0.0093  0.2516  0.3951
 9827TIP3    H150896   1.370   5.006   2.751  2.2172 -0.2588 -0.7881
 9827TIP3    H250897   1.342   5.109   2.859 -1.7809 -2.0010  0.0239
 9828TIP3   OH250898   6.178   1.534   0.503  0.1287  0.1694 -0.0896
 9828TIP3    H150899   6.175   1.603   0.569  0.0346  0.0284  0.0555
 9828TIP3    H250900   6.178   1.580   0.420  1.0094  0.3776  0.0117
 9829TIP3   OH250901   6.120   5.049   2.744 -0.4508 -0.0207  0.5514
 9829TIP3    H150902   6.165   5.053   2.660 -1.4200  2.0926  0.0696
 9829TIP3    H250903   6.165   4.979   2.792  0.8311 -0.5393 -1.2922
 9830TIP3   OH250904   0.198   6.577   1.211  0.0868  0.5795 -0.0854
 9830TIP3    H150905   0.236   6.494   1.182  0.4727  1.0382 -0.9480
 9830TIP3    H250906   0.108   6.555   1.235  0.1555 -0.0748 -0.3929
 9831TIP3   OH250907   1.276   6.142  17.117  0.3869  0.1775 -0.7176
 9831TIP3    H150908   1.338   6.171  17.051 -0.3154 -0.0022 -1.4764
 9831TIP3    H250909   1.190   6.169  17.083 -0.1050 -1.0376 -0.4834
 9832TIP3   OH250910   5.388   0.158   3.872 -0.0408 -0.2046 -0.3002
 9832TIP3    H150911   5.311   0.201   3.835  0.2734 -1.1782 -2.2052
 9832TIP3    H250912   5.366   0.065   3.873  0.3452 -0.3070  1.1269
 9833TIP3   OH250913   0.916   0.215   5.813 -0.4327  0.6094 -0.1040
 9833TIP3    H150914   0.965   0.273   5.755 -0.0737 -0.2598 -0.6949
 9833TIP3    H250915   0.879   0.273   5.880  1.0390  1.3480  0.1077
 9834TIP3   OH250916   3.078   0.219   3.030 -0.4853  0.2944  0.0480
 9834TIP3    H150917   3.058   0.151   3.096 -0.1411 -2.4001 -2.4093
 9834TIP3    H250918   3.153   0.265   3.066 -1.7532  0.5836  2.5978
 9835TIP3   OH250919   4.208   1.009   2.031  0.3950  0.4226 -0.2998
 9835TIP3    H150920   4.280   0.950   2.053  0.4619 -0.1503 -1.9701
 9835TIP3    H250921   4.156   1.015   2.112 -0.3265 -2.9294 -0.3833
 9836TIP3   OH250922   3.845   4.368  12.144 -0.0267 -0.5045 -0.2006
 9836TIP3    H150923   3.781   4.296  12.148 -1.1701  0.2586 -2.6378
 9836TIP3    H250924   3.911   4.338  12.082  0.6552 -0.2980  0.4182
 9837TIP3   OH250925   4.774   3.548   0.957 -1.1579 -0.5803 -0.1554
 9837TIP3    H150926   4.838   3.478   0.956 -0.9341 -0.3734 -0.5784
 9837TIP3    H250927   4.705   3.517   1.016 -0.3586 -0.5159  0.8495
 9838TIP3   OH250928   1.781   0.759   2.278  0.1543  0.1810 -0.3726
 9838TIP3    H150929   1.760   0.794   2.191 -0.3838  1.3627  0.2021
 9838TIP3    H250930   1.867   0.794   2.298 -1.3753  3.4778  1.2458
 9839TIP3   OH250931   3.402   0.558  13.387  0.4062 -0.2418 -0.1029
 9839TIP3    H150932   3.344   0.612  13.440  0.0865 -0.1697 -0.5184
 9839TIP3    H250933   3.348   0.483  13.361  0.5653 -0.2837 -0.3139
 9840TIP3   OH250934   6.047   0.625  14.295  0.7634  0.1202 -0.0221
 9840TIP3    H150935   6.135   0.600  14.324  1.3684  0.8900 -1.1571
 9840TIP3    H250936   6.026   0.703  14.347  1.8498  1.5014 -1.5854
 9841TIP3   OH250937   0.718   5.969   6.519 -0.3271 -0.1264 -0.1178
 9841TIP3    H150938   0.706   6.032   6.590 -2.0353 -0.4837 -0.0517
 9841TIP3    H250939   0.798   5.998   6.475  0.6114  0.2750  1.7490
 9842TIP3   OH250940   0.023   5.891   5.603  0.4735 -0.0861 -0.3192
 9842TIP3    H150941   0.020   5.980   5.569 -1.1217  0.2844  0.6591
 9842TIP3    H250942   0.114   5.877   5.627  0.6122  1.5784  0.2154
 9843TIP3   OH250943   0.104   5.609  11.542 -0.3653 -0.5030 -0.6767
 9843TIP3    H150944   0.175   5.672  11.536 -0.5978 -0.2652 -1.0156
 9843TIP3    H250945   0.108   5.576  11.632 -0.1247 -0.1445 -0.5537
 9844TIP3   OH250946   4.211   1.512   3.646 -0.4332  0.4467 -0.1190
 9844TIP3    H150947   4.214   1.422   3.679  0.1149 -0.0683 -1.4802
 9844TIP3    H250948   4.237   1.565   3.721 -0.3139 -0.5697  0.5902
 9845TIP3   OH250949   5.133   4.965   2.675  0.2789  0.2730  0.4177
 9845TIP3    H150950   5.203   4.985   2.613  0.8132 -0.3761  0.7967
 9845TIP3    H250951   5.144   5.030   2.744  1.5551 -0.7935  1.2836
 9846TIP3   OH250952   3.333   0.326   4.233  0.4443 -0.6638 -0.0098
 9846TIP3    H150953   3.336   0.270   4.310 -3.4094  0.9895  1.6076
 9846TIP3    H250954   3.367   0.410   4.263 -1.1964  0.0273  0.0521
 9847TIP3   OH250955   1.967   2.532  14.911  0.2135 -0.7652 -0.0842
 9847TIP3    H150956   1.961   2.625  14.890  1.6237  0.0096  2.4488
 9847TIP3    H250957   1.892   2.516  14.968  0.3398 -1.0148  0.0109
 9848TIP3   OH250958   6.462   3.718  13.827  0.0271  0.0763  0.0079
 9848TIP3    H150959   6.397   3.788  13.821  0.9566  0.8664 -1.2852
 9848TIP3    H250960   6.542   3.762  13.858 -0.0745 -0.9329  1.8751
 9849TIP3   OH250961   5.250   6.279  11.268 -0.0912 -0.1408 -0.1989
 9849TIP3    H150962   5.266   6.195  11.224  2.2299 -0.0095  0.3156
 9849TIP3    H250963   5.223   6.338  11.198 -2.9348 -1.5233 -0.4147
 9850TIP3   OH250964   3.147   1.230  12.986 -0.3953 -0.3807  0.3176
 9850TIP3    H150965   3.220   1.240  12.925 -0.5334 -0.4145  0.1442
 9850TIP3    H250966   3.076   1.193  12.932 -0.4771 -0.5286  0.5278
 9851TIP3   OH250967   4.560   0.517  12.431  0.6801  0.6124  0.5263
 9851TIP3    H150968   4.522   0.605  12.425 -0.3634  0.0844 -2.1213
 9851TIP3    H250969   4.513   0.476  12.503  0.4841  1.9008  1.1625
 9852TIP3   OH250970   4.355   4.212  16.919 -0.0262  0.7821 -0.1960
 9852TIP3    H150971   4.373   4.197  16.827 -1.1713 -0.4068 -0.2489
 9852TIP3    H250972   4.267   4.176  16.933  0.3866  0.3367  1.4923
 9853TIP3   OH250973   6.480   6.765  17.014  0.6541  0.2582 -0.2927
 9853TIP3    H150974   6.402   6.712  16.998  1.0505  0.0329 -1.6076
 9853TIP3    H250975   6.512   6.737  17.100 -0.1133 -0.3927 -0.2150
 9854TIP3   OH250976   2.435   0.266   5.488  0.3412  0.0786 -0.1064
 9854TIP3    H150977   2.417   0.275   5.394  0.3498 -1.8138 -0.3219
 9854TIP3    H250978   2.512   0.210   5.492 -1.8597 -3.1840  1.0150
 9855TIP3   OH250979   1.217   4.256   0.485 -0.2065  0.0975 -0.3894
 9855TIP3    H150980   1.252   4.169   0.463 -0.4578 -0.7194  2.0900
 9855TIP3    H250981   1.183   4.290   0.402  0.2662 -1.9948 -1.5153
 9856TIP3   OH250982   1.341   5.824   0.898 -0.3368 -0.3433 -0.4384
 9856TIP3    H150983   1.392   5.814   0.818 -1.1754 -0.0835 -1.0200
 9856TIP3    H250984   1.399   5.869   0.959 -0.4050  1.4153 -1.6155
 9857TIP3   OH250985   1.852   0.096   3.797 -0.3056 -0.5905 -0.5864
 9857TIP3    H150986   1.803   0.015   3.811 -0.8073 -0.7694 -2.8421
 9857TIP3    H250987   1.932   0.068   3.752 -0.1826  0.0976 -0.8088
 9858TIP3   OH250988   0.453   3.965  15.090  0.2809 -0.0917  0.2103
 9858TIP3    H150989   0.518   3.895  15.084 -1.3578 -1.9938  2.9602
 9858TIP3    H250990   0.395   3.950  15.015  2.1569  0.8940 -1.5591
 9859TIP3   OH250991   5.462   1.012   6.057  0.0658 -0.0605  0.0501
 9859TIP3    H150992   5.538   1.070   6.052  0.3112 -0.4321 -0.7509
 9859TIP3    H250993   5.389   1.069   6.082  0.6948  0.2106  1.3304
 9860TIP3   OH250994   1.332   0.038  16.179 -0.9769  0.1649  0.2681
 9860TIP3    H150995   1.427   0.044  16.166 -0.4138  1.0947  3.7108
 9860TIP3    H250996   1.309  -0.049  16.148  1.0596 -0.2504 -0.2768
 9861TIP3   OH250997   1.364   4.482   4.457 -0.3586  0.2237  0.2535
 9861TIP3    H150998   1.391   4.461   4.547  1.7870  0.0006 -0.3720
 9861TIP3    H250999   1.410   4.564   4.438  2.8660 -1.8669 -2.0031
 9862TIP3   OH251000   5.194   4.701   5.152  0.4978  0.4630  0.3839
 9862TIP3    H151001   5.237   4.622   5.118 -0.2877 -0.0447  0.5336
 9862TIP3    H251002   5.148   4.737   5.077  0.2521  0.3592  0.4825
 9863TIP3   OH251003   5.827   0.454  16.365 -0.2666 -0.4743  0.9270
 9863TIP3    H151004   5.759   0.501  16.315  0.0387 -0.2600  0.7072
 9863TIP3    H251005   5.835   0.370  16.320  1.2370  0.3611 -0.5013
 9864TIP3   OH251006   4.445   3.967  14.030  0.1868  0.0967 -0.3283
 9864TIP3    H151007   4.539   3.987  14.034  0.6925 -2.0954  0.8183
 9864TIP3    H251008   4.442   3.875  14.001 -1.4383 -0.5732  1.7086
 9865TIP3   OH251009   6.278   5.490   3.559  0.6456 -0.3783 -0.0058
 9865TIP3    H151010   6.308   5.567   3.609 -0.9487  0.3728 -0.1344
 9865TIP3    H251011   6.189   5.514   3.531  0.4326 -1.9625 -0.7407
 9866TIP3   OH251012   4.026   4.851   3.403  0.4011 -0.2139 -0.5665
 9866TIP3    H151013   4.062   4.819   3.486  0.7211 -0.0621 -0.6433
 9866TIP3    H251014   3.990   4.937   3.424  2.2755  0.7385 -0.9789
 9867TIP3   OH251015   0.347   4.868  12.268  0.1748  0.1280  0.5708
 9867TIP3    H151016   0.282   4.936  12.285  0.5423  1.4734 -2.6258
 9867TIP3    H251017   0.423   4.915  12.233  0.8670 -1.8169 -0.7296
 9868TIP3   OH251018   2.975   3.001   3.758 -0.8448  0.2867  0.1820
 9868TIP3    H151019   2.961   3.004   3.852  0.4572  0.6988  0.3821
 9868TIP3    H251020   3.070   3.010   3.747 -1.0332  0.8829 -1.1949
 9869TIP3   OH251021   4.560   0.414   1.752  0.3175 -0.1050  0.0571
 9869TIP3    H151022   4.517   0.328   1.752  1.3086 -0.6260  0.5941
 9869TIP3    H251023   4.537   0.453   1.668  2.1692 -2.1240 -1.5000
 9870TIP3   OH251024   5.682   4.251  10.924 -0.8286 -0.2202  0.3341
 9870TIP3    H151025   5.764   4.201  10.917 -1.2411 -1.0400  1.1636
 9870TIP3    H251026   5.662   4.277  10.834  0.3168 -0.0377  0.1160
 9871TIP3   OH251027   6.423   4.671  12.094 -0.8023  0.1494 -0.2875
 9871TIP3    H151028   6.414   4.753  12.142 -0.3783  0.3338 -0.5194
 9871TIP3    H251029   6.502   4.630  12.129 -0.5334  0.2467 -0.7625
 9872TIP3   OH251030   6.228   1.942   4.210  0.5304  0.3042 -0.1242
 9872TIP3    H151031   6.311   1.915   4.250  0.8372  1.4611  0.0446
 9872TIP3    H251032   6.209   1.873   4.146  0.3751 -1.2404  1.4963
 9873TIP3   OH251033   3.081   3.032  15.128  0.1527 -0.2942  0.1512
 9873TIP3    H151034   3.109   3.085  15.202  1.1692 -0.6423  0.0413
 9873TIP3    H251035   3.144   2.960  15.125  0.2619 -0.1796 -1.1683
 9874TIP3   OH251036   5.082   4.826   1.534 -0.2026  0.0164 -0.2636
 9874TIP3    H151037   4.996   4.842   1.494  0.0322 -0.4590 -0.9670
 9874TIP3    H251038   5.081   4.733   1.556 -0.3030  0.2474  0.8082
 9875TIP3   OH251039   2.749   0.422   3.861  0.4247 -0.0543  0.2925
 9875TIP3    H151040   2.673   0.473   3.888  0.6343  0.7136 -0.5318
 9875TIP3    H251041   2.757   0.354   3.928 -0.6707  0.1674  0.6683
 9876TIP3   OH251042   2.955   0.146   5.434 -0.4262  0.4972 -0.2552
 9876TIP3    H151043   2.961   0.105   5.348  0.3229  0.8271 -0.3681
 9876TIP3    H251044   2.994   0.082   5.494 -0.8757  0.3004 -0.1736
 9877TIP3   OH251045   5.889   6.165  11.652  0.3887 -0.2157 -0.9139
 9877TIP3    H151046   5.924   6.212  11.728  0.5786  0.1670 -1.2374
 9877TIP3    H251047   5.897   6.227  11.580  0.1474 -0.5574 -1.2350
 9878TIP3   OH251048   2.042   0.703   0.334 -0.0806 -0.3526  0.1909
 9878TIP3    H151049   2.116   0.682   0.277 -0.6961 -0.4434 -0.5970
 9878TIP3    H251050   1.969   0.651   0.300 -0.6806  0.2307  0.5326
 9879TIP3   OH251051   2.092   5.759  11.556  0.5019  0.0886 -0.0654
 9879TIP3    H151052   2.072   5.667  11.539  1.4756 -0.1780  0.1725
 9879TIP3    H251053   2.188   5.762  11.557  0.4876  1.2227 -0.7232
 9880TIP3   OH251054   6.011   3.228   5.174  0.1176  0.5951  0.0817
 9880TIP3    H151055   5.952   3.293   5.136  0.4562  0.6567 -0.3348
 9880TIP3    H251056   6.053   3.274   5.247 -0.8775  0.3337  0.8466
 9881TIP3   OH251057   3.552   0.942  12.284  0.0064  0.2303 -0.2821
 9881TIP3    H151058   3.476   0.929  12.340  0.9305 -2.4773  0.4800
 9881TIP3    H251059   3.583   1.030  12.305 -1.1891  0.2537  1.5477
 9882TIP3   OH251060   0.752   3.912   5.061 -0.2225  0.4193  0.2476
 9882TIP3    H151061   0.818   3.971   5.098 -0.8009  1.2252  0.0065
 9882TIP3    H251062   0.669   3.954   5.081 -0.5854  0.4832 -1.3083
 9883TIP3   OH251063   6.227   3.566   1.496  0.1479  0.5849 -0.1694
 9883TIP3    H151064   6.145   3.521   1.515  0.7861 -0.2022  0.8338
 9883TIP3    H251065   6.235   3.631   1.566  0.1665  0.9585 -0.5177
 9884TIP3   OH251066   4.732   1.214   5.137  0.3124  0.2669 -0.0585
 9884TIP3    H151067   4.803   1.199   5.075  1.3017 -2.0362  1.4855
 9884TIP3    H251068   4.776   1.239   5.218 -0.5995 -1.0906  0.9061
 9885TIP3   OH251069   2.737   1.836   5.094  0.3335  0.1760 -0.6328
 9885TIP3    H151070   2.759   1.828   5.186 -0.5065  1.2265 -0.3248
 9885TIP3    H251071   2.641   1.836   5.092  0.2973  2.2816 -1.2748
 9886TIP3   OH251072   2.516   2.842   0.320  0.4202  0.2637  0.0436
 9886TIP3    H151073   2.525   2.938   0.323  1.5494  0.2016 -0.7395
 9886TIP3    H251074   2.422   2.827   0.315  0.2866  1.3973 -1.3180
 9887TIP3   OH251075   1.129   2.490  16.400 -0.5239 -0.0460 -0.1527
 9887TIP3    H151076   1.204   2.441  16.365 -1.1137  0.3994 -2.1627
 9887TIP3    H251077   1.087   2.429  16.460  1.4037 -0.3250  1.0192
 9888TIP3   OH251078   3.115   4.793  14.879  0.5638  0.1114  0.4883
 9888TIP3    H151079   3.045   4.742  14.918 -0.3130  0.0397 -1.0954
 9888TIP3    H251080   3.075   4.835  14.803  2.0436  0.6681 -0.0249
 9889TIP3   OH251081   3.482   4.750  13.935  0.3573  0.6391  0.2599
 9889TIP3    H151082   3.518   4.822  13.988 -0.2975  1.4331 -0.3565
 9889TIP3    H251083   3.551   4.730  13.872  1.1038 -0.2432  1.3130
 9890TIP3   OH251084   3.726   6.002   4.803  0.0555 -0.1089  0.1836
 9890TIP3    H151085   3.774   5.920   4.815 -1.2881 -0.7741  1.4194
 9890TIP3    H251086   3.701   6.028   4.892 -0.6260  0.9605 -0.3075
 9891TIP3   OH251087   5.159   0.648  12.074  0.5901 -0.1938  0.2941
 9891TIP3    H151088   5.122   0.654  11.986 -0.5933 -1.7346  0.6489
 9891TIP3    H251089   5.189   0.737  12.094  0.0779  0.3646 -1.3037
 9892TIP3   OH251090   5.912   1.609   6.442  0.4686  0.5833 -0.3863
 9892TIP3    H151091   6.004   1.584   6.436  0.3024 -0.3759  0.6440
 9892TIP3    H251092   5.904   1.647   6.529 -0.7091 -2.1949  0.8252
 9893TIP3   OH251093   5.846   1.003  16.055 -0.3601 -0.1649 -0.2343
 9893TIP3    H151094   5.777   0.939  16.072 -0.5383  0.0342 -0.2110
 9893TIP3    H251095   5.817   1.083  16.098  0.8263 -0.6146  1.5311
 9894TIP3   OH251096   5.093   1.982   3.915  0.3078  0.1805 -0.6502
 9894TIP3    H151097   5.165   1.958   3.974  1.5420  2.5518 -1.0588
 9894TIP3    H251098   5.037   1.904   3.912  0.7143 -0.4048  2.8223
 9895TIP3   OH251099   5.529   6.002   6.233 -0.0007 -0.0803  0.3350
 9895TIP3    H151100   5.467   6.057   6.281  0.6119 -0.5858  1.7708
 9895TIP3    H251101   5.608   6.003   6.286  0.8237 -0.4327 -0.8417
 9896TIP3   OH251102   4.143   5.142   1.665 -0.1050  0.1900 -0.0341
 9896TIP3    H151103   4.153   5.140   1.570 -1.3035 -1.1513 -0.1618
 9896TIP3    H251104   4.201   5.212   1.693  0.4688  0.4476 -1.7264
 9897TIP3   OH251105   5.226   3.776   4.157  0.5362  0.7884  0.4902
 9897TIP3    H151106   5.181   3.768   4.073  2.0080 -0.1303 -0.2471
 9897TIP3    H251107   5.234   3.871   4.171 -1.3374  0.9644  0.5203
 9898TIP3   OH251108   5.316   2.203   3.959  0.4521  0.3440  0.2371
 9898TIP3    H151109   5.399   2.156   3.972 -0.8362 -1.8271  1.2497
 9898TIP3    H251110   5.290   2.181   3.870 -0.6155 -1.8480  1.0071
 9899TIP3   OH251111   1.178   0.225  15.444  0.4055  0.1943  0.4060
 9899TIP3    H151112   1.188   0.190  15.356 -1.3703  3.9835 -1.5665
 9899TIP3    H251113   1.098   0.185  15.478 -0.2044  0.4212 -0.7192
 9900TIP3   OH251114   2.717   0.399   1.178  0.4256  1.1741 -0.5580
 9900TIP3    H151115   2.743   0.470   1.120 -0.9868  0.9010 -1.5950
 9900TIP3    H251116   2.627   0.378   1.151 -0.0135  0.5366  1.2496
 9901TIP3   OH251117   3.574   4.257   5.510 -0.0605 -0.3215 -0.0966
 9901TIP3    H151118   3.573   4.168   5.546  1.7620  0.0843  1.1215
 9901TIP3    H251119   3.576   4.244   5.415 -0.7560 -1.5488  0.0332
 9902TIP3   OH251120   2.211   5.864  13.542  0.3915  0.2391 -1.0626
 9902TIP3    H151121   2.196   5.927  13.612 -0.5415 -1.0149 -0.0937
 9902TIP3    H251122   2.260   5.793  13.583  1.8999  0.5381 -2.2631
 9903TIP3   OH251123   0.368   5.834  16.732  0.0501  0.2483 -0.2288
 9903TIP3    H151124   0.343   5.868  16.647 -0.3133  0.3383 -0.0887
 9903TIP3    H251125   0.394   5.744  16.715  1.5291  0.7383 -0.6869
 9904TIP3   OH251126   2.853   3.864   3.595 -0.2222 -0.2567  0.0231
 9904TIP3    H151127   2.878   3.931   3.531  1.1168  0.2505  1.0218
 9904TIP3    H251128   2.804   3.800   3.544  1.0656 -0.0367 -1.6142
 9905TIP3   OH251129   0.589   1.737   0.866 -0.1827 -0.4950 -0.1491
 9905TIP3    H151130   0.584   1.780   0.951 -0.1539 -1.2334  0.2305
 9905TIP3    H251131   0.520   1.779   0.814 -0.8501 -0.7107  0.5402
 9906TIP3   OH251132   3.386   0.412   5.077  0.4674  0.6280 -0.6894
 9906TIP3    H151133   3.351   0.495   5.110  1.1232  0.8590 -0.5532
 9906TIP3    H251134   3.410   0.363   5.155 -2.2327 -0.7837 -0.6285
 9907TIP3   OH251135   5.138   1.485   5.310  0.4234 -0.6038 -0.4865
 9907TIP3    H151136   5.212   1.491   5.371  0.5678  2.2315 -0.7930
 9907TIP3    H251137   5.068   1.533   5.354 -0.4515 -1.1612 -1.2567
 9908TIP3   OH251138   5.861   5.197   2.645  0.2063 -0.4013  0.1815
 9908TIP3    H151139   5.911   5.138   2.703  0.1546 -1.9208 -1.2377
 9908TIP3    H251140   5.917   5.208   2.568 -0.9482 -0.8322 -0.7537
 9909TIP3   OH251141   3.448   2.271   2.093 -0.2083 -0.4903 -0.3942
 9909TIP3    H151142   3.511   2.297   2.027 -1.4424 -1.4394 -2.0331
 9909TIP3    H251143   3.473   2.182   2.117 -0.7621 -0.7795 -0.8698
 9910TIP3   OH251144   1.405   6.551   3.894 -0.0584  0.0355 -0.1769
 9910TIP3    H151145   1.385   6.540   3.987  0.8203 -0.5507 -0.0503
 9910TIP3    H251146   1.460   6.476   3.871  0.2129  0.4743 -1.0256
 9911TIP3   OH251147   6.053   3.994   5.683 -0.1216 -0.1774 -0.3456
 9911TIP3    H151148   6.071   4.051   5.757 -0.8153  0.4968 -0.6786
 9911TIP3    H251149   6.128   3.935   5.678  1.1920  1.4603 -0.6867
 9912TIP3   OH251150   5.445   3.059   1.502  0.5216  0.1609  0.0306
 9912TIP3    H151151   5.410   2.989   1.557 -1.1514 -0.6030 -1.9016
 9912TIP3    H251152   5.377   3.127   1.503  0.6873  0.3450 -0.6952
 9913TIP3   OH251153   4.198   6.328   6.133 -0.3316 -0.3792  0.0587
 9913TIP3    H151154   4.119   6.323   6.188  0.6649  0.0666  1.5682
 9913TIP3    H251155   4.263   6.370   6.187  1.1035 -1.1062 -1.0266
 9914TIP3   OH251156   6.208   5.479  14.005 -0.4832 -0.3021  0.1750
 9914TIP3    H151157   6.280   5.431  14.045 -1.3079 -1.0617  0.7921
 9914TIP3    H251158   6.135   5.417  14.003 -1.1473  0.4604 -0.3794
 9915TIP3   OH251159   1.658   2.716  16.455  0.3503  0.2173  0.3772
 9915TIP3    H151160   1.582   2.679  16.410 -0.6392  1.4917  0.9345
 9915TIP3    H251161   1.680   2.793  16.404  1.2902 -0.1598  0.2120
 9916TIP3   OH251162   1.860   0.029   4.304 -0.2557 -0.1628  0.3987
 9916TIP3    H151163   1.916  -0.005   4.373  2.0000 -0.2940 -1.3996
 9916TIP3    H251164   1.885   0.121   4.295  0.7119 -0.5504 -1.3255
 9917TIP3   OH251165   4.355   4.467  12.210  0.5152  0.2455 -0.3039
 9917TIP3    H151166   4.343   4.562  12.215 -0.0616  0.1969 -0.6278
 9917TIP3    H251167   4.355   4.438  12.301 -0.3188  0.4443 -0.2298
 9918TIP3   OH251168   6.479   5.464  16.724 -0.5433 -0.4209 -0.5435
 9918TIP3    H151169   6.386   5.443  16.733 -1.0305  1.7178  0.0575
 9918TIP3    H251170   6.480   5.544  16.673  0.7510  1.0398  1.6002
 9919TIP3   OH251171   1.149   0.970  17.309  0.4239 -0.5982  0.0435
 9919TIP3    H151172   1.099   0.896  17.345 -1.7799  0.2544 -1.0896
 9919TIP3    H251173   1.090   1.010  17.245  2.3299  0.9383 -0.8521
 9920TIP3   OH251174   2.734   1.678  17.027 -0.5744 -0.6177 -1.2246
 9920TIP3    H151175   2.760   1.679  16.935 -1.2429 -0.9481 -1.4291
 9920TIP3    H251176   2.812   1.705  17.075 -0.1570 -0.6504 -1.8737
 9921TIP3   OH251177   3.461   3.122  12.885 -0.2873 -0.0710  0.1022
 9921TIP3    H151178   3.515   3.190  12.927 -2.3295  0.7903  1.5102
 9921TIP3    H251179   3.405   3.170  12.824 -0.4355 -0.7551 -0.3053
 9922TIP3   OH251180   4.798   3.784  14.966 -0.6332  0.3313  0.6672
 9922TIP3    H151181   4.724   3.836  14.937 -0.3776  0.7595  0.7730
 9922TIP3    H251182   4.840   3.755  14.885 -0.3281  0.9401  0.6032
 9923TIP3   OH251183   3.902   2.725   2.823 -0.3191 -0.2029 -0.1313
 9923TIP3    H151184   3.925   2.716   2.916 -0.3259 -1.5331 -0.2406
 9923TIP3    H251185   3.825   2.669   2.812  0.5620 -1.2649 -1.2445
 9924TIP3   OH251186   2.572   6.673  11.739 -0.1639 -0.6462  0.4259
 9924TIP3    H151187   2.610   6.677  11.651 -1.2760 -0.1756 -0.0462
 9924TIP3    H251188   2.547   6.581  11.750  0.7347 -0.8808  0.5923
 9925TIP3   OH251189   1.521   5.311   2.462  0.5243  0.8252  0.0799
 9925TIP3    H151190   1.565   5.330   2.544  2.3381 -1.7588 -0.1554
 9925TIP3    H251191   1.504   5.216   2.465  1.7734  0.3747 -2.9598
 9926TIP3   OH251192   4.620   6.625   0.758 -0.1904  0.2319 -0.4817
 9926TIP3    H151193   4.591   6.571   0.831  1.2984  0.7247  0.5170
 9926TIP3    H251194   4.554   6.693   0.750 -0.7235 -0.2323 -0.0487
 9927TIP3   OH251195   5.884   4.673  15.255 -0.5335 -0.3957 -0.1950
 9927TIP3    H151196   5.838   4.688  15.338  1.6230 -0.6285  1.1304
 9927TIP3    H251197   5.917   4.760  15.231 -1.6504 -0.2194 -1.1654
 9928TIP3   OH251198   6.035   2.535  17.279 -0.2220  0.0885 -0.1507
 9928TIP3    H151199   5.984   2.479  17.338  0.4452 -0.3408  0.0379
 9928TIP3    H251200   5.971   2.592  17.238 -1.0203 -1.3190 -0.9129
 9929TIP3   OH251201   5.522   1.095  16.318  0.1941  0.2415  0.2016
 9929TIP3    H151202   5.461   1.047  16.374 -1.2342  2.1232  0.3834
 9929TIP3    H251203   5.584   1.135  16.379  0.2834  0.1018  0.2027
 9930TIP3   OH251204   6.190   4.183  15.233  0.1142  0.3319  0.0647
 9930TIP3    H151205   6.172   4.271  15.266  1.0001 -0.3001  2.4379
 9930TIP3    H251206   6.278   4.188  15.196  0.1842  0.4303  0.2440
 9931TIP3   OH251207   4.696   2.075  14.681  0.0468 -0.5840  0.2538
 9931TIP3    H151208   4.778   2.086  14.632 -0.5334  0.2755 -0.5486
 9931TIP3    H251209   4.635   2.036  14.619 -0.1899 -1.1400  0.8226
 9932TIP3   OH251210   2.248   5.337   0.950  0.0682  0.2254 -0.1556
 9932TIP3    H151211   2.212   5.249   0.937 -1.4688  1.0265 -1.8404
 9932TIP3    H251212   2.176   5.387   0.990  0.7654  0.8362  0.3548
 9933TIP3   OH251213   3.722   4.046  14.423  0.5257  0.2919  0.1538
 9933TIP3    H151214   3.725   3.994  14.503  1.8000  1.4617  0.9120
 9933TIP3    H251215   3.752   3.987  14.354 -0.4332 -0.6799  0.5561
 9934TIP3   OH251216   3.853   1.370   2.629 -0.3417 -0.4756 -0.1200
 9934TIP3    H151217   3.781   1.400   2.684 -0.8199 -1.1920 -0.3335
 9934TIP3    H251218   3.901   1.308   2.684  0.8541  0.9103  0.4463
 9935TIP3   OH251219   3.614   2.015   5.850  0.3617  0.1033 -0.0488
 9935TIP3    H151220   3.563   1.955   5.795  0.6956  0.8389 -1.2044
 9935TIP3    H251221   3.598   2.101   5.811  2.9760  0.3024 -0.8832
 9936TIP3   OH251222   6.372   5.018   3.844  0.6550  0.3372  0.1960
 9936TIP3    H151223   6.297   4.962   3.824 -0.0999  1.7725 -1.2436
 9936TIP3    H251224   6.341   5.107   3.826  2.4276  1.0546  0.4473
 9937TIP3   OH251225   5.577   5.013  14.768 -0.8503 -0.0305 -0.2380
 9937TIP3    H151226   5.572   5.094  14.718 -0.1576  0.2147  0.0676
 9937TIP3    H251227   5.511   5.022  14.836 -0.2985  0.6003  0.2331
 9938TIP3   OH251228   2.536   0.115   3.044 -0.4470  0.0389  0.1577
 9938TIP3    H151229   2.468   0.068   2.995  0.9963 -0.5549 -1.4316
 9938TIP3    H251230   2.544   0.199   2.999  0.6094 -0.3516 -0.4529
 9939TIP3   OH251231   3.320   1.142   5.053  0.6927  0.4628 -0.4189
 9939TIP3    H151232   3.321   1.071   4.989 -3.8463 -0.3152 -0.0211
 9939TIP3    H251233   3.260   1.112   5.122  2.6038  2.6760  2.4614
 9940TIP3   OH251234   2.154   2.056  12.765  0.0389  0.2694 -0.1042
 9940TIP3    H151235   2.162   2.009  12.848 -0.1442  0.0198 -0.2272
 9940TIP3    H251236   2.101   1.999  12.710  2.7094 -1.1137 -1.4753
 9941TIP3   OH251237   5.116   5.115  16.248 -0.8261  0.8365 -0.0365
 9941TIP3    H151238   5.055   5.067  16.304 -0.1994 -1.0819 -0.9275
 9941TIP3    H251239   5.148   5.050  16.186  0.3532  2.3454 -1.0801
 9942TIP3   OH251240   5.904   1.300   0.506  0.8625 -0.4184 -0.2253
 9942TIP3    H151241   5.948   1.275   0.587 -0.8234  1.3540  1.3331
 9942TIP3    H251242   5.844   1.228   0.487  0.5841 -0.4308  0.6632
 9943TIP3   OH251243   2.519   3.370   1.146  0.3120  0.0115 -0.0092
 9943TIP3    H151244   2.494   3.328   1.228 -0.0655 -0.1588 -0.2037
 9943TIP3    H251245   2.477   3.456   1.149 -1.6006 -0.8023 -0.9593
 9944TIP3   OH251246   2.125   1.943   2.003  0.6549  0.5980  0.6413
 9944TIP3    H151247   2.047   1.893   2.029  0.8457 -0.7520 -1.1255
 9944TIP3    H251248   2.109   1.965   1.911  2.2144  0.5491  0.3332
 9945TIP3   OH251249   3.094   1.978  11.967 -0.4084  0.3911 -0.2240
 9945TIP3    H151250   3.170   1.990  11.910 -0.5223  1.1110 -0.2412
 9945TIP3    H251251   3.033   2.048  11.941 -1.0446 -0.1261 -0.1614
 9946TIP3   OH251252   1.648   3.695  15.325 -0.3247 -0.0566  0.5089
 9946TIP3    H151253   1.695   3.739  15.255  0.4028  0.4299  1.2792
 9946TIP3    H251254   1.567   3.746  15.335  0.6223  1.3386  1.5636
 9947TIP3   OH251255   3.740   3.459   4.299  0.2826 -0.2034 -0.2722
 9947TIP3    H151256   3.695   3.519   4.358  0.6875 -0.2513  0.0878
 9947TIP3    H251257   3.669   3.410   4.256 -0.2536  2.5490 -2.8509
 9948TIP3   OH251258   0.415   4.514   2.192  0.5256 -0.3053 -0.0727
 9948TIP3    H151259   0.340   4.474   2.235  0.1277 -1.8304 -2.0439
 9948TIP3    H251260   0.466   4.553   2.263 -2.2802  1.1333  1.3090
 9949TIP3   OH251261   3.043   5.445  16.470  0.1323 -0.3081  0.5041
 9949TIP3    H151262   3.043   5.391  16.391  2.5735 -1.3095  1.0967
 9949TIP3    H251263   3.024   5.384  16.541  0.5135  0.0669  0.9399
 9950TIP3   OH251264   1.900   3.619  13.163  0.3262  0.4051  0.0114
 9950TIP3    H151265   1.877   3.694  13.217 -1.3557  0.1694 -0.3243
 9950TIP3    H251266   1.878   3.543  13.217 -1.2830  0.1691 -0.9163
 9951TIP3   OH251267   3.524   1.700   0.064  0.2053  0.0681  0.4126
 9951TIP3    H151268   3.541   1.636  -0.005 -1.1521 -0.2968  0.3846
 9951TIP3    H251269   3.552   1.783   0.027 -2.7375  0.3035 -1.6352
 9952TIP3   OH251270   1.244   2.825  13.553 -0.2319 -0.1219  0.7908
 9952TIP3    H151271   1.169   2.767  13.566  1.1424 -1.7997  1.8180
 9952TIP3    H251272   1.287   2.827  13.639  1.6592 -0.3646 -0.1005
 9953TIP3   OH251273   0.412   3.455   4.906  0.1210  0.1990 -0.5406
 9953TIP3    H151274   0.428   3.413   4.990  1.2772  0.4132 -0.6337
 9953TIP3    H251275   0.349   3.398   4.862  2.2221 -1.9029 -1.0042
 9954TIP3   OH251276   5.418   2.946  12.785  0.1218 -0.0016 -0.2467
 9954TIP3    H151277   5.326   2.964  12.802  0.4321  1.3280  0.1782
 9954TIP3    H251278   5.429   2.853  12.804 -0.8560  0.1086  0.9672
 9955TIP3   OH251279   2.937   6.756   2.989 -0.5850 -0.4009  0.2852
 9955TIP3    H151280   2.985   6.838   2.983 -1.8846  0.5025  1.6517
 9955TIP3    H251281   2.997   6.696   3.034 -0.0098  0.0975  0.1885
 9956TIP3   OH251282   1.120   1.086   4.579 -0.0447  0.4917  0.3873
 9956TIP3    H151283   1.135   1.164   4.525 -3.3963  0.2753 -1.1212
 9956TIP3    H251284   1.180   1.096   4.653  1.4310  3.1918 -1.0244
 9957TIP3   OH251285   4.112   5.209  15.891  0.1333  0.2847  0.1753
 9957TIP3    H151286   4.059   5.214  15.971 -0.6125  0.8929 -0.3454
 9957TIP3    H251287   4.138   5.300  15.874 -1.7380  0.5472 -1.5974
 9958TIP3   OH251288   3.976   1.111  16.013  1.0826  0.6287  0.2334
 9958TIP3    H151289   3.957   1.026  15.974  0.9132  0.5264  0.5337
 9958TIP3    H251290   4.070   1.109  16.032  0.6327 -0.5658  2.7568
 9959TIP3   OH251291   2.666   4.733   2.190 -0.1943 -0.0065 -0.3966
 9959TIP3    H151292   2.577   4.765   2.199 -0.5962 -1.0444 -0.4564
 9959TIP3    H251293   2.656   4.638   2.181  0.9456 -0.1850  0.0592
 9960TIP3   OH251294   2.361   3.857   2.199  0.0879 -0.4736 -0.0206
 9960TIP3    H151295   2.431   3.897   2.250  0.1968 -0.8489  0.1243
 9960TIP3    H251296   2.402   3.838   2.114  0.2008 -0.8332  0.1166
 9961TIP3   OH251297   2.198   0.170  10.789 -0.4373  0.3024  0.4087
 9961TIP3    H151298   2.179   0.183  10.696  0.7865  1.3826  0.2821
 9961TIP3    H251299   2.293   0.177  10.795 -0.3646 -1.1607  1.5515
 9962TIP3   OH251300   4.651   6.412   3.395  0.6153  0.1998 -0.6349
 9962TIP3    H151301   4.646   6.338   3.334  1.2520 -0.4497  0.0847
 9962TIP3    H251302   4.574   6.465   3.375  0.4591 -0.3449 -1.5535
 9963TIP3   OH251303   0.281   6.054   1.420 -0.2892  0.2726  0.4475
 9963TIP3    H151304   0.279   6.022   1.330 -1.3605  1.7680 -0.1045
 9963TIP3    H251305   0.357   6.010   1.459  0.2169 -0.3917 -1.1779
 9964TIP3   OH251306   4.315   0.514   2.116 -0.0693  0.1914  0.3755
 9964TIP3    H151307   4.382   0.470   2.169 -0.0166  0.1727  0.2933
 9964TIP3    H251308   4.294   0.450   2.048  0.3134  0.4572 -0.0002
 9965TIP3   OH251309   4.937   6.283  17.047 -0.1758  0.7837 -0.0863
 9965TIP3    H151310   4.908   6.277  17.138 -0.8770 -1.4188 -0.3864
 9965TIP3    H251311   4.875   6.229  16.999  0.4217  1.5793 -1.8332
 9966TIP3   OH251312   6.291   0.217   3.297  0.0292 -0.3883 -0.0300
 9966TIP3    H151313   6.314   0.180   3.382  1.0602  1.1953  0.4156
 9966TIP3    H251314   6.221   0.279   3.316 -1.9605 -2.2240 -0.8256
 9967TIP3   OH251315   4.547   6.724  14.707  0.7057  0.1381 -0.2078
 9967TIP3    H151316   4.497   6.695  14.631  2.5361 -1.1917 -0.9837
 9967TIP3    H251317   4.533   6.656  14.773 -0.7089  1.1825  0.6211
 9968TIP3   OH251318   3.244   5.430  12.074  0.0732 -0.0115  0.3805
 9968TIP3    H151319   3.170   5.371  12.089 -1.3667  1.6459  0.1601
 9968TIP3    H251320   3.272   5.457  12.161 -0.4624  0.3726  0.4390
 9969TIP3   OH251321   0.718   2.355  11.509  0.3392 -0.6650  0.4463
 9969TIP3    H151322   0.715   2.450  11.493  0.1553 -0.8668 -0.8005
 9969TIP3    H251323   0.634   2.335  11.550  0.4910 -0.2484  0.9701
 9970TIP3   OH251324   3.113   1.926   0.444  0.1476 -0.3919  0.8820
 9970TIP3    H151325   3.093   2.008   0.489  1.2440  0.0172  0.6518
 9970TIP3    H251326   3.040   1.868   0.466 -0.2444  0.3899  1.6861
 9971TIP3   OH251327   0.480   3.965   0.642 -0.4326 -0.7134  0.2932
 9971TIP3    H151328   0.425   4.032   0.684 -0.0775  1.1212 -1.9210
 9971TIP3    H251329   0.528   3.924   0.713 -2.6121 -0.4636  2.0203
 9972TIP3   OH251330   5.545   2.923   0.617 -0.4148  0.6085 -0.1453
 9972TIP3    H151331   5.523   2.836   0.584  0.9337  0.5411 -0.8922
 9972TIP3    H251332   5.544   2.980   0.540  1.0433  0.7779 -0.0693
 9973TIP3   OH251333   3.867   4.032   2.952 -0.6290  0.5580  0.1929
 9973TIP3    H151334   3.949   3.983   2.956 -2.1756 -2.1655  1.2634
 9973TIP3    H251335   3.884   4.103   2.891  2.7754  0.6538  1.0722
 9974TIP3   OH251336   1.105   0.890  14.913 -0.1221  0.2335  0.4388
 9974TIP3    H151337   1.094   0.983  14.894  0.6781  0.3772  0.6435
 9974TIP3    H251338   1.193   0.883  14.950 -0.7022 -0.4087  1.7422
 9975TIP3   OH251339   2.923   0.589  15.517 -0.4404 -0.2276  0.2432
 9975TIP3    H151340   3.014   0.577  15.491 -0.6809 -1.0761 -0.2265
 9975TIP3    H251341   2.881   0.505  15.499 -0.8267 -0.5893  2.5812
 9976TIP3   OH251342   0.392   1.207   2.295  0.5166  0.2803 -0.0978
 9976TIP3    H151343   0.388   1.293   2.253  1.5656  0.3163 -0.1632
 9976TIP3    H251344   0.301   1.180   2.304  0.0468  2.1509  1.4401
 9977TIP3   OH251345   5.380   3.626  15.550 -0.0035 -0.0424  0.0891
 9977TIP3    H151346   5.434   3.547  15.547 -0.0937 -0.1484  1.1088
 9977TIP3    H251347   5.293   3.596  15.521  0.6217  0.3070 -2.4282
 9978TIP3   OH251348   6.520   5.745   3.325  0.1519 -0.7098 -0.2328
 9978TIP3    H151349   6.453   5.716   3.262  1.6092 -2.8709 -0.9173
 9978TIP3    H251350   6.603   5.736   3.277  1.1384 -0.3678  1.3389
 9979TIP3   OH251351   1.814   6.170  13.179  0.8205 -0.4299  0.1042
 9979TIP3    H151352   1.819   6.080  13.212  0.7409 -0.0846  1.0626
 9979TIP3    H251353   1.785   6.222  13.253  1.3581  0.4781 -0.3027
 9980TIP3   OH251354   6.758   6.197   1.217  0.4178 -0.5293  0.0526
 9980TIP3    H151355   6.829   6.190   1.154  0.3985 -2.8444  0.2173
 9980TIP3    H251356   6.705   6.270   1.185  2.2405  0.5646 -0.6555
 9981TIP3   OH251357   4.810   5.979   4.875  0.4561  0.2041  0.4444
 9981TIP3    H151358   4.731   6.002   4.924 -0.2100  0.4489 -0.6836
 9981TIP3    H251359   4.836   5.894   4.909 -1.0864 -0.5169 -0.0642
 9982TIP3   OH251360   1.123   5.341  12.688 -0.0101  0.2761  0.1872
 9982TIP3    H151361   1.153   5.276  12.752  1.3299  0.0220 -0.6506
 9982TIP3    H251362   1.028   5.338  12.693  0.0395 -1.3527  0.5589
 9983TIP3   OH251363   5.459   0.849   5.617 -0.3075 -0.1292 -0.0130
 9983TIP3    H151364   5.500   0.830   5.702  0.6038 -0.2879 -0.4726
 9983TIP3    H251365   5.389   0.912   5.637 -2.5160 -2.8212  1.3746
 9984TIP3   OH251366   6.312   1.845   2.219  0.3156  0.1000  0.4663
 9984TIP3    H151367   6.338   1.927   2.178  0.0998 -0.4657 -0.8591
 9984TIP3    H251368   6.379   1.828   2.285  2.8318 -0.7882 -2.1431
 9985TIP3   OH251369   5.210   0.655   2.821 -0.1347  0.2879 -0.1057
 9985TIP3    H151370   5.283   0.660   2.760  0.1177 -0.8211  0.0822
 9985TIP3    H251371   5.243   0.694   2.902 -0.4106  1.5898 -0.5909
 9986TIP3   OH251372   5.831   6.039   2.457  0.0327 -0.2501  0.1898
 9986TIP3    H151373   5.884   6.038   2.537  1.5927  1.1798 -0.7862
 9986TIP3    H251374   5.816   6.131   2.439 -0.3641 -0.5597 -1.1402
 9987TIP3   OH251375   5.219   3.404  14.574  0.7819 -0.0093  0.4472
 9987TIP3    H151376   5.224   3.311  14.552 -0.0665 -0.5456  2.3619
 9987TIP3    H251377   5.194   3.446  14.492  1.5274 -1.3993 -0.5417
 9988TIP3   OH251378   4.606   5.442   5.956  0.0792 -0.3796  0.3460
 9988TIP3    H151379   4.617   5.427   5.862  0.6351 -0.2280  0.3834
 9988TIP3    H251380   4.577   5.358   5.991 -3.1190  0.2977 -0.4060
 9989TIP3   OH251381   0.139   0.807   1.469  0.0718  0.2662 -0.6054
 9989TIP3    H151382   0.147   0.800   1.374 -1.3643  0.7012 -0.7876
 9989TIP3    H251383   0.184   0.888   1.491  0.9169 -0.1281 -0.8195
 9990TIP3   OH251384   4.793   2.379   0.353 -0.0367 -0.4485  0.1621
 9990TIP3    H151385   4.697   2.370   0.351 -0.0398 -0.3884  0.0783
 9990TIP3    H251386   4.808   2.469   0.382 -0.0072 -0.2904 -0.3424
 9991TIP3   OH251387   2.775   5.195  12.620 -0.0575 -0.0632  0.2610
 9991TIP3    H151388   2.790   5.166  12.710 -0.9890 -2.8813 -0.3955
 9991TIP3    H251389   2.862   5.197  12.580  0.3489  1.1010  1.1281
 9992TIP3   OH251390   0.924   2.373  12.617 -0.0819  0.2279  0.3259
 9992TIP3    H151391   0.847   2.424  12.641 -0.8454 -1.5023  1.7652
 9992TIP3    H251392   0.895   2.282  12.619  1.8497 -0.4357  0.3793
 9993TIP3   OH251393   0.538   6.049   3.496  0.1201  0.1279 -0.2862
 9993TIP3    H151394   0.598   5.975   3.501 -0.3488 -0.2054  0.7575
 9993TIP3    H251395   0.456   6.016   3.533  0.9570  2.1583  4.0133
 9994TIP3   OH251396   3.327   4.084   2.945 -0.0128 -0.2784 -1.0158
 9994TIP3    H151397   3.368   4.146   2.885  0.5179 -1.0606 -1.4729
 9994TIP3    H251398   3.390   4.012   2.953 -1.1653 -1.3808 -1.5304
 9995TIP3   OH251399   5.046   3.914  11.425 -0.4757 -0.6075  0.3260
 9995TIP3    H151400   5.065   3.994  11.375  0.0619  0.5079  2.2335
 9995TIP3    H251401   4.984   3.942  11.492  1.2868 -1.2462  2.3437
 9996TIP3   OH251402   6.036   5.245   1.399  0.0266 -0.4853 -0.2870
 9996TIP3    H151403   6.092   5.322   1.409 -1.1143  0.3633 -0.1747
 9996TIP3    H251404   5.958   5.266   1.450 -0.2569 -1.7809 -0.1575
 9997TIP3   OH251405   1.859   2.487   4.770 -0.9838 -0.2853 -0.0520
 9997TIP3    H151406   1.927   2.533   4.721 -0.3331 -0.6371  0.5001
 9997TIP3    H251407   1.803   2.557   4.804  0.5020  0.2200  1.5424
 9998TIP3   OH251408   3.621   4.901  15.825  0.1006  0.3715 -0.3313
 9998TIP3    H151409   3.569   4.975  15.794 -0.4505  0.2692  0.3192
 9998TIP3    H251410   3.595   4.829  15.767  0.1759  0.5344 -0.5706
 9999TIP3   OH251411   1.828   2.604  13.977 -0.9228  0.9089  0.5011
 9999TIP3    H151412   1.862   2.587  14.065 -2.2528  1.2401  1.1182
 9999TIP3    H251413   1.760   2.670  13.991 -1.6073  0.4802 -0.6857
10000TIP3   OH251414   3.873   3.571   6.106 -0.4229  0.1839  0.0007
10000TIP3    H151415   3.785   3.604   6.123 -1.3072 -2.1563  0.2057
10000TIP3    H251416   3.881   3.574   6.011 -0.6649  0.5193 -0.0116
10001TIP3   OH251417   1.981   3.785  15.110 -0.4221 -0.1220  0.0474
10001TIP3    H151418   1.894   3.823  15.104 -1.3643 -1.3308  3.6708
10001TIP3    H251419   2.009   3.801  15.200  2.6744 -0.7066 -0.6841
10002TIP3   OH251420   0.801   5.058   2.453  0.5186 -0.0981 -0.0047
10002TIP3    H151421   0.816   4.966   2.478  1.3106  0.1410  0.4533
10002TIP3    H251422   0.854   5.070   2.374 -0.7682 -0.4326 -0.9385
10003TIP3   OH251423   2.190   2.923  13.210  0.5138  0.3167 -0.0539
10003TIP3    H151424   2.268   2.968  13.243  1.1262 -0.7136 -0.0197
10003TIP3    H251425   2.220   2.882  13.128  0.0673 -0.2279  0.0485
10004TIP3   OH251426   6.433   6.399   3.442 -0.2523  0.1128 -0.2781
10004TIP3    H151427   6.526   6.377   3.429 -0.3236 -1.3439  1.1780
10004TIP3    H251428   6.390   6.371   3.362  0.4408 -0.2143 -0.5458
10005TIP3   OH251429   4.108   2.452  12.479  0.5727  0.2198  0.3726
10005TIP3    H151430   4.188   2.400  12.490  0.9115  0.6217 -0.1465
10005TIP3    H251431   4.037   2.388  12.488  0.9688 -0.2567  0.1866
10006TIP3   OH251432   5.509   5.997  13.297 -0.1348 -0.2375  0.3514
10006TIP3    H151433   5.539   5.907  13.282 -0.0404  0.0052 -1.1270
10006TIP3    H251434   5.578   6.037  13.349 -0.6108 -1.2655  1.8281
10007TIP3   OH251435   4.657   0.176  15.522 -0.0476 -0.2974 -0.3008
10007TIP3    H151436   4.657   0.241  15.592 -0.1245  0.2267 -0.7859
10007TIP3    H251437   4.684   0.224  15.444 -1.0177 -0.6312 -0.8625
10008TIP3   OH251438   0.359   5.983  14.934  0.4070  0.3221  0.0878
10008TIP3    H151439   0.361   5.958  15.027  2.1877  0.7843  0.2110
10008TIP3    H251440   0.449   6.010  14.915 -0.3364  1.9497 -1.3159
10009TIP3   OH251441   0.150   4.863   3.488  0.0413 -0.0395 -0.1247
10009TIP3    H151442   0.194   4.785   3.521 -1.1477 -0.1305  1.3236
10009TIP3    H251443   0.095   4.893   3.560 -0.8644  1.1333 -1.2430
10010TIP3   OH251444   3.249   1.810  15.395 -0.6442  0.2425 -0.4296
10010TIP3    H151445   3.214   1.810  15.484  0.2888 -1.6585 -0.0167
10010TIP3    H251446   3.175   1.835  15.340 -0.7030  3.8957  0.9959
10011TIP3   OH251447   4.876   5.081   1.859  0.5459 -0.0086  0.3282
10011TIP3    H151448   4.961   5.076   1.815 -0.0767 -1.0008 -0.8289
10011TIP3    H251449   4.823   5.013   1.817 -0.6073  0.1180  1.5059
10012TIP3   OH251450   3.696   6.500   2.019 -0.3760 -0.1116 -0.1866
10012TIP3    H151451   3.642   6.427   2.049 -0.7825 -0.8168 -2.4899
10012TIP3    H251452   3.636   6.575   2.018 -1.1770 -0.7334 -2.0308
10013TIP3   OH251453   3.485   4.982  17.312  0.2181 -0.7096  0.9175
10013TIP3    H151454   3.463   4.925  17.239 -0.3548 -0.5763  0.9802
10013TIP3    H251455   3.520   4.922  17.378  0.0850 -0.9274  0.7944
10014TIP3   OH251456   5.098   6.747   4.740  0.0246  0.3409  0.2911
10014TIP3    H151457   5.130   6.658   4.759  1.3183  0.4876 -0.9932
10014TIP3    H251458   5.168   6.804   4.771 -0.2596  0.8363  0.0189
10015TIP3   OH251459   3.235   2.317  14.563  0.6979  0.7106 -0.0817
10015TIP3    H151460   3.308   2.280  14.514 -0.2211 -2.0312  0.4213
10015TIP3    H251461   3.271   2.332  14.651  1.0308  0.7935 -0.2301
10016TIP3   OH251462   5.347   4.835   0.772 -0.0503  0.4116  0.1168
10016TIP3    H151463   5.267   4.882   0.746 -0.1340  0.4192  0.3854
10016TIP3    H251464   5.322   4.743   0.768 -0.2593  0.4349  0.8010
10017TIP3   OH251465   5.840   2.340   2.213  0.3655  0.6157 -0.6522
10017TIP3    H151466   5.840   2.397   2.291  0.9908 -0.8244  0.4441
10017TIP3    H251467   5.899   2.384   2.152  1.5417  0.7366  0.5227
10018TIP3   OH251468   2.600   6.062   2.667  0.8049 -0.1806 -0.8730
10018TIP3    H151469   2.604   6.126   2.738 -2.0104  1.4757 -2.0323
10018TIP3    H251470   2.660   6.096   2.600  0.6883  0.2622 -0.7521
10019TIP3   OH251471   0.501   1.930   5.303  0.0936 -0.1219  0.2005
10019TIP3    H151472   0.410   1.952   5.282  0.2772 -1.5203 -2.4545
10019TIP3    H251473   0.553   1.991   5.251  0.5726 -2.6277 -2.5419
10020TIP3   OH251474   1.212   1.777   6.417 -0.3634  0.2618 -0.0588
10020TIP3    H151475   1.129   1.796   6.462 -1.2801  0.9598 -1.9452
10020TIP3    H251476   1.269   1.849   6.443 -1.0913  1.0132 -0.4744
10021TIP3   OH251477   5.548   2.280  16.660 -0.2872 -0.1926  0.4771
10021TIP3    H151478   5.516   2.195  16.687  2.2204 -0.7025  2.2090
10021TIP3    H251479   5.538   2.336  16.737 -0.3683  0.6206 -0.1050
10022TIP3   OH251480   3.733   3.669  10.876 -0.3195 -0.1107  0.0020
10022TIP3    H151481   3.666   3.720  10.831 -2.0029 -1.7636  0.5254
10022TIP3    H251482   3.740   3.709  10.962 -0.4558  0.2264 -0.1434
10023TIP3   OH251483   2.202   1.330   6.678  0.0815 -0.7727 -0.0867
10023TIP3    H151484   2.177   1.254   6.731 -0.5790  0.5283  1.5844
10023TIP3    H251485   2.119   1.375   6.661  0.4401 -0.5277 -1.2323
10024TIP3   OH251486   6.561   4.530   0.768  0.3871  0.1264 -0.5327
10024TIP3    H151487   6.618   4.455   0.783  0.7493  0.0934 -1.8973
10024TIP3    H251488   6.618   4.607   0.776  0.2448  0.1999 -0.1947
10025TIP3   OH251489   4.907   1.399  16.680  0.2294  0.2136 -0.2321
10025TIP3    H151490   4.958   1.479  16.688 -0.4564  0.6094  0.3551
10025TIP3    H251491   4.970   1.328  16.694  0.5299  0.6979  0.9499
10026TIP3   OH251492   3.034   5.651  14.229  0.0345 -0.2011  0.4368
10026TIP3    H151493   3.019   5.568  14.185 -0.9755 -0.7746  1.7916
10026TIP3    H251494   3.001   5.717  14.167  0.1396 -0.8598 -0.3322
10027TIP3   OH251495   0.450   0.766   1.464  0.2974 -0.1179  0.1975
10027TIP3    H151496   0.373   0.795   1.415  0.8541  0.4314 -0.3548
10027TIP3    H251497   0.439   0.806   1.551  0.6819  1.1674 -0.3271
10028TIP3   OH251498   5.653   1.251   4.998 -0.0938  0.0506  0.2523
10028TIP3    H151499   5.674   1.245   5.092  0.3160  1.1368  0.2400
10028TIP3    H251500   5.686   1.337   4.972  1.1651 -0.8346 -1.2345
10029TIP3   OH251501   4.035   4.174  10.782  0.1007 -0.4280  0.2440
10029TIP3    H151502   3.965   4.238  10.790 -0.8083 -1.2074 -1.0147
10029TIP3    H251503   4.114   4.226  10.769 -0.8556  0.5175 -2.5961
10030TIP3   OH251504   6.732   5.222   3.807  0.2825  0.0224 -0.1603
10030TIP3    H151505   6.696   5.309   3.786 -2.7114 -0.6532  1.5672
10030TIP3    H251506   6.777   5.195   3.727 -1.0663  2.0488 -1.7103
10031TIP3   OH251507   0.389   2.044  13.264  0.2452  0.7432  0.0147
10031TIP3    H151508   0.305   2.047  13.309 -0.2081 -0.1312 -0.7208
10031TIP3    H251509   0.413   2.136  13.249 -1.0978  1.0006 -0.6761
10032TIP3   OH251510   6.286   6.493  13.611  0.6188 -0.1453 -0.6675
10032TIP3    H151511   6.301   6.404  13.644  0.6185 -0.0125 -0.2954
10032TIP3    H251512   6.204   6.520  13.654  0.2602 -0.2122 -1.2981
10033TIP3   OH251513   0.420   0.752  11.602 -0.6432  0.2391 -0.1851
10033TIP3    H151514   0.400   0.716  11.515  1.1278  0.5689 -0.7651
10033TIP3    H251515   0.504   0.796  11.591  0.8213 -1.6875  2.2524
10034TIP3   OH251516   2.735   0.679  11.365 -0.0449 -0.6247 -0.0017
10034TIP3    H151517   2.716   0.681  11.271  0.1101 -0.5365 -0.0324
10034TIP3    H251518   2.686   0.604  11.398  0.6453 -1.2354 -0.3146
10035TIP3   OH251519   1.278   3.735   0.495 -0.1864 -0.2468  0.8543
10035TIP3    H151520   1.254   3.650   0.532 -1.3936 -0.3308 -0.0675
10035TIP3    H251521   1.328   3.714   0.416 -1.7562 -0.1559 -0.2038
10036TIP3   OH251522   2.956   4.819   1.109  0.6022  0.3049  0.0761
10036TIP3    H151523   2.915   4.899   1.144  0.9026  0.0833  0.9591
10036TIP3    H251524   3.050   4.834   1.119  0.7326  0.4855 -1.2229
10037TIP3   OH251525   1.928   5.855   4.209  0.1063  0.1626 -0.2349
10037TIP3    H151526   1.967   5.902   4.136 -0.2219  1.0724  0.1708
10037TIP3    H251527   1.994   5.790   4.234  0.4058  0.1518 -1.0284
10038TIP3   OH251528   6.677   0.457   1.047  0.2681 -0.5690 -0.2845
10038TIP3    H151529   6.596   0.464   1.097  0.8936  1.1863  0.5659
10038TIP3    H251530   6.746   0.469   1.112  1.2276 -1.8960 -1.0147
10039TIP3   OH251531   6.456   4.357  14.303 -0.0181  0.0420 -0.1469
10039TIP3    H151532   6.426   4.266  14.311  2.4016 -0.8734 -0.5332
10039TIP3    H251533   6.481   4.382  14.392 -2.6034  1.1579  0.3673
10040TIP3   OH251534   2.066   1.269   4.259 -0.3061 -0.2102 -0.1470
10040TIP3    H151535   2.104   1.259   4.346 -0.4702  0.8923  0.0744
10040TIP3    H251536   1.976   1.297   4.275 -1.0437 -2.1484 -0.6702
10041TIP3   OH251537   3.437   5.422   4.217 -0.2731  0.0466  0.0719
10041TIP3    H151538   3.365   5.404   4.278  1.1312 -1.9918  1.2500
10041TIP3    H251539   3.393   5.446   4.135 -2.2506  0.1760  1.0945
10042TIP3   OH251540   2.811   2.389  16.819 -0.8520 -0.4255  0.0822
10042TIP3    H151541   2.810   2.484  16.834 -0.3201 -0.6470  1.8714
10042TIP3    H251542   2.719   2.364  16.810 -1.2875 -0.1188  2.8401
10043TIP3   OH251543   1.920   6.583  16.911  0.0446 -0.5851  0.0141
10043TIP3    H151544   1.887   6.656  16.858 -0.8045  0.0054  1.2928
10043TIP3    H251545   1.920   6.508  16.852 -2.6515 -0.3728 -0.4105
10044TIP3   OH251546   0.568   2.943   2.829  0.3801 -0.4530  0.8894
10044TIP3    H151547   0.618   2.949   2.747 -0.5252 -1.3686  0.2470
10044TIP3    H251548   0.530   3.030   2.840  0.7668 -0.2297  0.5046
10045TIP3   OH251549   4.577   0.673  16.040 -0.1095 -0.9700 -0.3763
10045TIP3    H151550   4.533   0.589  16.052  0.2870 -1.0216  0.8078
10045TIP3    H251551   4.665   0.660  16.076 -0.6117  0.4349  1.5404
10046TIP3   OH251552   3.468   1.689   2.294 -0.0737 -0.5123  0.5581
10046TIP3    H151553   3.445   1.776   2.261  1.9953  0.7757  2.2758
10046TIP3    H251554   3.384   1.648   2.316 -1.1294  0.7302 -0.9609
10047TIP3   OH251555   2.770   6.032  11.215  0.5989  0.5101  0.3695
10047TIP3    H151556   2.686   6.030  11.170  0.5138 -2.8100  0.3756
10047TIP3    H251557   2.834   6.040  11.145  0.3390  0.4835  0.1275
10048TIP3   OH251558   4.217   1.550  12.655  0.4795 -0.3229  0.4027
10048TIP3    H151559   4.261   1.591  12.580  0.8994 -1.6967 -0.1393
10048TIP3    H251560   4.127   1.534  12.624  1.2176 -2.8975 -0.6896
10049TIP3   OH251561   3.782   2.082  10.581 -0.8165 -0.3209  0.4265
10049TIP3    H151562   3.744   2.054  10.664 -0.5600 -0.3765  0.5225
10049TIP3    H251563   3.706   2.112  10.530 -0.8240  1.1922  1.2546
10050TIP3   OH251564   5.519   6.092   1.452  0.5004 -0.4967  0.3533
10050TIP3    H151565   5.561   6.018   1.407  1.1798  0.6532 -0.9646
10050TIP3    H251566   5.516   6.065   1.544 -2.0119 -3.4580 -0.4152
10051TIP3   OH251567   3.467   3.081   5.860  0.1920 -0.1377 -0.1745
10051TIP3    H151568   3.538   3.141   5.882 -1.4469  0.8077  3.0021
10051TIP3    H251569   3.509   2.994   5.863  1.8341  0.5427 -1.4986
10052TIP3   OH251570   1.268   2.606   1.636  0.3234 -0.5029 -0.2029
10052TIP3    H151571   1.319   2.557   1.572 -0.8066  0.1561 -1.6562
10052TIP3    H251572   1.228   2.677   1.586  1.2856  1.4912  1.6763
10053TIP3   OH251573   5.362   5.301   5.996  0.7747 -0.5051  0.7390
10053TIP3    H151574   5.395   5.358   6.066 -1.7169 -0.0114  1.6181
10053TIP3    H251575   5.336   5.221   6.042  2.1009 -1.4857 -0.1564
10054TIP3   OH251576   4.778   5.145  11.466  0.0592  0.5025 -0.1047
10054TIP3    H151577   4.771   5.159  11.371  1.0844  0.2893 -0.2162
10054TIP3    H251578   4.869   5.163  11.487 -0.6741  3.1529  1.2947
10055TIP3   OH251579   5.670   0.654   0.404 -0.4982  0.2273  0.4974
10055TIP3    H151580   5.618   0.721   0.360  0.5000  1.9621  1.8537
10055TIP3    H251581   5.605   0.594   0.441 -1.4301  0.7125 -0.3118
10056TIP3   OH251582   1.364   0.547  13.173 -0.0914 -1.2035  0.0196
10056TIP3    H151583   1.271   0.551  13.152 -0.3123  0.6176  1.1368
10056TIP3    H251584   1.369   0.482  13.244 -1.2092  1.4962  2.8037
10057TIP3   OH251585   1.017   4.008  14.083 -0.2936  0.0824 -0.4255
10057TIP3    H151586   1.046   3.961  14.161  0.2150  0.5164 -0.3468
10057TIP3    H251587   1.097   4.039  14.042 -0.5860  0.2807 -0.8584
10058TIP3   OH251588   2.243   3.155   3.485 -0.3091  0.3426 -0.4284
10058TIP3    H151589   2.316   3.148   3.424 -0.9839  0.6168 -1.3015
10058TIP3    H251590   2.211   3.066   3.494 -0.3683  0.3357 -0.6907
10059TIP3   OH251591   5.412   1.150  14.816  0.1879  0.2338 -0.2824
10059TIP3    H151592   5.397   1.057  14.834  0.6177  0.6113  2.3189
10059TIP3    H251593   5.348   1.196  14.870 -0.4385  1.4972 -1.9982
10060TIP3   OH251594   3.809   3.243   3.650 -0.0283 -0.5503  0.8233
10060TIP3    H151595   3.782   3.304   3.717  0.6545  1.0489 -0.3032
10060TIP3    H251596   3.870   3.292   3.595  0.2451 -2.1164 -0.3604
10061TIP3   OH251597   1.479   3.204   1.541  0.2201 -0.1710 -0.2161
10061TIP3    H151598   1.410   3.206   1.475  1.7023  1.4708 -1.8684
10061TIP3    H251599   1.433   3.195   1.624 -2.0113  1.1941 -1.2025
10062TIP3   OH251600   1.630   6.748   4.758  0.2225  0.7517 -0.0523
10062TIP3    H151601   1.546   6.706   4.738 -0.1113  1.8588 -1.1018
10062TIP3    H251602   1.654   6.793   4.677  1.0914  1.6793  0.6959
10063TIP3   OH251603   3.215   1.202  12.603 -0.5679  0.2742  0.5301
10063TIP3    H151604   3.161   1.238  12.532 -0.1392 -4.3348 -2.5518
10063TIP3    H251605   3.153   1.156  12.659 -0.5473  1.1507  1.2894
10064TIP3   OH251606   6.124   0.463   4.680 -0.1265  0.1420  0.2589
10064TIP3    H151607   6.170   0.547   4.685  0.5769 -0.0533 -1.9476
10064TIP3    H251608   6.041   0.483   4.637 -0.4831 -0.1106  0.8223
10065TIP3   OH251609   2.180   1.263   0.698  0.0739 -0.6581 -0.6092
10065TIP3    H151610   2.147   1.202   0.764 -1.5679  2.0378  1.2736
10065TIP3    H251611   2.254   1.307   0.741 -0.8406  0.9336 -0.5667
10066TIP3   OH251612   4.861   5.759   5.968  0.2980 -0.3509  0.5766
10066TIP3    H151613   4.821   5.714   5.894  1.5016  1.5815 -1.3742
10066TIP3    H251614   4.955   5.748   5.955  0.6059  1.8376  0.5417
10067TIP3   OH251615   1.951   4.078  15.184 -0.0211  0.3091  0.0925
10067TIP3    H151616   1.967   4.056  15.276  1.6306 -1.7947 -0.6194
10067TIP3    H251617   1.965   4.173  15.180  2.4606  0.1039  1.5739
10068TIP3   OH251618   5.246   4.536   2.183  0.0459  1.0202  0.0907
10068TIP3    H151619   5.303   4.587   2.125 -0.9892  0.2596 -1.6768
10068TIP3    H251620   5.299   4.460   2.207  0.3198  1.0934 -0.2655
10069TIP3   OH251621   4.051   1.619  13.832 -0.1627 -0.1156  0.5952
10069TIP3    H151622   4.029   1.676  13.758 -1.4360 -2.7176 -1.2210
10069TIP3    H251623   4.000   1.655  13.905 -1.0291  0.9974 -0.4936
10070TIP3   OH251624   4.489   2.393   1.331  0.2423 -0.0870 -0.0541
10070TIP3    H151625   4.528   2.439   1.256 -0.5178 -0.0101 -0.4053
10070TIP3    H251626   4.542   2.313   1.339  1.3158  0.6285  0.3043
10071TIP3   OH251627   6.517   1.946  17.209  0.8458  0.2708 -0.4324
10071TIP3    H151628   6.466   1.896  17.145  0.0335 -0.2443  0.5837
10071TIP3    H251629   6.559   2.015  17.158  0.7600 -0.5319 -1.6196
10072TIP3   OH251630   6.045   3.128  14.713  0.7788 -0.4372 -0.2821
10072TIP3    H151631   6.056   3.086  14.797  0.4909  0.7305  0.3674
10072TIP3    H251632   5.962   3.094  14.679  0.4944 -0.3104  0.2805
10073TIP3   OH251633   1.232   6.460  15.347  0.3153 -0.4944 -0.4522
10073TIP3    H151634   1.321   6.482  15.372  0.3863  1.3033 -2.0516
10073TIP3    H251635   1.235   6.368  15.323  2.0473 -0.1419 -1.7027
10074TIP3   OH251636   3.032   6.228  16.713 -0.9322 -0.6525 -0.4377
10074TIP3    H151637   2.973   6.289  16.669 -0.5789  0.9837  1.2531
10074TIP3    H251638   2.974   6.161  16.749 -1.2355 -2.0141 -3.2082
10075TIP3   OH251639   2.284   0.006  17.033 -0.4945  0.2288  0.4355
10075TIP3    H151640   2.227   0.082  17.048 -1.1695  0.0500 -0.9929
10075TIP3    H251641   2.361   0.041  16.988 -0.5906  0.1459  0.2019
10076TIP3   OH251642   5.068   1.041   2.308  0.7444  0.7633  0.3202
10076TIP3    H151643   5.045   0.953   2.276 -3.1071  1.9356 -0.6877
10076TIP3    H251644   5.099   1.026   2.397  1.3163 -1.6783 -0.2075
10077TIP3   OH251645   2.120   5.834  16.400  0.8266 -0.1013  0.3714
10077TIP3    H151646   2.200   5.825  16.451  1.2185  2.1272  0.2467
10077TIP3    H251647   2.145   5.888  16.325  0.0576 -2.5079 -1.7638
10078TIP3   OH251648   3.125   2.768  14.767  0.0383 -0.2496  0.3212
10078TIP3    H151649   3.207   2.816  14.762  0.1764 -0.5440 -0.3459
10078TIP3    H251650   3.150   2.676  14.766 -0.1680 -0.3792  2.5758
10079TIP3   OH251651   3.367   6.780  16.956  0.6164  0.4307  0.5281
10079TIP3    H151652   3.428   6.811  16.889  0.2811  0.8544  0.4202
10079TIP3    H251653   3.410   6.701  16.992  0.0663 -0.7581 -1.2730
10080TIP3   OH251654   4.501   0.694   2.262 -0.3215  0.2501 -0.6301
10080TIP3    H151655   4.495   0.612   2.312  1.6563 -0.7257 -1.8835
10080TIP3    H251656   4.556   0.673   2.187  0.3396  2.7671 -0.9493
10081TIP3   OH251657   5.137   5.292   4.141 -0.3577 -0.5024 -0.3804
10081TIP3    H151658   5.219   5.314   4.184  1.3781 -0.9749 -3.2274
10081TIP3    H251659   5.076   5.361   4.169  1.4063  0.7319  0.6338
10082TIP3   OH251660   3.332   2.857  14.387 -0.0056  0.1329  0.3300
10082TIP3    H151661   3.259   2.917  14.372  0.3942  0.6265  0.3541
10082TIP3    H251662   3.342   2.810  14.304  1.4274  2.0117 -0.6201
10083TIP3   OH251663   1.449   5.245   0.843  0.0111 -0.1699 -0.3469
10083TIP3    H151664   1.525   5.192   0.819  0.6244  0.3879  0.3347
10083TIP3    H251665   1.424   5.213   0.931 -1.9659 -1.9247 -1.4366
10084TIP3   OH251666   2.529   4.423  13.239  0.3954 -0.2379  0.6455
10084TIP3    H151667   2.506   4.362  13.169  2.3374 -2.7914  2.0190
10084TIP3    H251668   2.536   4.508  13.196 -4.1645 -0.4874 -1.0706
10085TIP3   OH251669   3.847   2.700  14.089  0.6196  0.0556  0.1744
10085TIP3    H151670   3.781   2.741  14.145 -1.5636 -1.3499 -1.2016
10085TIP3    H251671   3.905   2.654  14.150 -0.6927 -0.0706  1.3821
10086TIP3   OH251672   5.533   3.517   4.868  0.4727 -0.1813 -0.4945
10086TIP3    H151673   5.598   3.447   4.869  1.6393  0.8748 -0.9085
10086TIP3    H251674   5.503   3.520   4.778  0.3323 -0.2205 -0.4500
10087TIP3   OH251675   5.224   6.292   0.301  0.2625  0.4785  0.5801
10087TIP3    H151676   5.235   6.238   0.223 -0.8117  0.7341  0.2263
10087TIP3    H251677   5.234   6.231   0.374 -1.9672 -0.4892  0.1849
10088TIP3   OH251678   1.989   3.454   4.080  0.3037 -0.5602  0.0009
10088TIP3    H151679   1.997   3.365   4.044  1.9823 -0.6159  0.4415
10088TIP3    H251680   1.896   3.474   4.072  0.1909 -1.6010 -1.9033
10089TIP3   OH251681   0.654   2.071   1.640  0.6280 -0.0775  0.0878
10089TIP3    H151682   0.700   1.995   1.605  0.9951 -0.0595  0.5228
10089TIP3    H251683   0.600   2.037   1.711  0.8201  0.0717  0.3072
10090TIP3   OH251684   5.737   6.559  17.232  0.1391 -0.5013  0.3707
10090TIP3    H151685   5.798   6.632  17.235 -0.3050 -0.1316  0.5657
10090TIP3    H251686   5.651   6.599  17.245 -0.0451 -1.1259  1.2275
10091TIP3   OH251687   0.034   1.669   0.903 -0.6327 -0.0437 -0.2381
10091TIP3    H151688   0.109   1.620   0.870  0.3415  1.2464 -0.0192
10091TIP3    H251689  -0.016   1.691   0.824  0.2966  0.7812 -0.6262
10092TIP3   OH251690   0.437   5.078  15.774 -0.8169  0.3723  0.1984
10092TIP3    H151691   0.422   4.985  15.756 -0.1959  0.2534  0.2778
10092TIP3    H251692   0.494   5.107  15.702 -1.8715  0.9563 -0.4249
10093TIP3   OH251693   5.054   2.341   3.122 -0.0274  0.1811 -0.2652
10093TIP3    H151694   5.095   2.307   3.202 -1.6153 -2.4175 -0.4427
10093TIP3    H251695   4.962   2.349   3.145 -0.3942  0.0319 -1.6391
10094TIP3   OH251696   3.412   1.489   2.933 -0.2387  0.1162 -0.2451
10094TIP3    H151697   3.420   1.431   3.008 -0.0028 -0.7896 -0.9645
10094TIP3    H251698   3.376   1.434   2.864 -0.2491  0.8885 -0.8648
10095TIP3   OH251699   0.648   1.318   5.072 -0.9207  0.1054  0.6654
10095TIP3    H151700   0.574   1.330   5.013 -2.2813  0.3576  2.3305
10095TIP3    H251701   0.655   1.223   5.082  0.3388 -0.0400 -1.0415
10096TIP3   OH251702   5.513   5.592  14.064  0.1544  0.1624  1.0400
10096TIP3    H151703   5.432   5.639  14.042  0.4146  1.7506  3.1309
10096TIP3    H251704   5.484   5.513  14.109 -0.2506  0.2982  1.0202
10097TIP3   OH251705   1.632   4.110   2.027  0.0564  0.0085 -0.3077
10097TIP3    H151706   1.576   4.143   1.957  1.1345  1.0845 -0.6989
10097TIP3    H251707   1.576   4.049   2.076 -0.8757 -0.3744 -1.7825
10098TIP3   OH251708   4.311   5.849   2.843  0.4910 -0.0068 -0.1983
10098TIP3    H151709   4.397   5.869   2.882 -1.0803  1.2686  3.0146
10098TIP3    H251710   4.273   5.784   2.902 -1.9785  1.8719  0.4690
10099TIP3   OH251711   2.452   5.431   5.076 -0.4193  0.5826 -0.3285
10099TIP3    H151712   2.488   5.495   5.137 -1.5329  0.0502  0.9340
10099TIP3    H251713   2.357   5.432   5.093 -0.5060 -1.0872 -0.5632
10100TIP3   OH251714   2.618   4.370   1.197  0.3278  0.5966  0.3277
10100TIP3    H151715   2.685   4.437   1.211  0.0016  1.1998 -0.8345
10100TIP3    H251716   2.539   4.406   1.236  0.5500  0.0898  1.2801
10101TIP3   OH251717   1.365   3.183  13.200 -0.1934  0.1070 -0.0473
10101TIP3    H151718   1.342   3.268  13.164  0.9786 -0.5257 -2.4487
10101TIP3    H251719   1.290   3.127  13.180  0.0508 -0.0061 -0.6595
10102TIP3   OH251720   5.837   5.000  13.161  0.0594 -0.3645  0.1938
10102TIP3    H151721   5.906   5.010  13.227 -2.0571  0.4746  2.4767
10102TIP3    H251722   5.821   5.089  13.130 -0.5806 -0.4051  0.3879
10103TIP3   OH251723   0.046   1.502  16.317  0.9036 -0.0220 -0.0656
10103TIP3    H151724   0.023   1.414  16.287  2.9778 -0.4807 -0.4350
10103TIP3    H251725   0.101   1.488  16.394  0.1995  1.0123  0.6544
10104TIP3   OH251726   1.545   0.836  13.716  0.6225  0.2121 -0.0979
10104TIP3    H151727   1.519   0.767  13.778  2.3087 -0.2037  0.1815
10104TIP3    H251728   1.561   0.790  13.634  0.7686  0.4137 -0.1834
10105TIP3   OH251729   2.316   5.432   5.400 -0.0109 -0.4348 -0.0736
10105TIP3    H151730   2.248   5.496   5.380  0.0674 -0.5228 -0.6447
10105TIP3    H251731   2.395   5.468   5.360  0.1736 -0.5774  0.1568
10106TIP3   OH251732   2.362   5.775  15.758 -0.2759  0.4383  0.5075
10106TIP3    H151733   2.404   5.690  15.767  1.1326  1.1802  1.3709
10106TIP3    H251734   2.327   5.776  15.669  1.4847 -0.2610 -0.2283
10107TIP3   OH251735   0.195   3.766  15.546  0.0697 -0.0247  0.4923
10107TIP3    H151736   0.275   3.815  15.524 -1.0076  1.6301  0.0579
10107TIP3    H251737   0.155   3.817  15.616 -1.0922 -0.2987  0.0431
10108TIP3   OH251738   2.769   1.873  16.211  0.1457  0.1734 -0.1804
10108TIP3    H151739   2.738   1.804  16.154 -1.0245 -0.8782  1.6430
10108TIP3    H251740   2.693   1.897  16.264  1.7635 -0.8939  2.8708
10109TIP3   OH251741   1.061   6.053  12.112  0.3669 -0.0120  0.1936
10109TIP3    H151742   1.155   6.041  12.122  0.3070 -0.9167 -0.2591
10109TIP3    H251743   1.051   6.098  12.028  0.4940  1.8823  1.1473
10110TIP3   OH251744   5.289   2.899   5.549 -0.3675 -0.0199  0.2132
10110TIP3    H151745   5.205   2.856   5.568  0.4391 -1.8937 -0.2818
10110TIP3    H251746   5.284   2.919   5.456 -0.4288  0.2667  0.2774
10111TIP3   OH251747   1.863   0.740   5.732  0.1268  0.7086 -0.2718
10111TIP3    H151748   1.955   0.722   5.713 -0.0471 -0.6780  0.0616
10111TIP3    H251749   1.824   0.756   5.646  0.7617  1.7716 -0.3731
10112TIP3   OH251750   5.109   2.129   2.603 -0.3476 -0.3098 -0.0541
10112TIP3    H151751   5.100   2.223   2.591 -3.0021 -0.2147  1.6980
10112TIP3    H251752   5.040   2.091   2.549  0.3579 -1.2279 -0.3336
10113TIP3   OH251753   6.047   1.890  15.155  0.2469 -0.2443  0.5525
10113TIP3    H151754   6.118   1.841  15.114  0.5557 -0.2723  1.1113
10113TIP3    H251755   5.970   1.834  15.143 -0.1371  0.6830 -1.8452
10114TIP3   OH251756   4.118   3.963   5.417 -0.1631 -0.1923  0.0455
10114TIP3    H151757   4.142   3.941   5.507 -0.8061  0.1586  0.3107
10114TIP3    H251758   4.022   3.966   5.417 -0.1608  0.1956 -0.5539
10115TIP3   OH251759   0.420   1.641  13.860 -0.1283 -0.1416 -0.0924
10115TIP3    H151760   0.421   1.600  13.774  0.3092 -0.2299 -0.0502
10115TIP3    H251761   0.329   1.638  13.888 -0.2163 -0.4181 -0.4060
10116TIP3   OH251762   4.936   6.105  11.098 -0.2661  0.2855  0.0184
10116TIP3    H151763   4.916   6.136  11.187  0.4365  0.2176  0.2083
10116TIP3    H251764   4.954   6.184  11.048 -0.1515  0.2933  0.0713
10117TIP3   OH251765   4.337   5.190   0.428 -0.4812  0.0951 -0.3066
10117TIP3    H151766   4.348   5.120   0.492  2.8105  0.4924 -0.2701
10117TIP3    H251767   4.414   5.245   0.440 -1.1487  1.7038 -2.7849
10118TIP3   OH251768   3.921   6.552   3.761 -0.3280 -0.0424 -0.6746
10118TIP3    H151769   3.840   6.591   3.728 -1.1004 -1.3801 -0.4323
10118TIP3    H251770   3.909   6.458   3.749  0.6304 -0.3576  0.5860
10119TIP3   OH251771   2.172   0.215  13.067  0.4282  0.2037 -0.0323
10119TIP3    H151772   2.207   0.149  13.007  1.1508  0.1871  0.3935
10119TIP3    H251773   2.121   0.275  13.011 -1.3411 -1.4143 -0.2573
10120TIP3   OH251774   3.756   4.316   4.702  0.1720 -0.0009 -0.2777
10120TIP3    H151775   3.713   4.234   4.676 -0.6328 -0.1471  1.3880
10120TIP3    H251776   3.811   4.291   4.776  3.3240  0.1558 -2.3979
10121TIP3   OH251777   4.081   0.403  13.334 -0.1600  0.2129 -0.6689
10121TIP3    H151778   4.085   0.498  13.338  0.6642  0.1646 -0.1401
10121TIP3    H251779   4.129   0.373  13.411  0.2937 -0.6384 -1.2649
10122TIP3   OH251780   3.518   0.023   0.132 -0.2866 -0.1089 -0.0327
10122TIP3    H151781   3.520   0.080   0.055  0.1780 -0.0416  0.0261
10122TIP3    H251782   3.433  -0.022   0.126 -0.7361  0.7141  0.0154
10123TIP3   OH251783   3.686   0.993   0.402  0.5167 -0.1302 -0.2687
10123TIP3    H151784   3.642   1.073   0.429 -2.0845 -1.2765 -0.8386
10123TIP3    H251785   3.622   0.946   0.350  2.3222 -2.1271 -0.8569
10124TIP3   OH251786   5.925   0.337  15.271  0.2988 -0.1768  0.0662
10124TIP3    H151787   5.864   0.312  15.202  0.9426 -2.2279  0.1816
10124TIP3    H251788   6.000   0.375  15.224  0.2485 -0.5027 -0.2747
10125TIP3   OH251789   0.107   3.342   1.296 -0.0063  0.3967  0.3549
10125TIP3    H151790   0.119   3.257   1.339 -1.7925 -0.5847 -0.9308
10125TIP3    H251791   0.177   3.346   1.231  0.2529  0.0464  0.6062
10126TIP3   OH251792   4.437   2.618  13.470 -0.2119  0.7374  0.2859
10126TIP3    H151793   4.454   2.624  13.376  0.7753 -0.9042  0.3033
10126TIP3    H251794   4.344   2.637  13.479 -0.4183  0.5037 -1.0822
10127TIP3   OH251795   1.068   5.497   2.580  0.0182 -0.7127 -0.1835
10127TIP3    H151796   1.152   5.493   2.625  0.0038  1.8948  0.1996
10127TIP3    H251797   1.004   5.470   2.646  0.3229 -0.2464  0.3099
10128TIP3   OH251798   1.889   1.433  12.179  0.1393  0.6418  0.0983
10128TIP3    H151799   1.881   1.423  12.274 -1.4635 -0.8943 -0.1377
10128TIP3    H251800   1.834   1.508  12.158  1.1187  1.4807  0.4328
10129TIP3   OH251801   3.375   1.175  12.826 -0.2198 -0.2687 -0.0417
10129TIP3    H151802   3.375   1.082  12.804 -1.6385 -0.0239 -1.2675
10129TIP3    H251803   3.328   1.217  12.754 -0.4501  1.2746  0.9453
10130TIP3   OH251804   2.495   4.380   0.926  0.8063  0.1339  0.5404
10130TIP3    H151805   2.516   4.347   0.839  0.2518  0.6167  0.2149
10130TIP3    H251806   2.544   4.461   0.934  1.3543 -0.2262  0.9346
10131TIP3   OH251807   6.430   0.590  14.151  0.1230  0.1402 -0.2128
10131TIP3    H151808   6.500   0.651  14.173 -0.5805  0.9320 -0.0791
10131TIP3    H251809   6.469   0.503  14.159  1.3287  0.5887 -1.0570
10132TIP3   OH251810   6.408   6.400  12.944 -0.3144  0.1925 -0.2038
10132TIP3    H151811   6.389   6.442  12.860  0.8549  1.4246  0.1157
10132TIP3    H251812   6.365   6.456  13.008  0.1592  0.1661  0.1372
10133TIP3   OH251813   2.669   2.936  11.280 -0.2909 -0.4927  0.0115
10133TIP3    H151814   2.602   2.999  11.308 -0.4878 -0.5024 -0.4319
10133TIP3    H251815   2.631   2.850  11.299 -0.0300 -0.4780  0.5992
10134TIP3   OH251816   3.741   3.825  11.715 -0.2565  0.3638 -0.1470
10134TIP3    H151817   3.794   3.891  11.760  0.6296 -0.9942  0.8911
10134TIP3    H251818   3.727   3.757  11.781 -2.1691  0.0498 -0.8217
10135TIP3   OH251819   5.422   2.908   5.065  0.4576 -0.2216 -0.0549
10135TIP3    H151820   5.514   2.925   5.042  0.9535  0.4218  2.1205
10135TIP3    H251821   5.372   2.952   4.997  1.7096 -2.0304 -2.2706
10136TIP3   OH251822   6.413   2.661  12.119 -0.5056 -0.4115  0.0945
10136TIP3    H151823   6.465   2.643  12.041  0.5312  1.6628  0.2267
10136TIP3    H251824   6.378   2.749  12.105 -0.5561 -0.1117  1.8345
10137TIP3   OH251825   5.564   3.954  13.160  0.2692  0.1093  0.1490
10137TIP3    H151826   5.509   3.876  13.151  1.0945 -0.4494 -0.2179
10137TIP3    H251827   5.651   3.920  13.182  0.7927  0.8818 -0.6212
10138TIP3   OH251828   5.951   3.937  10.420 -0.3719 -0.4580  0.4732
10138TIP3    H151829   5.881   3.877  10.395 -0.7464  0.0902  0.1869
10138TIP3    H251830   5.956   3.999  10.348 -0.0398 -0.1035  0.7967
10139TIP3   OH251831   2.142   3.301   4.745  0.5590  0.0483  0.0698
10139TIP3    H151832   2.175   3.375   4.796 -3.4863  1.8044  0.5229
10139TIP3    H251833   2.092   3.249   4.808  0.6472 -1.2898 -0.9115
10140TIP3   OH251834   5.802   1.742   4.621  0.1318 -1.2424  0.0069
10140TIP3    H151835   5.790   1.801   4.696  1.8421 -1.4753  0.5170
10140TIP3    H251836   5.818   1.801   4.547 -0.2355 -1.0331  0.0905
10141TIP3   OH251837   2.614   4.250  14.543  0.0565 -0.2282  0.4894
10141TIP3    H151838   2.534   4.205  14.516  0.4615  0.1604 -1.5813
10141TIP3    H251839   2.685   4.196  14.510  0.5532  1.8051 -2.1492
10142TIP3   OH251840   1.114   0.015   0.990  0.1193 -0.3503 -0.0759
10142TIP3    H151841   1.028   0.056   0.991  0.7089  0.9833  1.9281
10142TIP3    H251842   1.106  -0.057   0.927 -1.3630  1.9775 -2.7954
10143TIP3   OH251843   5.741   1.712  14.332 -0.3426 -0.3882 -0.2300
10143TIP3    H151844   5.792   1.784  14.369  0.1687 -0.6908 -0.3331
10143TIP3    H251845   5.783   1.633  14.368 -1.1637 -0.6233  0.2302
10144TIP3   OH251846   3.357   4.090   0.577  0.0980  0.1632  0.3727
10144TIP3    H151847   3.338   4.015   0.521  0.7915  0.2196  0.0512
10144TIP3    H251848   3.311   4.072   0.659 -0.1643 -0.3606  0.1116
10145TIP3   OH251849   2.498   1.285  12.554 -0.3545 -0.0541 -0.1398
10145TIP3    H151850   2.571   1.239  12.512  0.0841  0.9854 -0.5527
10145TIP3    H251851   2.450   1.324  12.481  0.1514  1.3825  0.2637
10146TIP3   OH251852   0.688   6.017  12.814 -0.6299 -0.3415  0.4885
10146TIP3    H151853   0.618   5.957  12.787 -2.0795  1.6256 -0.4137
10146TIP3    H251854   0.739   5.967  12.877 -3.7404 -1.4446  2.3836
10147TIP3   OH251855   1.843   6.522   0.656 -0.3784  0.0459  0.2019
10147TIP3    H151856   1.898   6.546   0.731  1.8066  1.6204 -1.8022
10147TIP3    H251857   1.794   6.602   0.636 -2.3411 -0.8832  0.9490
10148TIP3   OH251858   3.470   3.937  12.782  0.4341 -0.1849  0.0036
10148TIP3    H151859   3.452   3.868  12.718 -0.1362 -1.2905  1.3220
10148TIP3    H251860   3.385   3.977  12.799  0.2893 -1.0308  1.3274
10149TIP3   OH251861   3.945   3.713   0.900 -0.1868  0.2303  0.2616
10149TIP3    H151862   4.020   3.713   0.960 -0.3508  1.4996  0.5022
10149TIP3    H251863   3.947   3.800   0.860 -0.4049 -0.4074 -1.1867
10150TIP3   OH251864   6.504   6.270  16.577  0.0001 -0.5857 -0.1038
10150TIP3    H151865   6.593   6.236  16.565 -0.3723 -1.1441 -1.4204
10150TIP3    H251866   6.451   6.221  16.514 -1.1198  0.2394  0.1742
10151TIP3   OH251867   4.611   5.955   0.999 -0.2622 -0.1727  0.0413
10151TIP3    H151868   4.559   6.013   0.943 -1.8479 -2.0614 -0.5691
10151TIP3    H251869   4.553   5.935   1.073  0.1389 -1.1945  0.0872
10152TIP3   OH251870   5.961   0.369   0.081  0.0522 -0.1046 -0.0069
10152TIP3    H151871   5.876   0.407   0.102  0.0321 -0.4331  0.5466
10152TIP3    H251872   5.985   0.407  -0.003 -0.0579  0.9608  0.4309
10153TIP3   OH251873   3.793   2.286  16.433  0.4130 -0.1531 -0.2611
10153TIP3    H151874   3.846   2.214  16.398  0.5990 -0.1825  0.0801
10153TIP3    H251875   3.809   2.284  16.527 -0.1167 -0.0952 -0.1685
10154TIP3   OH251876   3.753   1.095   0.021  0.5543  0.3116  0.8820
10154TIP3    H151877   3.695   1.091   0.097 -0.4355  0.5940  0.1706
10154TIP3    H251878   3.695   1.083  -0.054  1.5065  0.0596  0.1688
10155TIP3   OH251879   5.544   4.101   1.189 -0.2617 -0.3380 -0.2962
10155TIP3    H151880   5.586   4.088   1.104  0.2667  2.0676 -0.4600
10155TIP3    H251881   5.450   4.091   1.170 -0.0725 -1.4738 -0.7816
10156TIP3   OH251882   0.489   2.682  12.870 -0.3479  0.2369  0.4561
10156TIP3    H151883   0.553   2.654  12.935  0.1680  0.2395 -0.0411
10156TIP3    H251884   0.446   2.601  12.842 -1.0570  0.3115  1.2917
10157TIP3   OH251885   5.972   1.702  12.545  0.2401 -0.2751  0.3238
10157TIP3    H151886   5.974   1.607  12.536 -0.9719 -0.3524  0.7066
10157TIP3    H251887   5.945   1.717  12.636  0.3650  0.4301  0.2537
10158TIP3   OH251888   0.986   2.842  14.201 -0.4945 -0.3091 -0.5873
10158TIP3    H151889   1.025   2.861  14.286 -1.8983 -1.6434  0.4059
10158TIP3    H251890   1.014   2.753  14.181  0.5064  0.2690 -1.9668
10159TIP3   OH251891   5.890   0.759  16.767  0.3221  0.0610  0.1088
10159TIP3    H151892   5.934   0.719  16.842  0.9271 -2.9196 -1.6778
10159TIP3    H251893   5.962   0.791  16.711 -0.0691  1.1341  0.2072
10160TIP3   OH251894   0.501   5.444   0.766  0.0290 -0.1601  0.0455
10160TIP3    H151895   0.457   5.465   0.683  0.2401 -0.5163 -0.1609
10160TIP3    H251896   0.592   5.470   0.751 -0.1287  0.6949  0.5161
10161TIP3   OH251897   2.722   3.651   3.505  0.3388  0.4565  0.4734
10161TIP3    H151898   2.694   3.652   3.596  0.4427  0.0483  0.5131
10161TIP3    H251899   2.747   3.560   3.488  0.5148  0.5688  0.0982
10162TIP3   OH251900   3.532   1.103   1.157  0.3737 -0.1720  0.0723
10162TIP3    H151901   3.445   1.090   1.120  0.4607 -1.1643  0.1893
10162TIP3    H251902   3.590   1.110   1.080  0.0330  1.9914 -0.0545
10163TIP3   OH251903   0.620   1.189   3.563  0.6396 -0.0254  0.1600
10163TIP3    H151904   0.664   1.268   3.594  0.7520  0.0267 -0.1362
10163TIP3    H251905   0.621   1.131   3.639  1.5756 -0.1798  0.0474
10164TIP3   OH251906   3.886   0.918  16.807  0.2716 -0.6319 -0.6364
10164TIP3    H151907   3.846   0.899  16.722 -0.2717 -3.7386  0.1751
10164TIP3    H251908   3.977   0.939  16.787 -0.0964 -0.2943 -2.0366
10165TIP3   OH251909   4.319   0.872   3.584 -0.7795  0.0358  0.0447
10165TIP3    H151910   4.356   0.792   3.546  0.8315  1.0510 -0.6734
10165TIP3    H251911   4.384   0.939   3.564 -2.4235  1.6828 -0.0423
10166TIP3   OH251912   5.641   4.728  12.779 -0.1665  0.1562  0.0671
10166TIP3    H151913   5.665   4.812  12.739 -0.1397 -0.1017 -0.4708
10166TIP3    H251914   5.668   4.736  12.870 -0.2977  0.7903  0.0569
10167TIP3   OH251915   3.457   1.999  12.424  0.0804 -0.1103 -0.3800
10167TIP3    H151916   3.381   2.031  12.377  0.5626  0.2952 -0.8955
10167TIP3    H251917   3.449   1.903  12.421 -1.4577 -0.0782  1.3308
10168TIP3   OH251918   6.352   6.749  13.682  0.0423 -0.3068 -0.1210
10168TIP3    H151919   6.354   6.654  13.675  0.6637 -0.7456  3.8483
10168TIP3    H251920   6.418   6.770  13.748 -1.9414  2.6223  1.1350
10169TIP3   OH251921   0.096   0.030   4.054  0.2461 -0.1652  0.2928
10169TIP3    H151922   0.165   0.089   4.021 -0.5944  0.9284  0.4165
10169TIP3    H251923   0.018   0.086   4.059 -0.8222 -1.5264 -0.4702
10170TIP3   OH251924   2.087   3.267   3.679  0.0525  0.1538  0.2534
10170TIP3    H151925   2.097   3.362   3.681  1.8398  0.0036  0.9337
10170TIP3    H251926   2.114   3.242   3.591 -1.4632  0.3296 -0.2925
10171TIP3   OH251927   2.677   0.030  15.708 -0.1781  0.5120  0.0775
10171TIP3    H151928   2.607   0.077  15.753 -1.4977  0.0107 -1.3773
10171TIP3    H251929   2.742   0.098  15.687 -0.2825  1.0092  1.2913
10172TIP3   OH251930   4.178   5.329   3.718 -0.2598  0.0900  0.0276
10172TIP3    H151931   4.269   5.316   3.745  0.1705 -0.6135 -1.6588
10172TIP3    H251932   4.169   5.424   3.710  0.4787  0.1455 -0.2582
10173TIP3   OH251933   2.165   2.049   3.228  0.0211  0.1921 -0.0669
10173TIP3    H151934   2.240   2.014   3.180  0.5037  1.9931 -0.7183
10173TIP3    H251935   2.145   1.983   3.294  0.0372 -1.8588 -2.0300
10174TIP3   OH251936   5.318   4.039  15.282  0.1167 -0.0091  0.3170
10174TIP3    H151937   5.311   4.134  15.289  1.8841  0.2491 -0.6281
10174TIP3    H251938   5.258   4.005  15.348 -0.4986  1.7567  0.7241
10175TIP3   OH251939   5.213   1.743  15.549 -0.2423 -0.5475 -0.2068
10175TIP3    H151940   5.201   1.768  15.641 -1.7099 -0.6787 -0.3285
10175TIP3    H251941   5.297   1.698  15.547 -0.1215 -0.4217  1.0465
10176TIP3   OH251942   3.648   1.902   4.810  0.3695 -0.2478  0.7888
10176TIP3    H151943   3.558   1.871   4.820  0.2323  0.1144  0.7098
10176TIP3    H251944   3.700   1.823   4.804 -0.0299 -0.4682  0.0772
10177TIP3   OH251945   5.014   5.854  16.682 -0.1012 -0.2001 -0.1425
10177TIP3    H151946   5.015   5.809  16.766 -0.0129 -1.1812 -0.6411
10177TIP3    H251947   5.051   5.790  16.621 -0.6573  0.2870 -1.0137
10178TIP3   OH251948   4.709   6.518  11.618  0.2692 -0.5029  0.0438
10178TIP3    H151949   4.766   6.561  11.682  1.0149  1.7322 -1.9684
10178TIP3    H251950   4.622   6.522  11.657  0.5749  1.4488  0.6524
10179TIP3   OH251951   0.445   1.318   2.740  0.2668  0.9281  0.1899
10179TIP3    H151952   0.421   1.245   2.798 -1.5536  0.4859 -1.0413
10179TIP3    H251953   0.438   1.396   2.795 -1.4150  0.5222  0.6075
10180TIP3   OH251954   5.320   2.033  12.873 -1.0982 -0.6073  0.0293
10180TIP3    H151955   5.336   2.122  12.903 -2.1309 -1.7701  4.8629
10180TIP3    H251956   5.407   2.000  12.851 -0.0221  0.3410  2.5103
10181TIP3   OH251957   5.007   1.144  15.736 -0.1713  0.5521  0.1911
10181TIP3    H151958   5.032   1.233  15.761 -0.0051  0.4647  0.3344
10181TIP3    H251959   4.931   1.125  15.792  0.3061  0.2917  0.7655
10182TIP3   OH251960   1.838   4.642   0.281 -0.4297 -0.0388  0.3967
10182TIP3    H151961   1.923   4.666   0.246 -1.8516  2.9850 -1.3748
10182TIP3    H251962   1.817   4.559   0.237  1.0028 -0.1363 -0.1653
10183TIP3   OH251963   1.902   1.985  17.315 -0.0966 -0.7554  0.1710
10183TIP3    H151964   1.949   1.909  17.351  0.3563 -1.0443 -0.9790
10183TIP3    H251965   1.900   2.048  17.386  2.5808 -0.4934  0.1269
10184TIP3   OH251966   3.235   3.638  12.328 -0.0925 -0.2239 -0.2225
10184TIP3    H151967   3.217   3.708  12.266 -2.4063 -1.8146 -1.4885
10184TIP3    H251968   3.221   3.557  12.278  1.1404 -1.6023  1.5276
10185TIP3   OH251969   6.764   6.218   4.866  0.2448  0.4615 -0.0450
10185TIP3    H151970   6.830   6.271   4.822  1.6879 -0.2975  1.1044
10185TIP3    H251971   6.797   6.128   4.860 -1.3975 -0.1440 -0.6537
10186TIP3   OH251972   4.118   2.539   5.441 -0.0158 -0.0980 -0.0027
10186TIP3    H151973   4.076   2.565   5.524 -1.2883 -2.2792  0.1172
10186TIP3    H251974   4.053   2.483   5.399  1.4312 -0.6613 -1.5545
10187TIP3   OH251975   6.224   6.660  16.754 -0.2025 -0.0991 -0.7731
10187TIP3    H151976   6.189   6.650  16.843  1.4802 -0.2482 -0.0951
10187TIP3    H251977   6.211   6.753  16.733 -1.6994 -0.3057 -0.8799
10188TIP3   OH251978   6.536   0.625   0.404  0.0055 -0.2567  0.1766
10188TIP3    H151979   6.562   0.672   0.483 -0.6702  2.7748 -1.2611
10188TIP3    H251980   6.605   0.644   0.340  0.2454 -2.1631 -0.2064
10189TIP3   OH251981   5.494   3.996  13.751 -0.1566  0.2323 -0.2573
10189TIP3    H151982   5.401   3.993  13.773 -0.5340  3.7145 -0.7453
10189TIP3    H251983   5.499   3.967  13.660 -1.0267  1.2535 -0.6532
10190TIP3   OH251984   3.220   0.720   2.861 -0.4529 -0.0730 -0.5853
10190TIP3    H151985   3.236   0.760   2.775 -0.1049 -1.7788 -1.3503
10190TIP3    H251986   3.237   0.791   2.923  2.3367  0.4258 -1.7552
10191TIP3   OH251987   1.022   1.302  14.130  0.4087 -0.0112  0.1987
10191TIP3    H151988   1.053   1.218  14.164  0.9147  0.2430  0.3897
10191TIP3    H251989   1.067   1.367  14.184 -0.1359  0.3797  0.1878
10192TIP3   OH251990   1.383   4.435  14.050 -0.0315  0.3893 -0.1041
10192TIP3    H151991   1.291   4.451  14.073  0.3229  2.0224  0.3553
10192TIP3    H251992   1.390   4.463  13.959 -0.0958 -0.1837 -0.2831
10193TIP3   OH251993   6.396   0.450   3.725  0.2767 -0.2254  0.5693
10193TIP3    H151994   6.333   0.390   3.766  0.4646  0.3341  1.7110
10193TIP3    H251995   6.350   0.483   3.648  1.1060 -3.8208 -1.6988
10194TIP3   OH251996   4.342   5.581   6.144 -0.8760  0.6473  0.1134
10194TIP3    H151997   4.326   5.552   6.234  1.3719  0.4517  0.5119
10194TIP3    H251998   4.427   5.544   6.122 -0.6652  1.9968 -1.5421
10195TIP3   OH251999   4.774   1.774   6.422  0.2226 -0.4832 -0.0906
10195TIP3    H152000   4.707   1.759   6.489 -0.5906  0.6523 -0.6261
10195TIP3    H252001   4.789   1.868   6.423  0.3675 -0.4798 -1.3387
10196TIP3   OH252002   3.197   0.004  12.431  0.1716 -0.3333 -0.1223
10196TIP3    H152003   3.237   0.012  12.345  0.3507  1.9489  0.1223
10196TIP3    H252004   3.254   0.055  12.489 -1.7089  0.9543  0.6873
10197TIP3   OH252005   2.789   2.200   3.926  0.6472  0.7032  0.3086
10197TIP3    H152006   2.774   2.294   3.938  0.2020  0.7854 -0.7424
10197TIP3    H252007   2.882   2.193   3.907  0.4762  1.0943 -0.8088
10198TIP3   OH252008   2.297   6.652   0.611 -0.3329  0.3104  0.6695
10198TIP3    H152009   2.277   6.624   0.700 -2.7073 -2.9853 -0.7051
10198TIP3    H252010   2.329   6.572   0.568 -1.3152  1.2545 -1.9797
10199TIP3   OH252011   3.459   5.830  13.196  0.3237  0.8238 -0.3477
10199TIP3    H152012   3.469   5.742  13.160 -1.7335 -0.7606  2.5281
10199TIP3    H252013   3.527   5.835  13.264  0.1049  1.2761 -0.1633
10200TIP3   OH252014   0.887   1.303   4.920 -0.0016 -0.1810  0.3320
10200TIP3    H152015   0.809   1.302   4.975  0.6049 -0.0317  1.2308
10200TIP3    H252016   0.856   1.281   4.833 -1.0161 -0.2995  0.7110
10201TIP3   OH252017   2.806   6.173  17.023 -0.2001 -0.2448 -0.3679
10201TIP3    H152018   2.902   6.182  17.025 -0.2337  0.1538  1.3601
10201TIP3    H252019   2.791   6.079  17.035 -0.0303 -0.2144  0.0996
10202TIP3   OH252020   6.418   4.654   2.944  0.2586 -0.3015 -0.3156
10202TIP3    H152021   6.480   4.582   2.932  0.8378 -0.2140  1.7416
10202TIP3    H252022   6.470   4.724   2.984 -1.1344 -0.2071  1.4380
10203TIP3   OH252023   2.290   0.430  15.998 -0.3566 -0.0601 -0.6424
10203TIP3    H152024   2.382   0.424  16.025 -0.8638  0.3434  1.3353
10203TIP3    H252025   2.286   0.382  15.915  1.3002 -1.6783  0.1417
10204TIP3   OH252026   5.328   6.683   3.889  0.2790  0.1493  0.2310
10204TIP3    H152027   5.311   6.651   3.977  0.1305 -1.7123 -0.4249
10204TIP3    H252028   5.245   6.670   3.842  0.8356 -0.4887 -0.6142
10205TIP3   OH252029   3.388   2.706  11.916 -0.2178 -0.3148 -0.0873
10205TIP3    H152030   3.477   2.680  11.891 -0.3498 -0.8968  0.0383
10205TIP3    H252031   3.358   2.761  11.844  1.4638  2.7493  1.3592
10206TIP3   OH252032   5.768   4.957   5.355 -0.2667 -0.5002 -0.1728
10206TIP3    H152033   5.783   5.039   5.403 -0.2084  0.1683 -1.2881
10206TIP3    H252034   5.852   4.937   5.314 -0.4794 -0.7128 -0.5104
10207TIP3   OH252035   0.714   1.914   6.185  0.2222 -0.2938  0.5846
10207TIP3    H152036   0.710   1.834   6.237 -0.0242 -1.0233 -0.5246
10207TIP3    H252037   0.624   1.928   6.156  0.2648  0.3847  0.7522
10208TIP3   OH252038   5.535   4.553  10.233  0.1928  0.1502 -0.0807
10208TIP3    H152039   5.515   4.465  10.200 -2.3801  0.4188  0.5749
10208TIP3    H252040   5.453   4.602  10.224  0.8834  1.7827  1.7803
10209TIP3   OH252041   0.227   0.570  14.602  0.1985  0.4429 -0.4022
10209TIP3    H152042   0.300   0.509  14.613 -0.1025  0.1018 -0.3029
10209TIP3    H252043   0.247   0.615  14.519  1.5658  1.7960  0.6119
10210TIP3   OH252044   3.114   1.357  15.455 -0.1690 -0.1835  0.0436
10210TIP3    H152045   3.019   1.347  15.448 -0.1311 -0.5818  0.0622
10210TIP3    H252046   3.149   1.269  15.438  0.2928  0.2770 -1.6036
10211TIP3   OH252047   4.998   1.658   1.361  0.6661 -0.3365  0.9115
10211TIP3    H152048   5.060   1.657   1.434  0.4989 -0.7712  1.0486
10211TIP3    H252049   4.913   1.673   1.401  0.7896  1.2117  0.6352
10212TIP3   OH252050   1.512   4.642  16.690 -0.3691  0.2463  0.1928
10212TIP3    H152051   1.604   4.627  16.710 -0.9681 -3.0552  1.0471
10212TIP3    H252052   1.509   4.732  16.657  3.1878  0.3254 -0.3024
10213TIP3   OH252053   3.701   3.105   3.433 -0.1175  0.1859  0.5182
10213TIP3    H152054   3.728   3.161   3.361 -1.7634 -0.1921 -0.4426
10213TIP3    H252055   3.728   3.152   3.512  0.0820  1.4874 -0.3017
10214TIP3   OH252056   2.783   0.182   4.838  0.1437  0.4596  0.2101
10214TIP3    H152057   2.801   0.193   4.745  1.3543  0.5402  0.4396
10214TIP3    H252058   2.718   0.249   4.858 -3.7642 -2.4071 -1.5135
10215TIP3   OH252059   3.456   5.250   0.973 -0.3985  0.3183  0.5085
10215TIP3    H152060   3.484   5.279   1.060 -0.2934 -0.4155  0.7216
10215TIP3    H252061   3.496   5.164   0.963  1.2873  1.2238 -1.0938
10216TIP3   OH252062   3.626   4.451  15.610 -0.1905  0.1786 -0.1450
10216TIP3    H152063   3.660   4.371  15.651 -0.9791  0.2760  0.7438
10216TIP3    H252064   3.636   4.436  15.516  0.3385 -0.6612  0.0322
10217TIP3   OH252065   2.700   1.010  16.164 -0.2545  0.0771  0.5384
10217TIP3    H152066   2.612   1.043  16.184 -0.1412 -0.0410  1.2563
10217TIP3    H252067   2.733   1.071  16.098  0.1615  1.8086  2.2234
10218TIP3   OH252068   3.474   3.392  14.843 -0.1646 -0.5716 -0.5407
10218TIP3    H152069   3.531   3.422  14.772 -0.4348 -0.2045 -0.6048
10218TIP3    H252070   3.533   3.350  14.905  0.4098  1.2002  0.1727
10219TIP3   OH252071   3.994   4.514   1.348  0.0480 -0.0678 -0.4346
10219TIP3    H152072   4.002   4.482   1.438  2.1041 -0.3578 -0.6681
10219TIP3    H252073   3.986   4.609   1.356  1.0704 -0.0048  0.0620
10220TIP3   OH252074   1.944   6.689  12.530 -0.5389  0.8827 -0.1422
10220TIP3    H152075   1.954   6.624  12.459  0.8421  0.8091  0.0886
10220TIP3    H252076   2.019   6.747  12.519 -0.8093  1.4037  0.7371
10221TIP3   OH252077   4.114   1.578  17.158 -0.5522 -0.0049 -0.4479
10221TIP3    H152078   4.188   1.518  17.166 -0.8811 -0.5858 -1.4625
10221TIP3    H252079   4.105   1.618  17.244  0.1780 -0.8337  0.0258
10222TIP3   OH252080   1.601   5.873   5.022 -0.1192 -0.5176 -0.5767
10222TIP3    H152081   1.609   5.778   5.019 -2.7377 -0.8742  1.0423
10222TIP3    H252082   1.660   5.899   5.093  0.2563 -0.9836 -0.7124
10223TIP3   OH252083   3.901   4.440  15.772 -0.3850  0.4676  0.0755
10223TIP3    H152084   3.854   4.391  15.704  1.3849  0.3336 -1.1345
10223TIP3    H252085   3.958   4.500  15.723  1.5739 -0.2204  1.3721
10224TIP3   OH252086   3.089   4.772   3.090 -0.3541  0.3281  0.1122
10224TIP3    H152087   3.161   4.755   3.030  0.8445  2.0481  0.9780
10224TIP3    H252088   3.100   4.706   3.160 -0.2414 -0.0587 -0.2646
10225TIP3   OH252089   0.104   1.826  16.822  0.1561 -0.4039  0.3262
10225TIP3    H152090   0.114   1.793  16.733  1.3987 -1.7467  0.9338
10225TIP3    H252091   0.009   1.832  16.835 -0.1598 -3.3522 -0.0000
10226TIP3   OH252092   4.402   1.893  12.722 -0.0929 -0.0336  0.6673
10226TIP3    H152093   4.413   1.835  12.798 -3.6293  0.6647  1.9024
10226TIP3    H252094   4.404   1.833  12.647 -3.0951 -1.8804  1.8546
10227TIP3   OH252095   4.576   4.329   3.702 -0.1839  0.2144 -0.1478
10227TIP3    H152096   4.531   4.317   3.785 -0.1247 -2.2148 -0.4105
10227TIP3    H252097   4.558   4.420   3.678 -0.8346  0.7458  2.1144
10228TIP3   OH252098   2.437   1.086  11.198 -0.0107  0.0507 -0.2074
10228TIP3    H152099   2.483   1.048  11.273  0.4768  1.5108  0.2688
10228TIP3    H252100   2.344   1.081  11.221  0.1462  0.6214  0.5745
10229TIP3   OH252101   4.526   1.424  14.662  0.4722 -0.3838  0.1725
10229TIP3    H152102   4.530   1.354  14.597  1.9692  0.6182 -0.8725
10229TIP3    H252103   4.569   1.387  14.739 -0.0281 -1.0826  0.1341
10230TIP3   OH252104   3.647   0.171  14.547 -0.3169  0.0456  0.2281
10230TIP3    H152105   3.591   0.093  14.552 -0.1372 -0.0319  1.2035
10230TIP3    H252106   3.586   0.245  14.559 -0.4173  0.0350 -0.2055
10231TIP3   OH252107   5.598   6.094   3.257 -0.1080  0.2936 -0.2064
10231TIP3    H152108   5.692   6.094   3.273 -0.3514 -0.0966  1.4372
10231TIP3    H252109   5.581   6.015   3.206  0.2915 -0.3542  0.6513
10232TIP3   OH252110   4.359   2.119   2.514 -0.6266 -0.0745  0.4338
10232TIP3    H152111   4.295   2.049   2.499  1.6558 -2.0619 -0.5657
10232TIP3    H252112   4.389   2.143   2.427 -0.1939  1.0128  0.8714
10233TIP3   OH252113   4.705   5.313  14.148  0.1718  0.1817  0.5141
10233TIP3    H152114   4.728   5.403  14.124  0.7616  0.6845  2.7512
10233TIP3    H252115   4.613   5.303  14.122  0.3342  1.1392 -0.4819
10234TIP3   OH252116   0.643   3.211  12.357  0.6118  0.0833 -0.0472
10234TIP3    H152117   0.735   3.223  12.330  0.5767 -1.8178 -1.1652
10234TIP3    H252118   0.649   3.165  12.440  0.6721 -0.1180 -0.1624
10235TIP3   OH252119   0.077   4.943  10.647 -0.1943  0.8159  0.0728
10235TIP3    H152120   0.147   4.880  10.668  0.6706  1.2220 -1.4789
10235TIP3    H252121   0.106   5.025  10.687 -0.3861  0.6965  0.4624
10236TIP3   OH252122   6.149   2.948   1.888 -0.6943  0.3341 -0.3704
10236TIP3    H152123   6.060   2.914   1.889 -1.7739  2.7741 -2.5841
10236TIP3    H252124   6.154   3.004   1.966 -1.1405  0.2922 -0.3093
10237TIP3   OH252125   6.737   5.864   6.602 -0.0400 -0.1436 -0.1659
10237TIP3    H152126   6.794   5.922   6.654 -1.0145 -1.5840  2.7618
10237TIP3    H252127   6.794   5.791   6.578 -0.2353 -0.9825  1.7006
10238TIP3   OH252128   4.065   0.596   3.863 -0.1367  0.0441  0.3568
10238TIP3    H152129   4.159   0.582   3.849 -0.6128 -1.7384 -1.7712
10238TIP3    H252130   4.024   0.549   3.790 -2.6502  1.8186  0.5327
10239TIP3   OH252131   0.403   3.648   6.136  0.1167 -0.5339  0.1579
10239TIP3    H152132   0.458   3.611   6.067 -0.0229 -0.6353  0.0997
10239TIP3    H252133   0.453   3.723   6.169  0.0490 -0.3009 -0.2632
10240TIP3   OH252134   1.985   1.314  11.174  0.1504 -0.2008  0.4555
10240TIP3    H152135   2.065   1.318  11.227  0.6889 -0.2451 -0.3440
10240TIP3    H252136   2.006   1.362  11.094 -1.1483  1.1828  0.8932
10241TIP3   OH252137   3.876   3.532   2.570  0.0790 -0.3565  0.2358
10241TIP3    H152138   3.852   3.586   2.494 -0.6669  1.1210  1.4617
10241TIP3    H252139   3.934   3.464   2.535  0.0101  0.4848 -1.5848
10242TIP3   OH252140   2.177   0.306   1.240  0.0782  0.0600 -0.3806
10242TIP3    H152141   2.191   0.345   1.327 -1.9068  0.8474 -0.3537
10242TIP3    H252142   2.211   0.371   1.179  0.4789 -0.0019 -0.2253
10243TIP3   OH252143   2.257   5.489  11.923  0.0333 -0.1379  1.6222
10243TIP3    H152144   2.214   5.513  11.841  1.9284 -2.0772 -0.0840
10243TIP3    H252145   2.256   5.569  11.976  0.2352  1.7093 -0.9870
10244TIP3   OH252146   5.225   6.200  13.911  0.6059  0.0811 -0.4905
10244TIP3    H152147   5.198   6.263  13.845  0.6650  0.1567 -0.4425
10244TIP3    H252148   5.224   6.249  13.993 -0.2737 -0.2332 -0.3054
10245TIP3   OH252149   4.647   4.372  16.184  0.3567 -0.0567 -0.7423
10245TIP3    H152150   4.637   4.412  16.271 -0.0745 -1.8952  0.1093
10245TIP3    H252151   4.658   4.446  16.124 -1.7441  1.3952  0.5495
10246TIP3   OH252152   5.342   5.408  14.167  0.2401 -0.7113  0.1724
10246TIP3    H152153   5.292   5.415  14.085 -1.4983 -0.7036  1.1878
10246TIP3    H252154   5.381   5.321  14.164  1.7907 -0.0220 -1.4916
10247TIP3   OH252155   3.697   0.406  14.761 -0.1086  0.1286 -0.1062
10247TIP3    H152156   3.678   0.472  14.694 -0.3798 -0.0725 -0.2303
10247TIP3    H252157   3.760   0.448  14.819  0.5751  0.1166 -0.8101
10248TIP3   OH252158   3.209   6.745   1.985  0.2483  0.2040 -0.0058
10248TIP3    H152159   3.225   6.763   2.078  0.4920  0.9541 -0.1859
10248TIP3    H252160   3.134   6.686   1.985 -0.7925  1.4683  0.6125
10249TIP3   OH252161   0.185   4.293   4.301 -0.4672  0.2273  0.7270
10249TIP3    H152162   0.106   4.296   4.248 -0.4886 -0.3352  0.7290
10249TIP3    H252163   0.176   4.369   4.360  1.2167  3.0680 -2.3558
10250TIP3   OH252164   3.426   2.166  16.642 -0.4043  0.4819 -0.2199
10250TIP3    H152165   3.504   2.129  16.684 -1.7574 -0.6098  1.4420
10250TIP3    H252166   3.455   2.189  16.554  1.7544 -0.0116  0.3056
10251TIP3   OH252167   1.941   5.864   1.059  0.5820  0.2512 -0.1665
10251TIP3    H152168   1.869   5.830   1.112  0.0098 -0.5240 -1.3913
10251TIP3    H252169   1.976   5.937   1.110 -2.0890  1.7070 -0.2533
10252TIP3   OH252170   4.765   6.445   5.771 -0.0191 -0.2062  0.6109
10252TIP3    H152171   4.819   6.398   5.834 -0.7357  0.0499  1.4387
10252TIP3    H252172   4.770   6.392   5.691  0.9918 -0.4694  0.8344
10253TIP3   OH252173   2.500   3.357  14.338  0.3648  0.8225 -0.3990
10253TIP3    H152174   2.465   3.324  14.256  0.8478 -1.0787  0.1212
10253TIP3    H252175   2.493   3.284  14.399 -2.3705  2.8598  2.0581
10254TIP3   OH252176   4.931   3.205  10.972  0.2209 -0.0256  0.1977
10254TIP3    H152177   4.844   3.164  10.967  0.6202 -0.8196 -0.3098
10254TIP3    H252178   4.983   3.146  11.026  1.4957 -1.5397 -2.4593
10255TIP3   OH252179   3.183   0.672   4.669  0.1654 -0.3926 -0.0800
10255TIP3    H152180   3.113   0.703   4.726 -0.2436 -0.8707 -0.3217
10255TIP3    H252181   3.201   0.745   4.610 -0.1677 -0.2914 -0.0550
10256TIP3   OH252182   4.977   6.023  14.605  0.0501 -0.2813  0.3528
10256TIP3    H152183   5.014   5.954  14.550  1.1362  0.0220  0.6737
10256TIP3    H252184   5.052   6.080  14.625 -0.6284  0.4299  0.9143
10257TIP3   OH252185   5.398   1.095   0.337 -0.0908 -0.0829  0.0654
10257TIP3    H152186   5.359   1.171   0.381 -1.3380 -1.0346  0.6765
10257TIP3    H252187   5.426   1.039   0.409 -0.3291 -0.7675 -0.3713
10258TIP3   OH252188   5.211   2.026  15.600  0.3926 -0.5484  0.2338
10258TIP3    H152189   5.227   1.933  15.582  0.2093 -0.6283  0.4782
10258TIP3    H252190   5.232   2.070  15.518  2.2729 -0.6019  0.6458
10259TIP3   OH252191   2.532   5.947   5.315 -0.3126  0.0967 -0.3083
10259TIP3    H152192   2.489   5.893   5.249  3.4350  1.1927 -4.1687
10259TIP3    H252193   2.572   5.884   5.375  0.2018 -1.3167 -2.0319
10260TIP3   OH252194   1.960   3.042   2.746 -0.0854 -0.5962  0.0983
10260TIP3    H152195   2.007   2.978   2.692  0.2255  0.8768 -1.4671
10260TIP3    H252196   1.874   3.049   2.705 -0.1673 -0.1503  0.3391
10261TIP3   OH252197   1.843   5.150  12.833  0.5709 -0.0215  0.5409
10261TIP3    H152198   1.763   5.152  12.780 -0.5403 -0.9982  2.1051
10261TIP3    H252199   1.819   5.193  12.915  0.7874 -2.6173  2.0796
10262TIP3   OH252200   5.180   6.489   4.874 -0.1546  0.0937  0.3407
10262TIP3    H152201   5.273   6.496   4.893  0.1182  2.5296 -1.3932
10262TIP3    H252202   5.138   6.491   4.960  1.3287 -0.3035  1.1136
10263TIP3   OH252203   6.198   1.832   5.159  0.4496  0.2362 -1.1807
10263TIP3    H152204   6.236   1.748   5.184  0.0752  0.4189  0.0973
10263TIP3    H252205   6.109   1.829   5.196  0.2025  0.9266 -1.7040
10264TIP3   OH252206   4.574   4.338  17.201 -0.1763  0.1285 -0.5481
10264TIP3    H152207   4.528   4.401  17.146  1.0844  1.2769 -0.3441
10264TIP3    H252208   4.549   4.253  17.165 -1.3513  0.7521 -1.2910
10265TIP3   OH252209   0.052   6.371  13.384  0.4144 -0.2231 -0.0110
10265TIP3    H152210   0.097   6.370  13.468 -1.7249  1.3956  1.2618
10265TIP3    H252211  -0.016   6.438  13.394  0.3407  0.3098 -3.1926
10266TIP3   OH252212   1.345   1.136   2.961  0.6663 -0.0928  0.6293
10266TIP3    H152213   1.352   1.103   3.050 -1.0410  0.0307  0.8325
10266TIP3    H252214   1.253   1.122   2.937  1.3807 -1.3962 -1.6150
10267TIP3   OH252215   2.861   4.783   4.106 -0.0185  0.1519 -0.2756
10267TIP3    H152216   2.838   4.732   4.029 -1.6401  1.5586 -0.7967
10267TIP3    H252217   2.933   4.839   4.077 -0.8650  0.9385 -0.9216
10268TIP3   OH252218   4.947   5.792   5.548  0.0783 -0.5526  0.5887
10268TIP3    H152219   4.957   5.733   5.474 -0.4131 -0.9251  0.8084
10268TIP3    H252220   4.983   5.744   5.623  2.0156  0.4208  0.3521
10269TIP3   OH252221   5.734   4.918   2.429  0.0279  0.1699  0.2541
10269TIP3    H152222   5.801   4.942   2.366 -0.3249  3.2931  0.9224
10269TIP3    H252223   5.755   4.968   2.507 -2.7136  0.8412  0.6720
10270TIP3   OH252224   6.261   1.533   5.088  0.3175 -0.2075  0.1256
10270TIP3    H152225   6.316   1.471   5.137 -1.2944 -0.7176  1.3742
10270TIP3    H252226   6.221   1.481   5.019  1.6270  0.2416 -1.0076
10271TIP3   OH252227   2.008   0.921   1.946  0.4502  0.1738  0.1844
10271TIP3    H152228   2.033   0.871   2.023 -0.5200  0.4623  0.7016
10271TIP3    H252229   2.040   1.010   1.963  0.5408  0.1576  0.0988
10272TIP3   OH252230   2.224   6.670  11.086  0.6194 -0.4797  0.2185
10272TIP3    H152231   2.160   6.706  11.024  0.2536  1.0090  1.4065
10272TIP3    H252232   2.293   6.736  11.090 -0.4022  0.5427  2.9734
10273TIP3   OH252233   6.317   5.739   6.168 -0.4658  1.0420  0.5107
10273TIP3    H152234   6.287   5.682   6.239  3.0539 -0.1171  1.2460
10273TIP3    H252235   6.356   5.814   6.213  0.5425  0.9804 -0.2286
10274TIP3   OH252236   5.826   5.008  15.661 -0.1329  0.3917 -0.0377
10274TIP3    H152237   5.887   5.071  15.624  0.5648 -0.7015 -0.7865
10274TIP3    H252238   5.867   4.980  15.743  0.3153 -0.2227 -0.4620
10275TIP3   OH252239   3.603   0.861  12.651 -0.0421  0.1469  0.4941
10275TIP3    H152240   3.568   0.915  12.722 -0.9841  0.3294 -0.0865
10275TIP3    H252241   3.535   0.862  12.584  1.1485  0.6550 -0.7751
10276TIP3   OH252242   6.188   5.738  16.525 -0.0431 -1.1247  0.3650
10276TIP3    H152243   6.165   5.791  16.448  0.4706 -2.6781 -0.9289
10276TIP3    H252244   6.282   5.721  16.514  0.2661 -0.5472  1.9013
10277TIP3   OH252245   0.823   1.197  13.981  0.0772 -0.1215  0.2869
10277TIP3    H152246   0.893   1.221  14.041  1.0985  0.8938 -1.2187
10277TIP3    H252247   0.766   1.139  14.031  3.0252 -2.6298  1.0304
10278TIP3   OH252248   2.541   3.741  12.079 -0.0745 -0.0997 -0.4463
10278TIP3    H152249   2.519   3.832  12.098 -1.3347 -0.9895  3.2497
10278TIP3    H252250   2.615   3.722  12.138  0.1635 -1.4673 -1.1492
10279TIP3   OH252251   1.312   3.027  13.905  0.6828 -0.3759 -0.4502
10279TIP3    H152252   1.313   2.931  13.903 -1.6776 -0.4471 -1.0918
10279TIP3    H252253   1.284   3.049  13.993 -3.3198 -0.5260 -1.4802
10280TIP3   OH252254   2.359   5.739   0.796 -0.2634  0.1741 -0.5570
10280TIP3    H152255   2.295   5.721   0.865 -1.1702  1.9153 -0.8859
10280TIP3    H252256   2.369   5.656   0.750 -0.8011 -0.6217  0.7219
10281TIP3   OH252257   0.279   5.000  16.222 -0.3566  0.4150  0.3870
10281TIP3    H152258   0.338   5.028  16.151 -0.9024 -0.0758 -0.2806
10281TIP3    H252259   0.300   5.057  16.295  0.8009  0.3956  0.0883
10282TIP3   OH252260   4.755   5.323  11.238 -0.2773  0.4519  0.0683
10282TIP3    H152261   4.818   5.343  11.169  0.8870  0.8800  1.2141
10282TIP3    H252262   4.749   5.404  11.289 -1.0056  0.0961  0.5578
10283TIP3   OH252263   4.323   2.838  16.730  0.3122  0.2259 -0.0214
10283TIP3    H152264   4.340   2.797  16.645 -0.0116  0.4876 -0.2159
10283TIP3    H252265   4.232   2.816  16.750  0.2019  0.6692 -0.0261
10284TIP3   OH252266   3.950   0.424   3.140  0.2833  0.4864 -0.1643
10284TIP3    H152267   3.944   0.407   3.046  4.2293 -0.2416 -0.4599
10284TIP3    H252268   4.001   0.351   3.174  1.4933  2.2152  1.9857
10285TIP3   OH252269   1.761   5.851  14.507 -0.0618 -1.0091  0.0287
10285TIP3    H152270   1.775   5.945  14.492  0.1708 -1.0729 -0.1526
10285TIP3    H252271   1.821   5.829  14.578  0.1007 -1.0865 -0.1329
10286TIP3   OH252272   4.484   0.146   1.837  0.4224 -0.0033  0.4251
10286TIP3    H152273   4.411   0.085   1.830  0.5054 -0.0200 -0.3745
10286TIP3    H252274   4.561   0.090   1.847  0.3940 -0.0033  0.6441
10287TIP3   OH252275   4.435   2.499   2.450 -0.5918  0.2578 -0.2676
10287TIP3    H152276   4.469   2.584   2.477 -1.8165  0.7265 -0.1533
10287TIP3    H252277   4.468   2.438   2.516  0.7352  0.5319 -0.6390
10288TIP3   OH252278   0.443   1.374   4.914 -0.9311 -0.6393  0.4797
10288TIP3    H152279   0.454   1.422   4.832 -1.8237 -0.0925  0.6711
10288TIP3    H252280   0.352   1.388   4.939 -1.2053 -2.3951  0.5767
10289TIP3   OH252281   0.691   0.404  14.447 -0.3513 -0.0666  0.4715
10289TIP3    H152282   0.729   0.432  14.530  2.1953  2.0559 -1.2494
10289TIP3    H252283   0.757   0.346  14.409 -1.6008 -1.2294  0.0051
10290TIP3   OH252284   1.059   4.748  13.004 -0.5151  0.3582  0.3698
10290TIP3    H152285   1.113   4.824  13.024 -0.7846  0.1761  1.9403
10290TIP3    H252286   1.106   4.702  12.935 -0.3153  1.8967 -0.5520
10291TIP3   OH252287   0.365   2.620   0.527  0.1296  0.7545 -0.5415
10291TIP3    H152288   0.335   2.707   0.554  1.1119  0.9832 -0.1558
10291TIP3    H252289   0.303   2.593   0.459  0.7036  2.3855 -1.7544
10292TIP3   OH252290   1.531   6.452   1.629  0.2081 -0.9074 -0.3949
10292TIP3    H152291   1.582   6.406   1.563  0.6569 -2.6623  1.0920
10292TIP3    H252292   1.464   6.389   1.655 -0.1312 -0.1468  0.6242
10293TIP3   OH252293   0.242   3.639   6.369 -0.5524 -0.0242  0.3896
10293TIP3    H152294   0.290   3.664   6.290 -2.2457  0.5054 -0.5263
10293TIP3    H252295   0.196   3.559   6.345 -2.3567  0.9970  0.2437
10294TIP3   OH252296   2.908   2.064  10.678 -0.1619  0.6693 -0.4766
10294TIP3    H152297   2.839   2.005  10.648  0.0361 -0.4453  1.1402
10294TIP3    H252298   2.987   2.033  10.635 -0.3481  0.8200 -0.9325
10295TIP3   OH252299   6.182   1.093   0.590 -0.1832  0.5638  0.1193
10295TIP3    H152300   6.149   1.025   0.649 -0.1509  0.7942  0.4112
10295TIP3    H252301   6.276   1.077   0.585 -0.1160  0.8120  0.4959
10296TIP3   OH252302   4.522   2.190  11.151 -0.2377 -0.0997  0.0548
10296TIP3    H152303   4.491   2.110  11.193  0.8174 -0.1609  0.7473
10296TIP3    H252304   4.545   2.164  11.062  0.4054 -0.6509  0.3733
10297TIP3   OH252305   3.163   1.421  16.194  0.1204  0.2397  0.0539
10297TIP3    H152306   3.116   1.393  16.273 -0.7781  0.3380 -0.4278
10297TIP3    H252307   3.164   1.516  16.198  1.9231  0.2290  0.9761
10298TIP3   OH252308   5.508   4.543  12.930 -0.2011  0.2265  0.1049
10298TIP3    H152309   5.555   4.597  12.867 -0.6247  0.1014 -0.3256
10298TIP3    H252310   5.575   4.486  12.967  0.2837  1.1404  0.6839
10299TIP3   OH252311   4.374   4.240   3.896  0.3733  0.4850 -0.8257
10299TIP3    H152312   4.421   4.172   3.945  0.0614  0.1488 -0.9876
10299TIP3    H252313   4.358   4.309   3.960  0.6078  0.3652 -0.6351
10300TIP3   OH252314   1.608   6.089  14.320  0.4987 -0.4256  0.2067
10300TIP3    H152315   1.690   6.136  14.326  1.5191 -2.2381  1.4980
10300TIP3    H252316   1.542   6.151  14.351  1.7039  0.3281  1.3680
10301TIP3   OH252317   5.857   3.338  11.426 -0.5332  0.0005 -0.9696
10301TIP3    H152318   5.863   3.433  11.414 -0.2331  0.3397  1.3234
10301TIP3    H252319   5.907   3.302  11.353 -0.1419  1.6261 -1.5680
10302TIP3   OH252320   5.565   6.302   0.589  0.3526  0.4074 -0.6300
10302TIP3    H152321   5.551   6.256   0.506 -2.3042 -0.1615  0.0231
10302TIP3    H252322   5.512   6.381   0.582 -2.7185 -1.2179  1.5876
10303TIP3   OH252323   0.117   1.992  17.170  0.2159  0.2472 -0.0474
10303TIP3    H152324   0.038   2.021  17.125  0.1060 -0.5734 -0.4039
10303TIP3    H252325   0.182   2.061  17.152  0.0837  0.0873 -1.2141
10304TIP3   OH252326   4.714   5.012   2.436  0.0247 -0.1473  0.0508
10304TIP3    H152327   4.644   4.985   2.496  1.4316  0.6146  2.1372
10304TIP3    H252328   4.693   4.968   2.354 -1.4812 -2.0164  1.3461
10305TIP3   OH252329   1.728   3.875  15.151  0.7946  0.6851 -0.1426
10305TIP3    H152330   1.757   3.964  15.171 -0.0688  1.6523 -2.7000
10305TIP3    H252331   1.656   3.887  15.089 -1.2286 -1.7564  1.5426
10306TIP3   OH252332   4.869   3.087   0.295  0.0999 -0.4225  0.3428
10306TIP3    H152333   4.941   3.114   0.237 -0.1312 -0.4665  0.0338
10306TIP3    H252334   4.887   3.132   0.377  0.1393  0.0616  0.0743
10307TIP3   OH252335   2.112   5.047  12.040 -0.2119 -0.3169 -0.1019
10307TIP3    H152336   2.042   4.990  12.072  0.2168  0.2394  1.9612
10307TIP3    H252337   2.101   5.047  11.945 -2.2553 -1.2017  0.0806
10308TIP3   OH252338   4.815   3.448  15.527 -0.3584 -0.0733  0.1725
10308TIP3    H152339   4.905   3.476  15.546  0.0900 -0.4207 -1.2943
10308TIP3    H252340   4.766   3.471  15.605  0.9020  0.6292  0.7931
10309TIP3   OH252341   2.329   5.644  12.832  0.6142  0.0905 -0.0870
10309TIP3    H152342   2.414   5.679  12.857  0.7102  0.5257 -0.9808
10309TIP3    H252343   2.290   5.713  12.777 -1.0696  0.6869  1.7345
10310TIP3   OH252344   0.659   1.587  15.256 -0.1310  0.9746  0.3366
10310TIP3    H152345   0.688   1.542  15.335  2.1823  0.9173 -0.4648
10310TIP3    H252346   0.661   1.680  15.280 -0.3364  0.9117  0.6047
10311TIP3   OH252347   6.611   1.499   1.360  0.7017  0.0801 -0.0378
10311TIP3    H152348   6.584   1.513   1.269 -1.9211 -1.2042  0.4644
10311TIP3    H252349   6.585   1.579   1.405  0.6818  0.1381 -0.1521
10312TIP3   OH252350   1.255   3.272   3.302 -0.8326 -0.3276 -0.0723
10312TIP3    H152351   1.203   3.344   3.338  0.1546  0.0250  0.6805
10312TIP3    H252352   1.229   3.196   3.353 -1.9348 -0.5471 -0.9194
10313TIP3   OH252353   1.174   3.273  17.314  0.4317 -0.5027 -0.1807
10313TIP3    H152354   1.116   3.337  17.273 -0.2756 -1.6644 -1.0809
10313TIP3    H252355   1.228   3.240  17.242  0.2465 -1.4608  0.1006
10314TIP3   OH252356   4.821   5.308   0.796 -0.1354  0.2983  0.0982
10314TIP3    H152357   4.848   5.294   0.705  0.2734  3.7361 -0.4269
10314TIP3    H252358   4.725   5.312   0.792 -0.1028  0.8207 -0.2742
10315TIP3   OH252359   6.167   4.043   5.377 -1.0789 -0.2657 -0.6270
10315TIP3    H152360   6.143   4.135   5.388 -1.2369 -0.2377 -1.1856
10315TIP3    H252361   6.095   3.995   5.418 -0.4249 -0.1343  0.7276
10316TIP3   OH252362   5.314   2.853   1.619  0.1605 -0.5574 -0.3798
10316TIP3    H152363   5.304   2.885   1.708 -0.3103  1.8074 -1.2038
10316TIP3    H252364   5.338   2.761   1.629  1.0167 -0.1411  2.1756
10317TIP3   OH252365   0.469   0.838  14.186  0.3299  0.0681 -0.4047
10317TIP3    H152366   0.519   0.770  14.231  0.6879  0.3800 -0.3229
10317TIP3    H252367   0.386   0.844  14.234  0.6695  0.3333  0.1644
10318TIP3   OH252368   4.039   4.942  14.259 -0.2873 -0.0456  0.4522
10318TIP3    H152369   4.116   4.993  14.232  0.0014 -0.6010  0.2264
10318TIP3    H252370   4.068   4.851  14.258 -1.0283 -0.2861  0.0980
10319TIP3   OH252371   5.109   3.656  11.811 -0.2036  0.0240 -0.3403
10319TIP3    H152372   5.167   3.640  11.885 -2.0345  1.9468  1.6533
10319TIP3    H252373   5.035   3.596  11.825 -1.6486  1.9462  0.7929
10320TIP3   OH252374   2.824   0.372  12.468 -0.2011 -0.1038 -0.0806
10320TIP3    H152375   2.782   0.332  12.544 -2.5737 -0.4981 -1.4687
10320TIP3    H252376   2.890   0.309  12.441 -0.9617 -1.0930  0.2958
10321TIP3   OH252377   1.862   1.585  15.323 -0.2750 -0.3443  0.3206
10321TIP3    H152378   1.823   1.670  15.344  2.9006  0.9324  1.8499
10321TIP3    H252379   1.920   1.603  15.249 -0.2457 -1.4337  0.0643
10322TIP3   OH252380   3.375   1.002  16.963 -0.3708 -0.3417 -0.3964
10322TIP3    H152381   3.312   1.000  17.035  1.0547  1.5476  1.0013
10322TIP3    H252382   3.353   1.081  16.914  0.4223 -0.1080 -0.3820
10323TIP3   OH252383   0.503   2.407  13.757  0.4407  0.0820  0.3711
10323TIP3    H152384   0.507   2.318  13.792  0.0965 -0.5633 -1.1622
10323TIP3    H252385   0.438   2.402  13.687  0.3126  1.5882  0.3566
10324TIP3   OH252386   1.901   3.966  14.798 -0.3963  0.0269  0.1434
10324TIP3    H152387   1.895   3.915  14.717 -2.7549 -0.8440  0.7907
10324TIP3    H252388   1.970   3.923  14.848 -2.1309 -2.4668  0.5474
10325TIP3   OH252389   6.247   0.841  10.969 -0.0328  0.5613 -0.3763
10325TIP3    H152390   6.190   0.918  10.974  0.5708  0.9639  0.6266
10325TIP3    H252391   6.201   0.781  10.911  0.2055  2.2915 -2.5171
10326TIP3   OH252392   5.943   4.570   4.582 -0.1686 -0.1104  0.2826
10326TIP3    H152393   6.029   4.585   4.543 -0.3577 -2.7546 -1.3725
10326TIP3    H252394   5.953   4.491   4.635 -1.6956 -0.8029 -0.4110
10327TIP3   OH252395   3.177   1.796   5.827  0.6536 -0.3707 -0.0236
10327TIP3    H152396   3.206   1.767   5.913  0.4866 -0.6211 -0.0515
10327TIP3    H252397   3.142   1.884   5.843 -0.4392 -0.8530  0.3864
10328TIP3   OH252398   1.031   4.471   6.214  0.0263  0.5848 -0.1430
10328TIP3    H152399   1.072   4.459   6.299 -1.1437  0.6503  0.4541
10328TIP3    H252400   0.974   4.547   6.225 -0.2096  0.5382 -0.9532
10329TIP3   OH252401   3.220   6.022   0.602 -0.2544 -0.1716 -0.3409
10329TIP3    H152402   3.303   6.062   0.577 -0.0746 -0.5737 -0.3934
10329TIP3    H252403   3.235   5.986   0.689 -0.9510  1.4297  0.4793
10330TIP3   OH252404   4.543   1.435  12.504 -0.1751  0.6701  0.8854
10330TIP3    H152405   4.507   1.406  12.420  0.0704  0.9567  0.6783
10330TIP3    H252406   4.573   1.355  12.547  2.4044  0.7486 -0.5673
10331TIP3   OH252407   0.567   6.549  16.339 -0.1960 -0.0917 -0.2632
10331TIP3    H152408   0.473   6.536  16.348 -0.2865  1.3987  1.3461
10331TIP3    H252409   0.575   6.626  16.282  0.0627 -0.3199 -0.5403
10332TIP3   OH252410   5.465   2.935   3.919 -0.4890 -0.1631  0.7767
10332TIP3    H152411   5.520   2.867   3.958 -1.2784 -0.9185  0.6034
10332TIP3    H252412   5.526   2.990   3.870 -0.0419 -1.7263 -0.4824
10333TIP3   OH252413   2.582   4.382  12.856 -0.5314  0.2769 -0.5393
10333TIP3    H152414   2.511   4.446  12.861  1.1879  2.2449  0.0978
10333TIP3    H252415   2.633   4.409  12.780  0.7325  0.2532  0.2714
10334TIP3   OH252416   0.717   1.626  16.004 -0.1842  0.9959  0.5910
10334TIP3    H152417   0.716   1.717  16.031 -0.6940  1.1415  0.0994
10334TIP3    H252418   0.656   1.622  15.930 -0.7569  0.1023  1.0987
10335TIP3   OH252419   3.478   0.191  12.988 -0.2200 -0.2092  0.5197
10335TIP3    H152420   3.403   0.141  13.019 -0.3662  0.1830  0.8165
10335TIP3    H252421   3.448   0.233  12.908  0.7658 -2.7953 -1.3386
10336TIP3   OH252422   1.539   3.636  17.203  0.3444  0.1765 -0.1722
10336TIP3    H152423   1.582   3.659  17.285 -2.7838 -0.8715  1.9311
10336TIP3    H252424   1.606   3.590  17.153  2.5177  1.3312  1.5229
10337TIP3   OH252425   3.794   4.169  17.259  0.1218  0.1018  0.2976
10337TIP3    H152426   3.838   4.241  17.214  4.2819 -3.4125 -2.0662
10337TIP3    H252427   3.859   4.137  17.321 -1.2804 -2.0451  0.7533
10338TIP3   OH252428   1.410   2.398  14.771 -0.0606 -0.3226 -0.2279
10338TIP3    H152429   1.475   2.340  14.729  1.4842  1.6066 -0.6382
10338TIP3    H252430   1.351   2.422  14.700  0.5486  0.2439 -0.5592
10339TIP3   OH252431   6.244   1.536  15.548 -0.4173  0.2028  0.2821
10339TIP3    H152432   6.229   1.553  15.455  1.8612  0.2992 -0.1244
10339TIP3    H252433   6.250   1.440  15.554  1.5836  0.2723 -0.0943
10340TIP3   OH252434   1.064   0.454   5.462  0.6849 -0.4951 -0.1065
10340TIP3    H152435   1.101   0.443   5.374 -0.3005  0.2853 -0.6450
10340TIP3    H252436   0.976   0.417   5.456 -0.3736  1.8550 -0.2293
10341TIP3   OH252437   4.956   5.330  15.862 -0.1306 -0.2207  0.5059
10341TIP3    H152438   5.049   5.326  15.883  0.1198 -1.4002 -0.6784
10341TIP3    H252439   4.920   5.393  15.925  1.3966  0.0320  1.1813
10342TIP3   OH252440   6.303   1.062  12.214 -0.0604 -0.3104  0.7860
10342TIP3    H152441   6.330   0.973  12.192  0.0848  0.5940 -3.4999
10342TIP3    H252442   6.382   1.105  12.246  1.2467 -0.4612 -1.9874
10343TIP3   OH252443   0.055   2.371   4.561 -0.5685 -0.6760  0.8577
10343TIP3    H152444  -0.027   2.390   4.607  0.1774 -0.6520  2.2333
10343TIP3    H252445   0.031   2.370   4.468 -1.6066  2.0522  1.0070
10344TIP3   OH252446   3.095   0.498  12.954 -0.1518  0.3884  0.1420
10344TIP3    H152447   3.033   0.499  12.881 -0.7170  0.5688  0.6091
10344TIP3    H252448   3.106   0.591  12.977 -0.5602  0.2894  0.7570
10345TIP3   OH252449   0.137   6.162  14.887  0.1317  0.4466  0.0575
10345TIP3    H152450   0.213   6.106  14.899  1.0136  2.0212  2.5817
10345TIP3    H252451   0.062   6.105  14.906  0.9866 -0.0208  2.2847
10346TIP3   OH252452   6.726   3.071   2.183 -0.0029  0.1526 -0.4961
10346TIP3    H152453   6.653   3.133   2.192  0.9673  1.2958 -0.1627
10346TIP3    H252454   6.687   2.993   2.144 -1.4745  0.5937  0.0076
10347TIP3   OH252455   6.587   6.460  17.258 -0.1330  0.0918 -0.1534
10347TIP3    H152456   6.554   6.549  17.267 -0.7265 -0.2907  2.1498
10347TIP3    H252457   6.524   6.416  17.201 -2.4148  0.0309  2.2352
10348TIP3   OH252458   6.348   0.664   6.670 -0.5888  0.1641 -0.0947
10348TIP3    H152459   6.424   0.644   6.725 -1.3372  2.8042  2.1785
10348TIP3    H252460   6.274   0.666   6.732 -2.0463  0.2939 -1.7688
10349TIP3   OH252461   1.880   1.893   4.145 -0.2212  0.1495  1.0803
10349TIP3    H152462   1.920   1.919   4.227  0.9482  0.6382  0.3752
10349TIP3    H252463   1.884   1.971   4.090  2.6006 -1.1225 -0.7935
10350TIP3   OH252464   2.752   5.522  12.612 -0.8799 -0.0153  0.0642
10350TIP3    H152465   2.751   5.528  12.516 -2.3735 -0.6276  0.0186
10350TIP3    H252466   2.757   5.428  12.630 -2.9092 -0.0655  0.5524
10351TIP3   OH252467   2.130   4.266  11.865  0.5961  0.0565 -1.2110
10351TIP3    H152468   2.094   4.210  11.934 -2.3029  1.7190 -1.2086
10351TIP3    H252469   2.149   4.206  11.793 -0.3224 -1.2289 -0.4298
10352TIP3   OH252470   1.147   5.973   1.823  0.4489 -0.0303  0.4459
10352TIP3    H152471   1.181   5.946   1.908 -0.5366 -1.7006  0.3519
10352TIP3    H252472   1.147   5.893   1.770  0.3603  0.8229 -0.8932
10353TIP3   OH252473   5.910   3.999  12.590 -0.0708 -0.1328 -0.4581
10353TIP3    H152474   5.931   4.040  12.675 -1.6318 -0.6500  0.2215
10353TIP3    H252475   5.953   4.055  12.526  0.7456  0.5631  0.6436
10354TIP3   OH252476   6.677   4.554   4.033  0.2906 -0.2638 -0.0697
10354TIP3    H152477   6.725   4.603   3.967  0.1619  0.0274  0.0514
10354TIP3    H252478   6.610   4.507   3.984 -0.9181  1.2929  0.0259
10355TIP3   OH252479   6.150   4.301  13.063  1.3472 -0.4516 -0.0315
10355TIP3    H152480   6.087   4.271  13.128  2.6658 -3.1830  0.1103
10355TIP3    H252481   6.141   4.396  13.063 -1.4941 -0.6315  1.2126
10356TIP3   OH252482   5.099   1.820   3.211  0.5061 -0.0895 -0.0774
10356TIP3    H152483   5.077   1.758   3.280 -1.2462 -1.5530 -1.8551
10356TIP3    H252484   5.173   1.870   3.247  1.2652 -2.4034  1.8744
10357TIP3   OH252485   3.364   3.517  16.193 -0.3562  0.3680 -0.0984
10357TIP3    H152486   3.423   3.442  16.197 -0.4006  0.3105 -0.5739
10357TIP3    H252487   3.281   3.481  16.163 -0.2357  0.6865 -0.8392
10358TIP3   OH252488   1.987   0.379   5.494 -0.2143  0.0795  0.5075
10358TIP3    H152489   1.973   0.382   5.588 -0.6353 -0.7217  0.4829
10358TIP3    H252490   2.070   0.332   5.483 -0.5993 -0.6053  0.4607
10359TIP3   OH252491   2.474   0.572  11.830  0.6705  0.4247  0.1147
10359TIP3    H152492   2.515   0.487  11.849  0.4951  0.3776  0.2833
10359TIP3    H252493   2.388   0.550  11.795 -0.6717  0.5352  3.0636
10360TIP3   OH252494   6.208   5.141  12.487 -0.1257 -0.0634 -0.1205
10360TIP3    H152495   6.186   5.233  12.473  0.6386  0.2130  0.4134
10360TIP3    H252496   6.286   5.127  12.434 -0.6868 -0.6317 -0.8260
10361TIP3   OH252497   3.265   0.407  12.071 -0.2151  0.6537 -1.0949
10361TIP3    H152498   3.276   0.491  12.116  0.0665 -0.0580  0.2198
10361TIP3    H252499   3.352   0.368  12.071 -0.9173 -1.2207  1.6339
10362TIP3   OH252500   2.093   1.535   4.544  0.0210  0.1362 -0.1936
10362TIP3    H152501   2.012   1.576   4.576  0.7843  1.6624 -0.1311
10362TIP3    H252502   2.078   1.441   4.555 -1.2246  0.4445  1.0641
10363TIP3   OH252503   6.316   5.642   1.785  0.0299  0.4570 -0.1445
10363TIP3    H152504   6.371   5.684   1.852  0.6000 -1.9949  1.0614
10363TIP3    H252505   6.248   5.597   1.835  1.1113 -2.3504 -1.0367
10364TIP3   OH252506   2.706   4.909  12.160 -0.3203  0.0477  0.1344
10364TIP3    H152507   2.755   4.970  12.215 -1.9637 -0.3638  2.1512
10364TIP3    H252508   2.617   4.910  12.195 -0.9191 -1.8648 -1.1631
10365TIP3   OH252509   1.868   4.644   0.605  0.0413  0.0293  0.2914
10365TIP3    H152510   1.842   4.636   0.514  0.3580 -1.2700  0.2995
10365TIP3    H252511   1.946   4.701   0.603  0.3549 -0.4120 -0.3047
10366TIP3   OH252512   3.661   3.502   0.084 -0.1159 -0.2656  0.2349
10366TIP3    H152513   3.689   3.413   0.108  0.0820 -0.4101 -0.5054
10366TIP3    H252514   3.739   3.541   0.044 -0.7575 -0.4346 -1.2315
10367TIP3   OH252515   2.888   1.536   3.046  0.1383 -1.1523  0.7136
10367TIP3    H152516   2.960   1.474   3.060  1.8852  0.9211  1.4445
10367TIP3    H252517   2.888   1.551   2.952 -0.3471 -2.2579  0.5151
10368TIP3   OH252518   3.587   3.298   4.091 -0.2263 -0.4973  0.4090
10368TIP3    H152519   3.614   3.336   4.008  0.5793  0.9718  1.3099
10368TIP3    H252520   3.660   3.242   4.117  0.1271  0.1305  0.7848
10369TIP3   OH252521   4.730   1.448   0.190  0.8662 -0.0095 -0.2068
10369TIP3    H152522   4.804   1.474   0.244  0.7229 -1.9583  1.0423
10369TIP3    H252523   4.766   1.384   0.129  0.2426 -1.1049  0.5247
10370TIP3   OH252524   5.868   1.964  10.463 -0.3478 -0.2995  0.2974
10370TIP3    H152525   5.876   2.039  10.521 -1.5233 -0.2014  0.3527
10370TIP3    H252526   5.905   1.891  10.514  0.1148  0.0893  0.5292
10371TIP3   OH252527   1.921   4.545  11.482  0.3741  0.3153  0.1943
10371TIP3    H152528   1.844   4.592  11.514 -0.5082 -1.5876  1.0488
10371TIP3    H252529   1.903   4.532  11.389  0.8677  2.0274 -0.1711
10372TIP3   OH252530   1.876   1.279   3.173  0.1249 -0.1360  0.6696
10372TIP3    H152531   1.933   1.291   3.248 -0.6177 -1.7641  1.5599
10372TIP3    H252532   1.836   1.193   3.187  1.7935 -1.6821 -2.8200
10373TIP3   OH252533   0.222   1.898  11.085  0.0775  0.1567 -0.0816
10373TIP3    H152534   0.266   1.837  11.026 -2.5379 -2.2932  0.3006
10373TIP3    H252535   0.133   1.905  11.050 -0.3279  2.0940  1.1620
10374TIP3   OH252536   4.705   2.797  11.754 -0.6481  0.0952  0.6776
10374TIP3    H152537   4.650   2.856  11.702  0.1968  1.8833  1.7555
10374TIP3    H252538   4.780   2.778  11.698  0.0972  1.7556  1.0557
10375TIP3   OH252539   6.539   0.636  11.950 -0.0373 -0.2526  0.6815
10375TIP3    H152540   6.461   0.622  11.896  1.9571 -1.8624 -2.0395
10375TIP3    H252541   6.561   0.728  11.937 -0.9104 -0.0240  0.7238
10376TIP3   OH252542   6.024   4.136  12.160  0.3705 -0.5102 -0.4547
10376TIP3    H152543   6.007   4.054  12.113  0.2894 -0.0864 -1.1776
10376TIP3    H252544   5.944   4.152  12.210  0.0645 -0.4365 -0.9642
10377TIP3   OH252545   3.754   2.358   1.336  0.2979 -0.4247 -0.1648
10377TIP3    H152546   3.795   2.376   1.421 -1.2142  1.0875  0.3117
10377TIP3    H252547   3.827   2.347   1.275  1.4078  0.4624  0.9674
10378TIP3   OH252548   5.873   1.108  11.536 -0.2509  0.0352 -0.1834
10378TIP3    H152549   5.882   1.194  11.577 -1.2490 -1.0743  2.6102
10378TIP3    H252550   5.788   1.112  11.491 -0.7787  0.2080  0.8000
10379TIP3   OH252551   4.740   1.241   6.399  0.1716  0.2362 -0.5863
10379TIP3    H152552   4.772   1.170   6.456 -0.0658  1.1970  0.7939
10379TIP3    H252553   4.689   1.297   6.457  2.2816  2.8637 -1.0572
10380TIP3   OH252554   2.311   2.003  13.331  0.5043 -0.2709  0.6021
10380TIP3    H152555   2.269   2.064  13.392 -0.8668  1.8505 -2.2671
10380TIP3    H252556   2.240   1.947  13.299  1.1645 -1.2011  0.7028
10381TIP3   OH252557   5.460   4.393   5.310 -0.5532 -0.0570  0.3182
10381TIP3    H152558   5.409   4.438   5.243 -0.3155 -0.2199  0.0229
10381TIP3    H252559   5.518   4.460   5.345  0.9410 -0.4401 -1.2326
10382TIP3   OH252560   1.083   0.611  13.115 -0.1648 -0.6267  0.0797
10382TIP3    H152561   0.997   0.569  13.107 -0.6441  0.0307  1.4857
10382TIP3    H252562   1.063   0.704  13.119  0.7011 -0.4070 -0.5613
10383TIP3   OH252563   3.942   4.317  16.202  0.1720 -0.6381 -0.1488
10383TIP3    H152564   3.999   4.300  16.127 -0.1892 -0.2558 -0.5125
10383TIP3    H252565   3.927   4.411  16.200 -2.9747 -1.0444 -1.8920
10384TIP3   OH252566   2.593   3.349  15.853  0.3797  0.0357 -0.6528
10384TIP3    H152567   2.654   3.306  15.793  1.5420  1.2873 -0.4334
10384TIP3    H252568   2.506   3.325  15.821  0.9499  0.6815 -2.8606
10385TIP3   OH252569   4.680   3.045  15.366 -0.5201  0.3233  0.5308
10385TIP3    H152570   4.656   3.000  15.285  2.1926  0.0335 -0.1784
10385TIP3    H252571   4.701   2.975  15.428  0.5232  0.5490  0.4516
10386TIP3   OH252572   5.291   0.172  12.357 -0.5751  0.3299 -0.0118
10386TIP3    H152573   5.290   0.227  12.279 -0.4682  0.6867  0.2346
10386TIP3    H252574   5.333   0.090  12.329 -3.2128 -0.7466 -1.1211
10387TIP3   OH252575   6.006   6.043   4.610  0.2559  0.2829 -0.0319
10387TIP3    H152576   6.092   6.067   4.644  1.2171 -0.1070 -2.0142
10387TIP3    H252577   6.023   6.017   4.519 -1.8369 -0.6536 -0.2084
10388TIP3   OH252578   4.104   3.917   2.154 -0.1689 -0.2877 -0.3303
10388TIP3    H152579   4.094   3.971   2.232 -1.9188  0.7866 -1.2323
10388TIP3    H252580   4.199   3.909   2.142  0.1650  2.1912  0.1261
10389TIP3   OH252581   3.034   3.202   4.276 -0.1883  0.5300  0.0450
10389TIP3    H152582   3.081   3.284   4.260  0.4786  0.1865  0.1948
10389TIP3    H252583   2.949   3.230   4.310  0.7061  1.1646  1.9319
10390TIP3   OH252584   5.807   5.183   3.822  0.2314  0.3427  1.0308
10390TIP3    H152585   5.735   5.132   3.784 -0.3506  1.8570 -0.0170
10390TIP3    H252586   5.808   5.264   3.771  3.4539 -0.0791  0.2323
10391TIP3   OH252587   0.263   3.424   5.669 -0.3754 -0.1374 -0.2258
10391TIP3    H152588   0.346   3.424   5.621  0.3735 -0.4560  1.0176
10391TIP3    H252589   0.258   3.511   5.708 -0.1551 -0.4327  0.4698
10392TIP3   OH252590   6.579   5.290  13.497 -0.0361 -0.0284 -0.6338
10392TIP3    H152591   6.515   5.220  13.507  1.2753 -1.2654 -0.5949
10392TIP3    H252592   6.585   5.329  13.584 -0.9759  0.3405 -0.7200
10393TIP3   OH252593   1.191   4.330   5.025  0.4613  0.4090 -0.4409
10393TIP3    H152594   1.249   4.267   4.983  0.2560 -0.0928  0.0283
10393TIP3    H252595   1.135   4.278   5.082  1.5159  1.1815  1.4079
10394TIP3   OH252596   2.010   3.659  15.734 -0.3599  0.1260 -0.1123
10394TIP3    H152597   2.058   3.714  15.671 -2.8428  1.4602 -1.0084
10394TIP3    H252598   1.991   3.579  15.685 -0.3393  0.2153 -0.2692
10395TIP3   OH252599   1.219   2.280  13.970 -0.0837 -0.6904 -0.8609
10395TIP3    H152600   1.309   2.250  13.981 -0.2131 -0.9079 -0.4120
10395TIP3    H252601   1.178   2.213  13.916  0.1047 -0.4392 -1.3211
10396TIP3   OH252602   2.818   6.021  13.234 -0.2523  0.2265 -0.4816
10396TIP3    H152603   2.787   5.942  13.279  1.2733 -0.1337  0.0170
10396TIP3    H252604   2.825   5.995  13.142  0.1931 -0.2242 -0.3266
10397TIP3   OH252605   6.558   1.044   0.151 -0.0772  0.8456  0.3864
10397TIP3    H152606   6.649   1.018   0.137  0.1439  0.2540  2.4793
10397TIP3    H252607   6.547   1.123   0.099  0.8411 -0.4748 -1.9368
10398TIP3   OH252608   4.114   5.259   4.400  0.5818  0.0656  0.5838
10398TIP3    H152609   4.114   5.224   4.311  0.2350  0.3495  0.4703
10398TIP3    H252610   4.028   5.237   4.435  0.8342 -0.3344  0.9670
10399TIP3   OH252611   4.052   0.248  11.643 -0.0551 -0.6263 -0.0549
10399TIP3    H152612   4.036   0.233  11.736 -0.0578 -1.1358 -0.1314
10399TIP3    H252613   4.105   0.327  11.639 -1.8661  0.6636  0.2586
10400TIP3   OH252614   4.822   1.136   1.284 -0.1307 -0.0379  0.4827
10400TIP3    H152615   4.794   1.089   1.205 -0.8188  0.6850  0.2813
10400TIP3    H252616   4.798   1.077   1.356 -1.2938  0.1159  0.2529
10401TIP3   OH252617   2.117   3.493   2.257  0.0716 -0.0750  0.2999
10401TIP3    H152618   2.156   3.410   2.233  1.0031  0.4078  0.0981
10401TIP3    H252619   2.190   3.547   2.286 -0.6162  0.4166  1.2027
10402TIP3   OH252620   1.053   4.371  12.340 -0.0827 -0.0242  0.3213
10402TIP3    H152621   0.990   4.365  12.269  0.0530 -3.3612  0.3312
10402TIP3    H252622   1.110   4.443  12.315 -2.7132  1.8862 -0.6031
10403TIP3   OH252623   6.008   1.888  10.870  0.4231 -0.4391 -0.6304
10403TIP3    H152624   6.060   1.968  10.860 -1.3810  1.3246  2.2037
10403TIP3    H252625   6.065   1.827  10.917  0.4679  1.0084  1.3541
10404TIP3   OH252626   0.759   3.982  15.994  0.1262 -0.6975  0.6012
10404TIP3    H152627   0.822   4.040  15.953  0.4826 -0.7128  1.1100
10404TIP3    H252628   0.779   3.987  16.088 -0.4922 -0.8616  0.7524
10405TIP3   OH252629   2.364   3.168  12.475  0.7304  0.1977 -0.2717
10405TIP3    H152630   2.370   3.072  12.481 -0.8533  0.1205  0.4122
10405TIP3    H252631   2.429   3.200  12.538  0.5696 -0.4372  0.2275
10406TIP3   OH252632   6.598   6.777   4.539 -0.1898 -0.4509 -0.5060
10406TIP3    H152633   6.503   6.775   4.548 -0.1749 -0.7147 -0.3889
10406TIP3    H252634   6.616   6.739   4.453 -0.2947  1.4593 -1.4301
10407TIP3   OH252635   4.032   6.195  12.491  0.1196  0.0653 -0.1071
10407TIP3    H152636   4.024   6.233  12.403 -2.5590  1.4785  0.6265
10407TIP3    H252637   3.942   6.171  12.514  0.6983  0.0406  2.3807
10408TIP3   OH252638   4.338   0.963   1.311 -0.2670  0.1880  0.1377
10408TIP3    H152639   4.258   0.915   1.333 -1.0565  1.6590  0.6225
10408TIP3    H252640   4.408   0.909   1.347 -1.1571 -0.2925  1.2371
10409TIP3   OH252641   4.128   6.556   5.586  0.1977 -0.4050  0.9006
10409TIP3    H152642   4.040   6.567   5.550 -0.3760 -2.2873  1.5739
10409TIP3    H252643   4.141   6.631   5.644 -0.8130  0.0803  0.5111
10410TIP3   OH252644   5.468   0.193  17.281  0.0865  0.8216 -0.0279
10410TIP3    H152645   5.446   0.259  17.216  0.2703  2.6981  1.6977
10410TIP3    H252646   5.440   0.231  17.364  0.3488 -1.2264  1.0675
10411TIP3   OH252647   1.187   3.970   1.912 -0.2257  0.3224 -0.7921
10411TIP3    H152648   1.275   3.936   1.897  0.1179  0.6809  0.3264
10411TIP3    H252649   1.173   4.033   1.841  0.5058  0.4279 -0.8461
10412TIP3   OH252650   2.404   0.892  16.805  0.6637  0.3042 -0.0838
10412TIP3    H152651   2.389   0.891  16.711  0.7821  1.2545 -0.1170
10412TIP3    H252652   2.358   0.969  16.837 -0.9477 -0.9903  0.9304
10413TIP3   OH252653   2.632   3.888  16.770  0.4888  0.5371 -0.0254
10413TIP3    H152654   2.708   3.884  16.712 -0.2499 -1.1793 -0.9295
10413TIP3    H252655   2.570   3.824  16.734 -1.2027  1.5388  0.9653
10414TIP3   OH252656   2.891   2.222  16.339  0.0994  0.4448 -0.0567
10414TIP3    H152657   2.896   2.317  16.343  0.8526  0.3579  2.1976
10414TIP3    H252658   2.952   2.191  16.406 -2.1959 -1.5388  1.3188
10415TIP3   OH252659   1.967   1.838   3.680  0.0056  0.2089  0.0066
10415TIP3    H152660   1.910   1.850   3.605 -0.1222  2.0907  0.3616
10415TIP3    H252661   1.912   1.794   3.745 -1.1770  2.1740  0.4182
10416TIP3   OH252662   4.623   4.620  13.923  0.1986  0.4461  0.3182
10416TIP3    H152663   4.560   4.617  13.851 -1.0442 -0.6827  1.4090
10416TIP3    H252664   4.670   4.702  13.910 -1.6380  1.4323 -0.3917
10417TIP3   OH252665   6.483   3.134  12.551 -1.0259  0.2482 -0.0323
10417TIP3    H152666   6.488   3.214  12.498 -0.1275 -0.4958 -1.1209
10417TIP3    H252667   6.489   3.063  12.487 -2.4535 -0.7194  0.8509
10418TIP3   OH252668   4.982   4.245  14.946 -0.0081  0.1441  0.4041
10418TIP3    H152669   5.017   4.318  14.997  0.9342  0.9275 -1.3014
10418TIP3    H252670   4.984   4.276  14.856  0.1165 -1.8881 -0.3289
10419TIP3   OH252671   5.229   4.865  14.646  0.1674  0.0330 -0.5566
10419TIP3    H152672   5.224   4.956  14.678  0.3747 -0.6811  1.7190
10419TIP3    H252673   5.321   4.842  14.656  0.3954 -0.0102 -2.4981
10420TIP3   OH252674   5.480   0.148   4.125 -0.3105 -0.4449  0.5369
10420TIP3    H152675   5.465   0.163   4.032 -2.0566 -0.0975  0.8265
10420TIP3    H252676   5.486   0.236   4.163  0.1757 -0.5816  0.7797
10421TIP3   OH252677   4.409   3.666  13.989  0.1586 -0.1144  0.6648
10421TIP3    H152678   4.460   3.623  14.058  2.8633  0.2777 -0.9526
10421TIP3    H252679   4.327   3.616  13.986  0.1389 -0.4775  3.7249
10422TIP3   OH252680   0.179   1.362  15.067  0.4395 -0.0120 -0.2353
10422TIP3    H152681   0.190   1.273  15.035  1.5592  0.2665 -0.6510
10422TIP3    H252682   0.166   1.415  14.988  0.2390  0.2683 -0.0203
10423TIP3   OH252683   2.994   1.442  11.914 -0.0041  0.4592  0.6911
10423TIP3    H152684   2.904   1.418  11.892 -0.2314  1.3245  0.6327
10423TIP3    H252685   3.041   1.439  11.830  0.5108 -1.8795  0.9841
10424TIP3   OH252686   0.408   3.913   2.429 -0.3524  0.1759 -0.5640
10424TIP3    H152687   0.421   3.878   2.341  0.7031  1.2554 -0.8597
10424TIP3    H252688   0.418   4.008   2.419 -2.5316  0.5528  0.3190
10425TIP3   OH252689   3.027   4.599  16.392 -0.3609 -0.0484 -0.0538
10425TIP3    H152690   3.004   4.538  16.322 -1.5474  0.7980 -0.4236
10425TIP3    H252691   2.955   4.661  16.395  0.6593  1.1628  0.5315
10426TIP3   OH252692   2.110   3.885   2.078 -0.3689  1.0527  0.1859
10426TIP3    H152693   2.177   3.874   2.146 -0.3566  3.3857  0.6386
10426TIP3    H252694   2.159   3.899   1.998 -0.3612 -2.8788 -0.7180
10427TIP3   OH252695   3.438   1.384   1.312  0.0160  0.2778  0.2780
10427TIP3    H152696   3.413   1.462   1.362  0.1740 -0.2536  1.2139
10427TIP3    H252697   3.440   1.314   1.377 -1.8841 -0.8984 -0.8502
10428TIP3   OH252698   5.615   3.465   1.350 -0.0276 -0.6069 -0.1170
10428TIP3    H152699   5.539   3.511   1.385 -0.6734 -1.7536  0.0233
10428TIP3    H252700   5.590   3.446   1.259  1.5694  2.2221 -1.2922
10429TIP3   OH252701   6.680   0.492  11.422  0.6599 -0.5771 -0.2822
10429TIP3    H152702   6.606   0.540  11.457  0.4159 -0.8393 -0.4343
10429TIP3    H252703   6.658   0.400  11.436  0.1710 -0.7299 -1.8789
10430TIP3   OH252704   0.336   5.383   3.885  0.3740  0.7166  0.0254
10430TIP3    H152705   0.305   5.471   3.865  2.2452  1.4048  0.0104
10430TIP3    H252706   0.395   5.394   3.959  0.4248 -0.5664  0.2047
10431TIP3   OH252707   0.263   5.641   3.859  0.3885 -0.1264 -0.5832
10431TIP3    H152708   0.351   5.672   3.838  1.1591 -0.0389  2.3007
10431TIP3    H252709   0.216   5.720   3.887  0.0799 -0.4662 -0.1187
10432TIP3   OH252710   4.389   6.737   4.634 -0.6317 -0.2317  0.0560
10432TIP3    H152711   4.461   6.684   4.669  0.2682  1.4109  0.8145
10432TIP3    H252712   4.356   6.687   4.560  1.3556 -0.9975 -0.3734
10433TIP3   OH252713   2.744   2.541   2.130  0.1373  0.0638 -0.3147
10433TIP3    H152714   2.818   2.523   2.188  0.3584  0.3512 -0.5062
10433TIP3    H252715   2.667   2.538   2.188  0.5723  3.1590  0.5990
10434TIP3   OH252716   0.339   6.121   2.719  0.6955  0.2042 -0.0377
10434TIP3    H152717   0.264   6.171   2.688 -0.0455 -0.8125  0.0652
10434TIP3    H252718   0.375   6.080   2.641  1.1200  0.6378 -0.0774
10435TIP3   OH252719   4.209   3.718   1.051 -0.0866  0.7354  0.0319
10435TIP3    H152720   4.256   3.705   0.969  0.6284  2.0136  0.2181
10435TIP3    H252721   4.199   3.630   1.087  0.5880  0.2732 -0.8742
10436TIP3   OH252722   3.023   5.978  11.818  0.2349  0.2473 -0.1540
10436TIP3    H152723   2.954   5.911  11.814  2.0168 -1.6242 -1.6790
10436TIP3    H252724   2.982   6.055  11.779 -0.7497 -1.1123 -2.0308
10437TIP3   OH252725   2.300   1.517  16.934 -0.3325 -0.7499 -0.3908
10437TIP3    H152726   2.210   1.532  16.906  0.5683 -0.6776 -3.7755
10437TIP3    H252727   2.293   1.455  17.006 -3.1191  0.4734  0.5199
10438TIP3   OH252728   6.551   5.331  13.796  0.2075 -0.4362  0.5513
10438TIP3    H152729   6.582   5.405  13.848  1.4765 -1.4231  1.2335
10438TIP3    H252730   6.489   5.286  13.853  0.8444 -0.9508  0.8441
10439TIP3   OH252731   0.933   0.648  16.804 -0.0682  0.4061 -0.1144
10439TIP3    H152732   0.993   0.574  16.817 -1.7333 -0.6968  1.7224
10439TIP3    H252733   0.979   0.723  16.842  1.8348  0.5203 -2.3947
10440TIP3   OH252734   6.742   4.414  13.861  0.3510  0.2849 -0.1704
10440TIP3    H152735   6.752   4.396  13.954  1.3583  2.6550  0.2435
10440TIP3    H252736   6.658   4.373  13.838 -0.3969  0.4535  2.0033
10441TIP3   OH252737   0.633   2.733   1.216  0.3823 -0.2804  0.0459
10441TIP3    H152738   0.688   2.673   1.165  0.2837 -0.7450  0.4813
10441TIP3    H252739   0.615   2.686   1.297 -0.3269  0.0269  0.0737
10442TIP3   OH252740   1.366   1.565   0.698 -0.1689  0.4819  0.3488
10442TIP3    H152741   1.381   1.658   0.714 -2.2987  0.7545  1.0984
10442TIP3    H252742   1.306   1.564   0.623  0.6423 -0.3509 -0.3076
10443TIP3   OH252743   6.552   3.214   3.396  0.3510 -0.5537  0.0618
10443TIP3    H152744   6.572   3.234   3.487 -1.0859 -1.3386  0.5884
10443TIP3    H252745   6.622   3.155   3.368  1.0438  0.0451  0.5045
10444TIP3   OH252746   2.852   4.782  15.803 -0.6092  0.4196  0.5275
10444TIP3    H152747   2.780   4.737  15.848 -0.3758 -0.5148 -0.0237
10444TIP3    H252748   2.930   4.757  15.852 -0.5162  0.5057  0.4227
10445TIP3   OH252749   4.858   2.058  14.465  0.7607 -0.2320  0.3295
10445TIP3    H152750   4.808   2.079  14.386 -0.0267  0.3622  0.9692
10445TIP3    H252751   4.942   2.101  14.452  0.7217 -0.3213 -0.2730
10446TIP3   OH252752   1.736   0.887   2.013  0.2469 -0.1113  0.3438
10446TIP3    H152753   1.815   0.890   1.959 -0.1351 -0.0289 -0.2185
10446TIP3    H252754   1.678   0.953   1.975  0.0193  0.0351  0.9350
10447TIP3   OH252755   2.321   4.409  14.024 -0.2674 -0.0768 -0.0250
10447TIP3    H152756   2.262   4.370  14.088 -1.1110  2.1442  0.6271
10447TIP3    H252757   2.273   4.405  13.942 -0.7898  0.5327  0.2471
10448TIP3   OH252758   6.730   2.575  17.248  0.0259  0.1062 -0.1882
10448TIP3    H152759   6.722   2.600  17.156 -2.7295 -2.3102 -0.7459
10448TIP3    H252760   6.666   2.629  17.293  0.2100  0.1342  0.0386
10449TIP3   OH252761   4.923   4.813  14.163  0.3067 -0.0058  0.1574
10449TIP3    H152762   4.972   4.735  14.139 -0.7120 -0.6655  0.1300
10449TIP3    H252763   4.971   4.852  14.236  1.4073 -0.0547 -0.5305
10450TIP3   OH252764   3.430   2.124  14.510 -0.3012  0.2487  0.1264
10450TIP3    H152765   3.493   2.053  14.497  0.0370  0.3530  1.1527
10450TIP3    H252766   3.346   2.085  14.485 -0.0939 -0.4612  0.4963
10451TIP3   OH252767   5.571   4.197  13.005  0.0547 -0.2403 -0.6047
10451TIP3    H152768   5.578   4.103  13.025  1.9411 -0.2273 -1.0077
10451TIP3    H252769   5.518   4.233  13.076 -1.8827 -1.8080 -1.1724
10452TIP3   OH252770   1.494   5.507  15.804 -0.1071 -0.1365  0.3418
10452TIP3    H152771   1.570   5.451  15.817 -0.3246 -0.0243  2.5402
10452TIP3    H252772   1.488   5.519  15.709  2.6485 -0.0535  0.1171
10453TIP3   OH252773   5.009   5.862  12.068  0.1730  0.0253 -0.4240
10453TIP3    H152774   5.050   5.947  12.086  0.8991  0.1307 -2.3723
10453TIP3    H252775   4.938   5.883  12.007 -0.6344 -0.5923  0.2912
10454TIP3   OH252776   3.408   3.745  12.610  0.3154 -0.0352 -0.3329
10454TIP3    H152777   3.353   3.700  12.546 -1.0122  0.7100  0.2344
10454TIP3    H252778   3.468   3.678  12.643 -0.6953 -1.0363 -0.4951
10455TIP3   OH252779   1.656   4.248   1.587  0.0792 -0.5233 -0.2829
10455TIP3    H152780   1.749   4.255   1.565  0.9240 -1.1866  2.5851
10455TIP3    H252781   1.620   4.187   1.523  1.2713  0.7502 -2.2667
10456TIP3   OH252782   2.935   6.136  14.609  0.7411 -0.0450 -0.2731
10456TIP3    H152783   3.029   6.151  14.609  0.7536  0.3041 -2.4621
10456TIP3    H252784   2.896   6.223  14.597  0.1909 -0.2866 -0.2813
10457TIP3   OH252785   2.644   6.144   6.215 -0.5720 -0.0110 -0.4691
10457TIP3    H152786   2.563   6.113   6.255 -0.9948  1.2222 -0.3337
10457TIP3    H252787   2.631   6.134   6.121 -0.5776 -0.5144 -0.4175
10458TIP3   OH252788   0.212   2.813  16.657  0.5690  0.3311  0.5613
10458TIP3    H152789   0.198   2.749  16.726  1.8588 -1.4892 -0.7806
10458TIP3    H252790   0.150   2.883  16.677  0.2799 -0.5223  3.0329
10459TIP3   OH252791   1.503   6.585   0.944  0.0072  0.7947  0.0134
10459TIP3    H152792   1.479   6.569   1.036 -0.8346 -0.7385 -0.4304
10459TIP3    H252793   1.565   6.657   0.948  0.9931 -0.0583  1.9286
10460TIP3   OH252794   5.832   3.598  13.780 -0.4114  0.1351 -0.6528
10460TIP3    H152795   5.777   3.651  13.722  0.7544 -1.4634 -3.4118
10460TIP3    H252796   5.864   3.527  13.725  3.9447  0.5948  0.9258
10461TIP3   OH252797   3.512   6.312  16.381 -0.1933  0.9541  0.5185
10461TIP3    H152798   3.484   6.304  16.290  1.9524  2.2983 -0.3288
10461TIP3    H252799   3.448   6.260  16.430 -2.6141  1.8255 -1.4873
10462TIP3   OH252800   2.634   3.931   0.459 -0.4651 -0.4485 -0.1083
10462TIP3    H152801   2.708   3.990   0.444 -1.2078 -0.0755 -3.0387
10462TIP3    H252802   2.562   3.988   0.485 -0.3662 -0.4981  0.2824
10463TIP3   OH252803   2.065   2.315  17.208 -0.2779  0.5254  1.0506
10463TIP3    H152804   2.056   2.222  17.185 -0.7794  0.8801 -0.3184
10463TIP3    H252805   2.080   2.315  17.302  0.2038 -0.9728  1.0091
10464TIP3   OH252806   0.988   3.380  11.384 -0.2416 -0.2157  0.1592
10464TIP3    H152807   0.988   3.460  11.437  0.0527 -1.5556  2.3034
10464TIP3    H252808   0.896   3.354  11.381 -0.0196 -1.5255  2.3641
10465TIP3   OH252809   3.342   5.434  15.391 -0.1106 -0.2840  0.5083
10465TIP3    H152810   3.306   5.437  15.479  0.6418  0.1972  0.8058
10465TIP3    H252811   3.313   5.350  15.356 -1.0556 -0.1469  0.9313
10466TIP3   OH252812   5.193   2.430  12.408  0.3672 -0.2006  0.3447
10466TIP3    H152813   5.247   2.400  12.481  0.7363  0.0030  0.1645
10466TIP3    H252814   5.108   2.390  12.422  0.7007 -0.9162  0.3877
10467TIP3   OH252815   5.741   3.322   4.486  0.7607  0.2163 -0.5223
10467TIP3    H152816   5.785   3.280   4.560  0.3837  1.1876  0.2684
10467TIP3    H252817   5.776   3.411   4.484 -0.0766  0.5489 -0.7842
10468TIP3   OH252818   3.362   4.476   3.684  0.4513  0.0005 -0.1757
10468TIP3    H152819   3.336   4.387   3.707 -0.1515  0.4295  0.8713
10468TIP3    H252820   3.456   4.480   3.705  0.0170  0.2454  1.9059
10469TIP3   OH252821   0.899   4.688  15.453 -0.2985 -0.4592 -0.5253
10469TIP3    H152822   0.893   4.671  15.359  0.8898 -0.0765 -0.6820
10469TIP3    H252823   0.956   4.764  15.461 -0.8703 -0.1188  0.4798
10470TIP3   OH252824   1.295   0.405  14.000 -0.2549  0.0436 -0.3501
10470TIP3    H152825   1.340   0.463  13.938  2.2731  0.4693  1.6950
10470TIP3    H252826   1.330   0.318  13.981  0.5523  0.1804  0.4435
10471TIP3   OH252827   1.260   6.320   1.577 -0.6673  0.1175 -0.1011
10471TIP3    H152828   1.219   6.377   1.511 -1.5912 -0.1998  0.1837
10471TIP3    H252829   1.225   6.353   1.661 -1.0507 -0.7339  0.0787
10472TIP3   OH252830   5.883   6.280   4.695 -0.5552  0.5958 -0.0301
10472TIP3    H152831   5.861   6.338   4.622  0.9451  0.4419 -0.6392
10472TIP3    H252832   5.928   6.206   4.654 -1.6381 -0.5746  0.8346
10473TIP3   OH252833   5.831   3.361  14.151 -0.2552 -0.1448 -0.0963
10473TIP3    H152834   5.916   3.345  14.112  0.3235  0.1178  1.0214
10473TIP3    H252835   5.809   3.280  14.197 -1.1751 -0.6428 -1.3564
10474TIP3   OH252836   6.670   1.496   0.297 -0.2448 -0.2098  0.1010
10474TIP3    H152837   6.709   1.583   0.290 -0.5550 -0.1170 -0.5432
10474TIP3    H252838   6.593   1.499   0.240  0.2938 -1.2052 -0.7139
10475TIP3   OH252839   4.666   4.201   0.221  0.6540 -0.1336  0.0380
10475TIP3    H152840   4.582   4.223   0.260 -0.2900  1.4184 -2.5991
10475TIP3    H252841   4.652   4.117   0.178  0.6190 -0.1367  0.0550
10476TIP3   OH252842   6.669   3.768   4.585 -0.5739  0.2378 -0.5050
10476TIP3    H152843   6.720   3.845   4.562 -2.0656  0.7253 -2.2905
10476TIP3    H252844   6.612   3.752   4.510 -1.5664 -1.5492  0.5519
10477TIP3   OH252845   3.106   4.426   2.601 -0.4903  0.1323  0.2634
10477TIP3    H152846   3.018   4.396   2.624  0.5395 -1.8130  2.0113
10477TIP3    H252847   3.120   4.502   2.658 -1.4735  1.3141 -0.9963
10478TIP3   OH252848   3.882   4.404  10.761  0.0585  0.2358  0.5239
10478TIP3    H152849   3.792   4.377  10.777 -0.0342  0.4861  0.4329
10478TIP3    H252850   3.892   4.485  10.811 -0.1492  0.8790 -0.4439
10479TIP3   OH252851   4.568   3.982  16.228 -0.7492  0.2280  0.1306
10479TIP3    H152852   4.611   4.014  16.307 -2.1783 -0.2785  1.1511
10479TIP3    H252853   4.586   4.049  16.161 -0.9378  1.5207  1.3358
10480TIP3   OH252854   0.860   3.323   0.227  0.4134  0.0414  0.0074
10480TIP3    H152855   0.829   3.413   0.240  2.0025  0.6703 -0.3106
10480TIP3    H252856   0.902   3.301   0.310  2.1901  0.5387 -0.7125
10481TIP3   OH252857   6.187   0.612  12.577 -0.1901 -0.0429  0.0369
10481TIP3    H152858   6.197   0.624  12.671  0.9084  0.1060 -0.0894
10481TIP3    H252859   6.275   0.620  12.541 -0.5140 -0.6109 -0.9533
10482TIP3   OH252860   1.517   5.790   3.665 -0.4564  0.0907  0.3363
10482TIP3    H152861   1.601   5.824   3.697  0.8346 -1.4762 -1.1893
10482TIP3    H252862   1.496   5.845   3.590  0.9932 -1.5194 -1.3538
10483TIP3   OH252863   4.472   4.989  11.157  0.2368  0.1681  0.2367
10483TIP3    H152864   4.450   4.925  11.089  1.0378  0.7751 -0.6176
10483TIP3    H252865   4.535   4.943  11.213  3.1241  1.0382 -2.0332
10484TIP3   OH252866   2.591   6.479  16.150 -0.1841 -0.2009 -0.1034
10484TIP3    H152867   2.586   6.561  16.100 -0.8183 -0.6500 -0.7922
10484TIP3    H252868   2.543   6.416  16.097 -1.0055 -0.6579  1.1478
10485TIP3   OH252869   1.267   5.722  14.610 -0.2024  0.0931 -0.1363
10485TIP3    H152870   1.259   5.816  14.627  0.4791  0.3347 -1.1018
10485TIP3    H252871   1.336   5.693  14.669 -0.5127  0.1664  0.2660
10486TIP3   OH252872   5.636   3.869  15.445  0.0149  0.1422  0.0814
10486TIP3    H152873   5.670   3.786  15.411 -1.5284  0.2834 -1.9947
10486TIP3    H252874   5.558   3.845  15.495  0.2762  0.2622  0.5572
10487TIP3   OH252875   4.904   5.076  12.250  0.1570 -1.0063  0.1055
10487TIP3    H152876   4.956   5.098  12.173 -0.1123 -1.7515 -0.3011
10487TIP3    H252877   4.968   5.071  12.322  0.3334  0.2186  0.0546
10488TIP3   OH252878   4.435   4.661  12.958 -0.1989  0.4874  0.1013
10488TIP3    H152879   4.492   4.686  12.885 -0.1964  0.4588  0.0936
10488TIP3    H252880   4.492   4.661  13.035 -0.2165  0.5858  0.1139
10489TIP3   OH252881   0.133   3.741   0.402  0.4869 -0.3062 -0.1044
10489TIP3    H152882   0.081   3.670   0.367  1.3500 -0.4548 -1.1441
10489TIP3    H252883   0.208   3.698   0.444  0.5829 -0.0458 -0.0045
10490TIP3   OH252884   1.357   6.171  14.426  0.0520  0.3560  0.2972
10490TIP3    H152885   1.343   6.250  14.478 -2.2186  0.6853 -0.6909
10490TIP3    H252886   1.334   6.099  14.485  2.1359  0.3583  1.2027
10491TIP3   OH252887   0.011   4.876  16.207  0.1804  0.2079 -0.3955
10491TIP3    H152888   0.086   4.932  16.186  0.1586  0.1563 -0.6124
10491TIP3    H252889   0.008   4.875  16.303  0.6652 -0.0756 -0.3812
10492TIP3   OH252890   6.453   0.726  12.609 -0.4886  0.3271 -0.8488
10492TIP3    H152891   6.511   0.650  12.601 -1.1674 -0.1736 -1.0734
10492TIP3    H252892   6.428   0.727  12.701  0.1790  0.7807 -0.6602
10493TIP3   OH252893   5.147   1.729   1.599 -0.2275 -0.0220 -0.1973
10493TIP3    H152894   5.146   1.644   1.643 -0.0720 -0.2592 -0.6500
10493TIP3    H252895   5.180   1.790   1.665 -1.8927 -0.0077  0.6737
10494TIP3   OH252896   6.434   5.343   2.711  0.1411  0.3068  0.4042
10494TIP3    H152897   6.400   5.302   2.632 -1.0610  0.3649  0.8690
10494TIP3    H252898   6.529   5.338   2.702  0.0561 -2.0234  0.1551
10495TIP3   OH252899   6.042   5.496  16.930 -0.5849  0.1900  0.7203
10495TIP3    H152900   5.993   5.571  16.963  1.1384  1.9689 -0.5381
10495TIP3    H252901   5.976   5.427  16.918 -2.3730  1.7585  1.0920
10496TIP3   OH252902   1.138   4.305  13.022  0.3922 -0.0742 -0.5234
10496TIP3    H152903   1.185   4.388  13.017 -2.2025  1.5184 -0.2543
10496TIP3    H252904   1.158   4.270  13.109  1.2069  0.4457 -0.4987
10497TIP3   OH252905   2.013   2.258  15.475  0.2107  0.3502  0.2052
10497TIP3    H152906   1.945   2.324  15.479 -0.0878  0.2592 -2.0072
10497TIP3    H252907   2.079   2.288  15.537 -1.1380  1.2412  1.2680
10498TIP3   OH252908   5.783   6.366   5.407 -0.0330 -0.1079 -0.2931
10498TIP3    H152909   5.878   6.360   5.407 -0.0093  0.1953 -1.0180
10498TIP3    H252910   5.754   6.296   5.466  0.6578  0.2454  0.4674
10499TIP3   OH252911   2.293   4.004  16.076  0.1071  0.1194 -0.2808
10499TIP3    H152912   2.302   4.060  16.154  0.4401  0.8078 -0.8013
10499TIP3    H252913   2.210   4.031  16.038  1.0057  1.4457 -1.4214
10500TIP3   OH252914   1.729   1.950  10.643  0.2176  0.8764 -0.4784
10500TIP3    H152915   1.754   1.893  10.570  0.4134  0.0869  0.1845
10500TIP3    H252916   1.658   1.903  10.686 -0.0985  1.4824 -0.3400
10501TIP3   OH252917   0.706   4.218   1.720  0.2967  0.0309  0.1096
10501TIP3    H152918   0.713   4.251   1.631 -0.0774  0.5966  0.2821
10501TIP3    H252919   0.786   4.248   1.764  1.7072 -2.3268 -0.6589
10502TIP3   OH252920   2.404   3.126  13.275  0.4683 -0.1986 -0.9069
10502TIP3    H152921   2.435   3.172  13.353  1.0192  0.4431 -1.4914
10502TIP3    H252922   2.376   3.196  13.216 -3.0589 -0.7158 -0.0893
10503TIP3   OH252923   2.011   5.822  17.146 -0.5395 -0.0966 -0.5000
10503TIP3    H152924   2.080   5.877  17.109  0.0694 -0.6521 -0.2063
10503TIP3    H252925   1.975   5.873  17.219 -0.1470  0.0200 -0.3881
10504TIP3   OH252926   1.651   5.285   3.960  0.5605  0.5079  0.2235
10504TIP3    H152927   1.713   5.276   4.032  0.5614 -0.8552  0.0782
10504TIP3    H252928   1.574   5.326   4.000  0.7320  0.1755  0.9175
10505TIP3   OH252929   4.793   3.088  13.923 -0.3736  0.2447  0.1025
10505TIP3    H152930   4.847   3.073  14.001 -1.8759  3.2850  1.9449
10505TIP3    H252931   4.848   3.142  13.865  0.1786 -0.6592 -0.2323
10506TIP3   OH252932   6.589   0.433   2.788 -0.5618  0.0261  0.3411
10506TIP3    H152933   6.562   0.379   2.714 -2.5527 -1.1746  1.8465
10506TIP3    H252934   6.625   0.371   2.851  2.9175  1.2152 -0.2176
10507TIP3   OH252935   2.178   1.228   2.389  0.0284 -0.0892 -0.2014
10507TIP3    H152936   2.182   1.308   2.441 -1.4643  0.3900 -0.7828
10507TIP3    H252937   2.192   1.157   2.453  3.2408  0.5978  0.0711
10508TIP3   OH252938   6.364   5.255   3.096 -0.0633 -0.4333 -0.0622
10508TIP3    H152939   6.335   5.338   3.058  0.5903 -0.1805 -0.0262
10508TIP3    H252940   6.374   5.275   3.190  2.3546  0.1236 -0.3888
10509TIP3   OH252941   4.736   2.828  15.509  0.3085  0.1913  0.5322
10509TIP3    H152942   4.750   2.752  15.565  0.0736  0.0418  0.3854
10509TIP3    H252943   4.790   2.897  15.549  1.5612 -0.3965 -0.0735
10510TIP3   OH252944   6.642   2.417   3.945  0.2504  0.1425 -0.7384
10510TIP3    H152945   6.733   2.388   3.951  0.6474  1.1530 -1.5875
10510TIP3    H252946   6.643   2.507   3.978 -1.0479 -0.8405  2.3398
10511TIP3   OH252947   3.738   0.354   2.522  0.8915  0.2314  0.3953
10511TIP3    H152948   3.787   0.397   2.452  1.6646  0.9147  1.3321
10511TIP3    H252949   3.666   0.414   2.541  0.1557 -0.3756 -0.4041
10512TIP3   OH252950   6.383   4.577   2.586 -0.1001 -0.1214  0.4550
10512TIP3    H152951   6.474   4.605   2.596  0.4855 -1.6090 -0.3709
10512TIP3    H252952   6.377   4.549   2.495 -1.7066  1.0071  0.1923
10513TIP3   OH252953   0.866   6.016   0.646  0.7700 -0.2216 -0.3139
10513TIP3    H152954   0.792   6.035   0.588  1.1282 -1.6504 -1.2776
10513TIP3    H252955   0.833   5.952   0.708  0.6120  0.7329  0.6176
10514TIP3   OH252956   1.151   0.491  11.420 -0.6446  0.0630 -0.2367
10514TIP3    H152957   1.190   0.456  11.340  0.2932  0.4620  0.0281
10514TIP3    H252958   1.150   0.585  11.407 -1.8326  0.0405 -0.3612
10515TIP3   OH252959   2.777   2.730   3.088 -0.5224  0.4285  0.0089
10515TIP3    H152960   2.849   2.686   3.133 -0.3669  0.2018 -0.4566
10515TIP3    H252961   2.717   2.756   3.158 -2.0417 -2.9700  0.1831
10516TIP3   OH252962   0.209   6.560  12.678 -0.0164 -0.1679 -0.1724
10516TIP3    H152963   0.299   6.590  12.666  0.0638 -0.8456 -1.4136
10516TIP3    H252964   0.197   6.555  12.773  1.3511 -0.3547 -0.0009
10517TIP3   OH252965   3.179   6.077   1.168 -0.3856  0.3404  0.1998
10517TIP3    H152966   3.265   6.055   1.131 -0.1543 -0.3087  1.1066
10517TIP3    H252967   3.139   5.993   1.188  1.0011  0.5131  4.8537
10518TIP3   OH252968   0.793   3.718  16.429  0.1309 -0.2747  0.3127
10518TIP3    H152969   0.721   3.680  16.480 -0.5741 -0.0751 -0.5131
10518TIP3    H252970   0.866   3.657  16.442 -0.8182 -1.6720 -0.5625
10519TIP3   OH252971   4.069   1.357   2.109 -0.1468  0.4367  0.1284
10519TIP3    H152972   4.039   1.386   2.195  0.8975  0.8896  0.3584
10519TIP3    H252973   4.150   1.309   2.127  1.0014  1.9487 -0.7173
10520TIP3   OH252974   1.031   6.029   4.144  0.2387 -0.0806 -0.0055
10520TIP3    H152975   1.107   6.083   4.163 -0.1873  0.2161  0.9184
10520TIP3    H252976   0.975   6.084   4.090  0.7498 -0.3636 -0.8406
10521TIP3   OH252977   1.768   4.482  13.512 -0.1239  0.2252 -0.1621
10521TIP3    H152978   1.781   4.577  13.514  0.3147  0.1851 -0.7886
10521TIP3    H252979   1.732   4.465  13.425 -1.8859  0.0154  0.5835
10522TIP3   OH252980   1.173   6.665  13.869  0.0783  0.1726 -0.1538
10522TIP3    H152981   1.138   6.674  13.780  0.5642 -1.2833 -0.5241
10522TIP3    H252982   1.174   6.571  13.885  1.7656  0.2926  0.6712
10523TIP3   OH252983   1.908   4.636   4.697  0.1568  0.5901 -0.1972
10523TIP3    H152984   1.937   4.548   4.720 -1.1340  1.0307  4.1815
10523TIP3    H252985   1.841   4.623   4.630  1.8729 -1.3990 -1.6630
10524TIP3   OH252986   5.676   6.767  13.122 -0.0202  0.4038 -0.5041
10524TIP3    H152987   5.707   6.813  13.044 -1.5580  0.6682 -0.9998
10524TIP3    H252988   5.620   6.831  13.167  1.1380  0.3798  1.0346
10525TIP3   OH252989   2.003   1.540  12.676 -0.0087  0.0780 -0.2590
10525TIP3    H152990   1.954   1.517  12.597 -0.4469  2.4468 -0.7687
10525TIP3    H252991   1.938   1.545  12.745  0.3275 -1.6795  0.2239
10526TIP3   OH252992   4.811   1.453   3.985 -0.2745  0.7624 -0.1479
10526TIP3    H152993   4.777   1.531   4.029 -0.5459  0.8181 -0.4482
10526TIP3    H252994   4.752   1.382   4.011  1.0695  0.2410  1.6532
10527TIP3   OH252995   1.383   6.462   3.253 -0.0626  0.4281  0.0998
10527TIP3    H152996   1.429   6.541   3.283  4.1109 -2.0535  1.0629
10527TIP3    H252997   1.390   6.465   3.158 -0.1887  1.3099  0.1084
10528TIP3   OH252998   1.628   6.409   6.353 -0.4267 -0.2636  0.7540
10528TIP3    H152999   1.690   6.388   6.423 -0.5216 -0.8156  0.6814
10528TIP3    H253000   1.673   6.473   6.299 -0.4494  0.3603  1.4636
10529TIP3   OH253001   5.904   0.738   4.244  0.4053 -0.2233  1.3107
10529TIP3    H153002   5.873   0.829   4.235  0.5761 -0.3038 -0.6135
10529TIP3    H253003   5.987   0.746   4.291  2.1968  1.0782 -1.7689
10530TIP3   OH253004   5.914   1.537   0.067  0.4968  0.3487  0.1853
10530TIP3    H153005   5.947   1.449   0.086 -1.9632 -0.8876 -0.7347
10530TIP3    H253006   5.847   1.551   0.134 -1.3823  0.0715 -1.5182
10531TIP3   OH253007   0.818   2.483   4.598 -0.3544  0.1671 -0.2310
10531TIP3    H153008   0.798   2.555   4.657 -1.4108 -0.5139  0.2742
10531TIP3    H253009   0.743   2.424   4.606  1.2229 -1.8391  0.6830
10532TIP3   OH253010   2.670   4.407  12.196 -0.1418  0.2443 -0.2695
10532TIP3    H153011   2.699   4.330  12.148 -0.8622  0.6874 -1.4679
10532TIP3    H253012   2.720   4.480  12.158  0.0905  0.4556  0.4296
10533TIP3   OH253013   4.864   3.963  11.649  0.4045  0.4495 -0.2224
10533TIP3    H153014   4.791   3.935  11.594  0.3435 -0.5965  0.3703
10533TIP3    H253015   4.846   4.055  11.667 -1.5912 -0.1384  1.1184
10534TIP3   OH253016   6.708   3.293  15.507 -0.1352  0.1099  0.1691
10534TIP3    H153017   6.621   3.289  15.546  0.0888 -0.7522  0.5954
10534TIP3    H253018   6.738   3.383  15.525 -1.4053  0.8128 -1.0653
10535TIP3   OH253019   4.485   0.955  11.691 -0.3087 -0.2534 -0.1726
10535TIP3    H153020   4.440   1.009  11.626  0.8161  0.9939  0.0344
10535TIP3    H253021   4.575   0.949  11.659  0.2634  0.3636  1.2421
10536TIP3   OH253022   4.828   2.257   5.735  0.6228 -0.5542 -0.1478
10536TIP3    H153023   4.781   2.318   5.678  1.1322 -0.4213 -0.4362
10536TIP3    H253024   4.871   2.313   5.800  0.0441 -0.7054  0.3715
10537TIP3   OH253025   1.696   2.245   5.753 -0.1134 -0.6320  0.2225
10537TIP3    H153026   1.614   2.223   5.708  0.3073 -0.8270 -0.4705
10537TIP3    H253027   1.728   2.161   5.786  0.8207 -0.8979 -1.2698
10538TIP3   OH253028   0.226   3.811   4.326  0.2435 -0.2809 -0.1322
10538TIP3    H153029   0.313   3.791   4.292  0.3479 -0.3910  0.2035
10538TIP3    H253030   0.216   3.905   4.312  0.1104 -0.4000 -0.8771
10539TIP3   OH253031   4.203   4.187   0.055  0.8046 -0.2046 -0.0688
10539TIP3    H153032   4.249   4.117   0.010  0.3549 -0.8095  0.4006
10539TIP3    H253033   4.273   4.243   0.089  1.1757 -0.6250 -0.1304
10540TIP3   OH253034   4.120   0.700  11.914  0.1107 -0.3410  0.0591
10540TIP3    H153035   4.160   0.754  11.846 -0.5625  0.1085  0.0196
10540TIP3    H253036   4.195   0.662  11.961  0.5816 -0.0991 -0.4813
10541TIP3   OH253037   5.923   2.489  13.867  0.4718  0.0770 -0.0741
10541TIP3    H153038   5.909   2.551  13.938  0.4099  0.5319 -0.4765
10541TIP3    H253039   5.836   2.475  13.830  0.4839 -0.2645  0.0290
10542TIP3   OH253040   3.062   0.264  11.964 -0.1011 -0.2308  0.2766
10542TIP3    H153041   3.133   0.308  12.012 -0.2519  1.0752 -0.6244
10542TIP3    H253042   3.043   0.323  11.890 -1.8402 -0.7588  0.2540
10543TIP3   OH253043   1.003   5.962  15.427  0.2369  0.3320  0.4886
10543TIP3    H153044   0.951   5.887  15.457 -2.1835  1.7287  0.0253
10543TIP3    H253045   0.969   5.981  15.339  0.0111  2.6268  1.0249
10544TIP3   OH253046   4.241   6.657  15.307 -0.0626  0.1255 -0.3684
10544TIP3    H153047   4.178   6.649  15.235 -0.3819  0.8869 -0.1837
10544TIP3    H253048   4.325   6.633  15.268 -0.5255 -1.3306 -0.5072
10545TIP3   OH253049   3.752   5.423   0.040 -0.0375 -0.3905 -0.0861
10545TIP3    H153050   3.781   5.414  -0.051  0.7132  1.0220 -0.0203
10545TIP3    H253051   3.809   5.491   0.076  1.1955 -2.4393  2.1020
10546TIP3   OH253052   4.907   5.356   1.934  0.0340  0.3602 -0.4785
10546TIP3    H153053   4.831   5.398   1.974 -0.0707 -0.7172  0.5080
10546TIP3    H253054   4.888   5.262   1.940  1.0872  0.1030 -0.9499
10547TIP3   OH253055   3.100   1.612  16.011  0.7096  0.0711  0.1753
10547TIP3    H153056   3.074   1.529  16.051  1.4914 -0.3924 -0.2547
10547TIP3    H253057   3.018   1.649  15.978  0.3366 -0.4767  0.4723
10548TIP3   OH253058   2.947   6.457  17.147  0.0898 -0.0437 -0.6097
10548TIP3    H153059   2.999   6.410  17.082  3.1154  0.4877  1.2212
10548TIP3    H253060   2.958   6.549  17.126 -0.5565  0.0673 -0.4872
10549TIP3   OH253061   3.092   0.339   4.702  0.1702  0.8270 -0.6916
10549TIP3    H153062   3.069   0.420   4.747  0.3923 -0.0306  1.0617
10549TIP3    H253063   3.168   0.306   4.750 -0.0411 -0.5300 -1.2384
10550TIP3   OH253064   2.473   0.141   5.802  0.4097  0.1110  0.0983
10550TIP3    H153065   2.402   0.101   5.853  3.1517 -1.4631  3.0556
10550TIP3    H253066   2.518   0.067   5.762  1.0528  0.9681 -0.7888
10551TIP3   OH253067   5.074   5.452   1.742 -0.6429 -0.5438  0.2077
10551TIP3    H153068   5.009   5.386   1.766 -0.2666 -0.4904  1.4663
10551TIP3    H253069   5.026   5.534   1.738 -1.1145 -0.8718 -1.3678
10552TIP3   OH253070   0.478   5.712  12.087  0.1776  0.0724  0.2195
10552TIP3    H153071   0.502   5.804  12.077  0.0738  0.0562 -0.2045
10552TIP3    H253072   0.534   5.665  12.025  0.0099 -0.1142  0.2060
10553TIP3   OH253073   2.667   5.775  13.785  0.2917 -0.5273  0.2726
10553TIP3    H153074   2.586   5.806  13.744  0.6949  1.4687  0.8821
10553TIP3    H253075   2.703   5.852  13.829  1.1354 -2.0059  2.3296
10554TIP3   OH253076   1.619   1.360  12.872  0.1165  0.4375  0.3433
10554TIP3    H153077   1.610   1.455  12.866 -0.3115  0.3171 -1.3508
10554TIP3    H253078   1.593   1.327  12.786  0.6721 -1.1910  0.7486
10555TIP3   OH253079   1.043   3.162   3.134  0.2666 -0.3062  0.5347
10555TIP3    H153080   1.085   3.236   3.091  0.6727 -1.3882 -1.0079
10555TIP3    H253081   1.114   3.099   3.149 -0.4659 -1.3920 -0.4135
10556TIP3   OH253082   2.681   2.425   0.547 -0.0740  0.4923 -0.7286
10556TIP3    H153083   2.758   2.479   0.567  0.4739  0.0320 -1.5358
10556TIP3    H253084   2.706   2.377   0.468 -0.6443 -0.7439 -0.1748
10557TIP3   OH253085   3.001   3.892   2.147 -0.2819 -0.1506  0.0603
10557TIP3    H153086   3.075   3.839   2.176  0.8081  0.8302 -0.8155
10557TIP3    H253087   3.018   3.908   2.054 -0.3417  2.0461  0.3810
10558TIP3   OH253088   3.533   2.790   4.789  0.4355  0.1925  0.2724
10558TIP3    H153089   3.558   2.881   4.773 -0.6842  1.1718  3.3954
10558TIP3    H253090   3.460   2.774   4.728  1.3207  0.9858 -1.0411
10559TIP3   OH253091   0.897   1.788   3.244  0.0247  0.4484  0.1033
10559TIP3    H153092   0.897   1.788   3.148  0.0702 -2.5034  0.0229
10559TIP3    H253093   0.985   1.816   3.268  0.0042  1.2548 -0.7012
10560TIP3   OH253094   2.472   1.670   1.728  0.3554  0.0746  0.3630
10560TIP3    H153095   2.555   1.622   1.718  0.6752  0.7363 -0.2639
10560TIP3    H253096   2.414   1.630   1.663 -0.0336 -0.8314  1.2554
10561TIP3   OH253097   5.230   1.366  14.036 -0.2810 -0.0513  0.0492
10561TIP3    H153098   5.289   1.294  14.061 -1.0102 -0.8573 -0.4626
10561TIP3    H253099   5.143   1.326  14.036 -0.9059  1.2529  1.2961
10562TIP3   OH253100   3.402   1.463  16.356 -0.5496  0.1016 -0.3700
10562TIP3    H153101   3.490   1.449  16.321 -0.6687 -0.3963 -0.4816
10562TIP3    H253102   3.353   1.385  16.329 -0.7143 -0.1739  0.6856
10563TIP3   OH253103   6.598   6.191   3.054 -0.0709 -0.6145  0.5600
10563TIP3    H153104   6.637   6.200   3.141  1.4906 -0.7021 -0.0879
10563TIP3    H253105   6.660   6.137   3.006 -0.3539  0.3178 -0.9270
10564TIP3   OH253106   3.416   4.145   5.051  0.0102  0.2414 -0.1372
10564TIP3    H153107   3.488   4.151   5.114  0.8507 -4.9612 -0.1299
10564TIP3    H253108   3.339   4.128   5.105 -0.3903  1.2892 -0.3541
10565TIP3   OH253109   5.408   3.234  11.942 -0.4247  0.1077  0.6727
10565TIP3    H153110   5.359   3.317  11.937 -0.0789  0.2747 -3.9839
10565TIP3    H253111   5.492   3.253  11.899  0.6050 -2.1350  1.5523
10566TIP3   OH253112   5.927   1.635  13.997  0.4613 -0.1503  0.1573
10566TIP3    H153113   5.833   1.621  13.987  0.4857  0.8222 -1.9271
10566TIP3    H253114   5.936   1.728  14.016  0.9928 -0.3515  0.9444
10567TIP3   OH253115   4.166   2.853  12.003  0.3754  0.2555  0.5147
10567TIP3    H153116   4.137   2.800  12.077  1.1292 -1.6987 -0.5132
10567TIP3    H253117   4.126   2.939  12.018 -0.8297 -0.5524  2.3133
10568TIP3   OH253118   5.578   1.154   2.375  0.4589 -0.2407  0.1312
10568TIP3    H153119   5.520   1.227   2.396  0.6004  0.3037 -1.2365
10568TIP3    H253120   5.598   1.114   2.459 -1.0853  0.1737  0.7375
10569TIP3   OH253121   4.920   0.687  12.324  0.7817 -0.2332  0.5193
10569TIP3    H153122   4.904   0.780  12.337 -0.9167 -0.0711 -2.0973
10569TIP3    H253123   4.917   0.650  12.413  0.8699  2.0721  1.5549
10570TIP3   OH253124   0.261   1.715   4.142  0.2078 -0.3115 -0.0602
10570TIP3    H153125   0.253   1.644   4.206 -0.7391 -0.1087  0.0633
10570TIP3    H253126   0.341   1.761   4.167  0.7582 -1.2293 -0.0489
10571TIP3   OH253127   4.924   1.528   0.358  0.5118 -0.1578  0.2183
10571TIP3    H153128   4.884   1.580   0.428  0.1608  0.8752 -0.7351
10571TIP3    H253129   5.010   1.503   0.393 -0.4160 -1.3628  1.7962
10572TIP3   OH253130   2.315   6.034  14.869 -1.2274  0.2211 -0.0812
10572TIP3    H153131   2.273   5.962  14.917 -0.1848  0.4006  1.1594
10572TIP3    H253132   2.243   6.093  14.848 -1.4956  1.4676  3.6651
10573TIP3   OH253133   2.252   4.628  13.150  0.2119  0.2147  0.0869
10573TIP3    H153134   2.346   4.643  13.161  0.6573 -1.4099 -0.9670
10573TIP3    H253135   2.218   4.710  13.114  1.9145 -0.1938 -2.8045
10574TIP3   OH253136   3.896   6.067  15.560 -0.2113  0.0696  0.4415
10574TIP3    H153137   3.834   6.009  15.604 -0.2191  0.9988  1.7322
10574TIP3    H253138   3.878   6.153  15.597  0.0420  0.8540 -1.1539
10575TIP3   OH253139   3.154   6.554  11.727 -0.0499  0.0356 -0.1340
10575TIP3    H153140   3.217   6.587  11.791 -1.0553  1.2566  0.2853
10575TIP3    H253141   3.069   6.586  11.759 -0.5577  0.9522 -2.2510
10576TIP3   OH253142   3.435   3.023   6.769 -0.0251  0.1297 -0.0383
10576TIP3    H153143   3.450   2.929   6.773  0.1636  0.1614  0.0586
10576TIP3    H253144   3.434   3.044   6.675  0.8019  0.1581 -0.0554
10577TIP3   OH253145   4.533   6.464   0.946 -0.1188 -0.3503  0.2080
10577TIP3    H153146   4.512   6.371   0.947  0.0741 -0.4094 -0.6960
10577TIP3    H253147   4.547   6.487   1.038  1.2272 -1.5372  0.3378
10578TIP3   OH253148   0.070   5.106   4.918 -0.3026 -0.0031 -0.4438
10578TIP3    H153149   0.131   5.057   4.972  0.7795  0.5751 -1.1112
10578TIP3    H253150  -0.013   5.060   4.928 -0.2865  0.3528  2.0996
10579TIP3   OH253151   3.915   5.270   2.695  0.0249 -0.4626  0.0535
10579TIP3    H153152   3.849   5.243   2.758 -1.2716 -0.5028 -1.2796
10579TIP3    H253153   3.995   5.279   2.747 -0.7728 -1.4192  1.5178
10580TIP3   OH253154   5.928   0.825  14.711  0.4743  0.0423  0.2140
10580TIP3    H153155   5.918   0.806  14.618 -0.2330  2.5538 -0.2933
10580TIP3    H253156   5.840   0.851  14.740  0.7030 -0.5916  1.5889
10581TIP3   OH253157   3.052   4.697  15.988  0.5708 -0.0017 -0.6416
10581TIP3    H153158   3.042   4.621  16.047 -0.8607  0.5511 -0.1300
10581TIP3    H253159   3.147   4.711  15.985  0.7145  0.1892  1.8949
10582TIP3   OH253160   2.561   5.811  11.335 -0.2178  0.0659  0.2897
10582TIP3    H153161   2.594   5.773  11.417 -2.8095 -3.1706  0.0137
10582TIP3    H253162   2.626   5.784  11.269  0.6523  0.6628  0.8742
10583TIP3   OH253163   5.450   0.381  11.462  0.3565  0.1456  0.6369
10583TIP3    H153164   5.529   0.393  11.410 -0.2038  2.0862  0.1452
10583TIP3    H253165   5.412   0.469  11.468 -0.7706 -0.4099  2.4509
10584TIP3   OH253166   2.990   2.015  12.829  0.2236 -0.6780 -0.0444
10584TIP3    H153167   2.964   1.938  12.778  0.4176 -0.5097 -0.3962
10584TIP3    H253168   3.083   2.001  12.849  0.8594  0.4980 -1.9797
10585TIP3   OH253169   1.894   2.611   3.242  0.0989  0.4215 -0.1973
10585TIP3    H153170   1.805   2.587   3.215 -0.0490 -0.3986  0.9349
10585TIP3    H253171   1.920   2.542   3.303  1.8182  0.2224 -1.0864
10586TIP3   OH253172   2.111   0.928  16.844  0.4439 -0.0413 -0.1459
10586TIP3    H153173   2.036   0.986  16.828 -1.5343 -2.2481  0.5676
10586TIP3    H253174   2.160   0.929  16.762  0.6602  2.7412 -0.0969
10587TIP3   OH253175   5.344   4.669  13.107 -0.5341 -0.3149 -0.5889
10587TIP3    H153176   5.259   4.640  13.073 -0.4171  0.4395 -1.5757
10587TIP3    H253177   5.408   4.618  13.058 -0.2721  2.1948 -3.1777
10588TIP3   OH253178   1.965   0.422  16.751  0.0788 -0.1749  0.6518
10588TIP3    H153179   1.943   0.455  16.663 -1.1341  1.9709  1.6746
10588TIP3    H253180   2.004   0.497  16.796 -0.7977 -0.7418  2.4580
10589TIP3   OH253181   2.265   6.198   5.625 -0.1855 -0.0939  0.5176
10589TIP3    H153182   2.176   6.197   5.662  0.1583  1.4388  1.5014
10589TIP3    H253183   2.258   6.256   5.549 -0.1293 -0.3450  0.3224
10590TIP3   OH253184   4.387   6.222  13.275 -0.5210 -0.9717  0.2891
10590TIP3    H153185   4.332   6.254  13.204 -0.6342 -1.2163  0.2645
10590TIP3    H253186   4.331   6.228  13.353 -0.1747 -0.0727  0.4757
10591TIP3   OH253187   2.028   0.978   0.581  0.4679 -1.2935  0.3585
10591TIP3    H153188   2.016   0.883   0.579 -3.0905 -1.0048  0.7083
10591TIP3    H253189   1.956   1.012   0.527  1.0434  1.2321  1.0491
10592TIP3   OH253190   3.731   0.992  13.261 -0.2111  0.0927 -0.5275
10592TIP3    H153191   3.740   1.069  13.205  1.1294  0.3039 -0.0725
10592TIP3    H253192   3.790   1.010  13.335 -1.2272 -0.5868  0.4853
10593TIP3   OH253193   4.878   2.138  13.963  0.0772 -0.6849  0.0411
10593TIP3    H153194   4.843   2.070  13.905  0.7465 -0.6791 -0.3845
10593TIP3    H253195   4.927   2.089  14.030 -1.4943 -0.7470  1.1865
10594TIP3   OH253196   2.554   2.792   3.582 -0.4003 -0.0482 -0.0424
10594TIP3    H153197   2.533   2.779   3.490  1.5209  0.1491 -0.5437
10594TIP3    H253198   2.560   2.704   3.618 -0.9971 -0.1299 -0.1324
10595TIP3   OH253199   2.410   1.867  15.080  0.5531  0.1656  0.4415
10595TIP3    H153200   2.411   1.772  15.076  2.0479  0.0787  2.0234
10595TIP3    H253201   2.480   1.895  15.021  0.5455  0.2530  0.4728
10596TIP3   OH253202   3.379   6.692   6.101 -0.1355 -0.0347 -0.2481
10596TIP3    H153203   3.397   6.695   6.194 -1.5403 -0.7017  0.0730
10596TIP3    H253204   3.379   6.784   6.073  3.7228  0.0903 -0.3737
10597TIP3   OH253205   4.270   0.638   5.298 -0.0371 -0.0067  0.2130
10597TIP3    H153206   4.323   0.685   5.233 -0.9885  0.4233 -0.2838
10597TIP3    H253207   4.201   0.700   5.321  0.0691 -0.3011  1.3607
10598TIP3   OH253208   5.683   5.769  13.203  0.3533 -0.6819  0.3088
10598TIP3    H153209   5.616   5.708  13.234  1.1768 -2.0213 -0.4653
10598TIP3    H253210   5.661   5.784  13.111  0.4634 -0.2154  0.3556
10599TIP3   OH253211   3.746   4.501   0.683  0.2937  0.1970 -0.2561
10599TIP3    H153212   3.745   4.586   0.639  1.8819 -0.1865 -1.1030
10599TIP3    H253213   3.814   4.510   0.750  0.3890 -0.3664 -0.2755
10600TIP3   OH253214   4.205   0.739   2.242  0.0734  0.0282  0.4501
10600TIP3    H153215   4.287   0.786   2.228 -0.6202  0.8867 -0.9412
10600TIP3    H253216   4.221   0.651   2.209  1.2269 -0.6575  2.6149
10601TIP3   OH253217   6.022   5.783  13.581  0.1167  0.2985  0.6423
10601TIP3    H153218   5.978   5.756  13.661 -2.0953 -0.1772 -0.6669
10601TIP3    H253219   5.991   5.872  13.565 -1.7176 -0.5886 -1.1199
10602TIP3   OH253220   2.943   0.572   3.742  0.4845  1.0075  0.1776
10602TIP3    H153221   2.896   0.612   3.669  0.1643  1.2918  0.5340
10602TIP3    H253222   2.877   0.520   3.788  0.3525  1.9201  1.0536
10603TIP3   OH253223   4.159   5.018   5.699 -0.7427  0.4225  0.0489
10603TIP3    H153224   4.090   4.994   5.638  0.0730 -0.4144 -0.5604
10603TIP3    H253225   4.139   4.970   5.779  1.1664 -2.9853 -1.3045
10604TIP3   OH253226   0.857   5.407  12.301  0.2633 -0.0455 -0.1699
10604TIP3    H153227   0.798   5.481  12.285 -0.7008 -0.4969  1.1858
10604TIP3    H253228   0.799   5.332  12.310  0.9849 -0.4012  1.7929
10605TIP3   OH253229   5.848   5.072   4.771  0.0566  0.0606  0.3505
10605TIP3    H153230   5.934   5.105   4.747  0.3946 -1.5524 -0.8665
10605TIP3    H253231   5.862   5.021   4.850  0.4826 -1.1615 -0.4825
10606TIP3   OH253232   1.010   2.369   4.414 -0.4613  0.1952 -0.0379
10606TIP3    H153233   0.932   2.409   4.452 -0.2627  0.6886 -0.1454
10606TIP3    H253234   0.977   2.292   4.368 -0.8654  0.3120  0.0534
10607TIP3   OH253235   3.792   6.096  12.636 -0.1942 -0.3915 -0.1881
10607TIP3    H153236   3.746   6.077  12.554  0.8114  0.3752 -0.9523
10607TIP3    H253237   3.726   6.141  12.689 -0.7916 -0.6844 -0.6572
10608TIP3   OH253238   6.140   6.456  11.619 -0.5161  0.0981 -0.0007
10608TIP3    H153239   6.080   6.425  11.687 -1.1082 -0.3486 -0.7221
10608TIP3    H253240   6.226   6.424  11.646 -1.0175 -1.6498 -0.4096
10609TIP3   OH253241   2.603   6.433  14.680 -0.2094 -0.0173  0.0674
10609TIP3    H153242   2.643   6.481  14.753  0.5190  0.6268 -0.7333
10609TIP3    H253243   2.678   6.397  14.632 -0.4608  2.0881 -2.0682
10610TIP3   OH253244   6.119   4.461   2.066 -0.0316 -0.2435 -0.1494
10610TIP3    H153245   6.168   4.505   1.997 -0.8068  0.6041 -0.1707
10610TIP3    H253246   6.109   4.371   2.035 -0.9870  0.3013 -1.4688
10611TIP3   OH253247   3.899   0.541  12.605 -0.0956  0.2127 -0.0575
10611TIP3    H153248   3.806   0.553  12.625  0.2614 -0.1764  2.0331
10611TIP3    H253249   3.933   0.488  12.677  2.1785  2.0243  0.3259
10612TIP3   OH253250   4.037   1.044   2.239 -0.7044 -0.0040  0.3501
10612TIP3    H153251   4.055   1.130   2.278  0.7505  0.0234 -0.3060
10612TIP3    H253252   4.052   0.982   2.311  1.3059  0.0936  0.0787
10613TIP3   OH253253   6.059   1.155   4.487  0.2712 -0.0981 -0.3043
10613TIP3    H153254   6.071   1.204   4.405  0.6247 -0.4513 -0.4688
10613TIP3    H253255   6.147   1.128   4.511  0.1056 -0.4427 -0.0842
10614TIP3   OH253256   1.072   0.289   2.091  0.1411 -0.2383 -0.1557
10614TIP3    H153257   1.156   0.247   2.074  0.6302  1.2058 -1.4924
10614TIP3    H253258   1.046   0.257   2.178  0.6635 -2.9230 -0.8959
10615TIP3   OH253259   1.924   5.676  13.353 -0.0457  0.3303  0.9042
10615TIP3    H153260   1.966   5.610  13.408 -2.0195 -1.2675  0.6074
10615TIP3    H253261   1.993   5.741  13.337  1.7177 -1.1791  1.9452
10616TIP3   OH253262   5.690   3.982   5.964  0.1887 -0.2718 -0.1323
10616TIP3    H153263   5.652   4.016   5.883  1.0098  1.7575  0.2664
10616TIP3    H253264   5.624   3.922   5.998  0.5011 -2.4953 -3.0795
10617TIP3   OH253265   6.700   6.447   3.917  0.1356 -0.8949 -0.1291
10617TIP3    H153266   6.759   6.413   3.850 -0.0912 -1.7213  0.0729
10617TIP3    H253267   6.748   6.437   3.999  1.3380  2.2142 -0.3360
10618TIP3   OH253268   4.393   2.380  16.020 -0.3600  0.3019 -0.1911
10618TIP3    H153269   4.479   2.338  16.020 -0.9942 -1.2039 -2.3494
10618TIP3    H253270   4.412   2.474  16.019  1.2594  0.0024 -0.6814
10619TIP3   OH253271   1.503   5.107  15.705 -0.1498  0.0867 -0.3575
10619TIP3    H153272   1.469   5.126  15.792 -0.7016 -0.4066 -0.4587
10619TIP3    H253273   1.466   5.176  15.649  2.6741  2.3383  0.2762
10620TIP3   OH253274   2.276   2.708  12.379  0.3623 -0.6321  0.7429
10620TIP3    H153275   2.314   2.760  12.450  1.2700  1.7093 -1.2854
10620TIP3    H253276   2.318   2.622  12.387  1.3418 -0.0515  2.2849
10621TIP3   OH253277   6.364   2.001   3.655 -0.4632  0.0132 -0.4451
10621TIP3    H153278   6.293   2.061   3.679 -0.4345 -0.3364  0.5834
10621TIP3    H253279   6.442   2.057   3.651 -0.5668  0.1761 -0.2264
10622TIP3   OH253280   3.597   6.496  12.165  0.5461 -0.0709 -0.0542
10622TIP3    H153281   3.556   6.472  12.082  1.3154 -2.2578  0.1548
10622TIP3    H253282   3.548   6.448  12.231  0.1599  1.3862  0.7703
10623TIP3   OH253283   1.433   0.419   4.732  0.0436 -0.2869  0.2628
10623TIP3    H153284   1.442   0.338   4.783 -0.6489 -0.2223  0.4998
10623TIP3    H253285   1.517   0.428   4.687  0.7614 -0.2363  1.5454
10624TIP3   OH253286   5.549   1.182   5.696 -0.0632  0.4681  0.2369
10624TIP3    H153287   5.561   1.187   5.791  0.5552  1.5300  0.1152
10624TIP3    H253288   5.635   1.158   5.663  0.2807  2.1746 -0.1958
10625TIP3   OH253289   4.637   1.519   2.875 -0.5396 -0.4158 -0.4389
10625TIP3    H153290   4.581   1.565   2.813 -0.6686 -0.8336 -0.6378
10625TIP3    H253291   4.585   1.444   2.904 -0.7986  0.2215  0.8121
10626TIP3   OH253292   4.524   2.941  17.118 -0.4026  0.2769 -0.3059
10626TIP3    H153293   4.600   2.903  17.073 -0.4209  0.0030 -0.1093
10626TIP3    H253294   4.553   3.028  17.144 -0.0007  0.0154  0.1495
10627TIP3   OH253295   2.643   0.917   5.071 -0.3727  0.0214 -0.1353
10627TIP3    H153296   2.552   0.897   5.049 -0.5051  0.5669 -0.1058
10627TIP3    H253297   2.643   0.929   5.166 -0.7089  2.0928 -0.3395
10628TIP3   OH253298   0.216   4.115  14.572 -0.3978  0.2469 -0.0932
10628TIP3    H153299   0.294   4.064  14.550 -0.4745  0.1444 -0.1319
10628TIP3    H253300   0.190   4.154  14.489 -2.2197 -2.2482 -0.8236
10629TIP3   OH253301   0.749   0.163   2.910  0.5192 -0.0063 -0.0425
10629TIP3    H153302   0.839   0.183   2.882  0.8790  1.2105  1.8041
10629TIP3    H253303   0.698   0.166   2.829  2.0676 -0.3580 -1.0883
10630TIP3   OH253304   6.724   5.442  16.448 -0.2597 -1.0163  0.4386
10630TIP3    H153305   6.697   5.521  16.402 -2.2434 -0.8824  1.7407
10630TIP3    H253306   6.739   5.378  16.378  0.3200  0.1635 -0.5630
10631TIP3   OH253307   4.895   6.382  15.967 -0.0145  0.2350  0.6136
10631TIP3    H153308   4.925   6.336  16.045  1.6861  0.9743  0.4421
10631TIP3    H253309   4.933   6.332  15.894  1.0280  1.3045  0.3943
10632TIP3   OH253310   1.358   4.136   4.955 -0.2301 -0.3571 -0.3379
10632TIP3    H153311   1.406   4.094   5.027  0.8067 -0.6420 -1.1710
10632TIP3    H253312   1.420   4.136   4.882 -0.8063  1.1276 -0.8477
10633TIP3   OH253313   5.038   6.560   2.282 -0.4643 -0.3967 -0.0666
10633TIP3    H153314   5.048   6.530   2.372 -2.3008  0.6684  0.5480
10633TIP3    H253315   4.979   6.497   2.241 -0.6795 -0.1667 -0.1178
10634TIP3   OH253316   6.666   0.405   4.741  0.1546  0.2185 -0.6451
10634TIP3    H153317   6.722   0.344   4.789 -0.0752  0.4680 -0.0563
10634TIP3    H253318   6.726   0.472   4.708  0.3250 -0.0007 -0.7813
10635TIP3   OH253319   3.499   5.775  10.850  0.1740  0.1617 -0.1509
10635TIP3    H153320   3.429   5.829  10.813  0.8426  2.0633  1.1805
10635TIP3    H253321   3.580   5.810  10.810  0.5143 -0.9010 -0.4220
10636TIP3   OH253322   3.874   2.589  11.578  0.3968 -0.0524  0.0483
10636TIP3    H153323   3.896   2.542  11.658 -3.1059 -0.0609  1.1791
10636TIP3    H253324   3.886   2.525  11.508  1.6001 -0.6549  0.7802
10637TIP3   OH253325   3.109   2.355  11.404  0.1446 -0.2666  0.2029
10637TIP3    H153326   3.164   2.309  11.468  1.2238 -0.0859 -0.5789
10637TIP3    H253327   3.033   2.383  11.455 -0.5185 -2.7982  0.7413
10638TIP3   OH253328   5.837   2.550   0.416 -0.2578 -0.0790  0.1373
10638TIP3    H153329   5.773   2.483   0.441  0.4393 -0.0033  2.3322
10638TIP3    H253330   5.903   2.502   0.366 -1.1237 -0.4849 -0.6491
10639TIP3   OH253331   6.644   3.971   4.884  0.0974  0.4891  0.4388
10639TIP3    H153332   6.574   3.948   4.822 -0.6305 -1.3466  1.8452
10639TIP3    H253333   6.617   3.932   4.967  0.7791  3.3047  2.1251
10640TIP3   OH253334   4.475   2.174   0.428 -0.0509  0.4204 -0.1686
10640TIP3    H153335   4.459   2.230   0.352  0.3138  1.4098  0.4524
10640TIP3    H253336   4.388   2.152   0.461 -0.2096  1.2814  0.0238
10641TIP3   OH253337   4.193   6.637   4.863  0.6219  0.1393 -0.5776
10641TIP3    H153338   4.180   6.636   4.958 -0.4766 -0.8159 -0.7093
10641TIP3    H253339   4.213   6.729   4.842  0.4988  0.4309  0.5223
10642TIP3   OH253340   4.521   1.562   3.436  0.3494 -0.2550 -0.5189
10642TIP3    H153341   4.459   1.566   3.509  1.1919  0.1756  0.1847
10642TIP3    H253342   4.532   1.469   3.418 -0.0512 -0.3531 -0.2631
10643TIP3   OH253343   0.028   1.243  14.221  0.0668 -0.1474  0.0968
10643TIP3    H153344   0.111   1.229  14.266  0.0258 -1.4241 -0.1663
10643TIP3    H253345  -0.038   1.238  14.290  0.1439 -0.0250  0.1801
10644TIP3   OH253346   3.978   5.778   1.322  0.0408 -0.0400 -0.0825
10644TIP3    H153347   3.902   5.756   1.376 -0.0673  0.1361 -0.1627
10644TIP3    H253348   4.001   5.696   1.279 -0.9940  0.2214 -1.1867
10645TIP3   OH253349   4.130   3.130  14.744  0.3334 -0.5334  0.2132
10645TIP3    H153350   4.097   3.111  14.657  1.9009  0.6609 -0.7164
10645TIP3    H253351   4.141   3.045  14.786  0.7667 -1.2207 -1.2537
10646TIP3   OH253352   5.403   6.333   2.149 -0.4256  0.7408  0.1422
10646TIP3    H153353   5.493   6.334   2.116 -0.8927 -0.5443 -1.2527
10646TIP3    H253354   5.376   6.425   2.146  0.4318  0.9856 -0.5922
10647TIP3   OH253355   1.770   4.771  16.639 -0.5324  0.0281 -0.1336
10647TIP3    H153356   1.863   4.770  16.659 -0.5465  1.7059  0.1558
10647TIP3    H253357   1.764   4.823  16.559 -1.5118  3.3600  1.9259
10648TIP3   OH253358   2.971   4.273  14.300  0.1531  0.3625  0.3709
10648TIP3    H153359   2.969   4.248  14.208 -1.2257 -1.7762  0.9119
10648TIP3    H253360   3.010   4.360  14.300  1.4067 -0.1076 -2.0863
10649TIP3   OH253361   0.310   1.555  16.756  0.5131  0.0628 -0.4809
10649TIP3    H153362   0.249   1.482  16.743 -0.4366  1.1198 -2.4854
10649TIP3    H253363   0.325   1.557  16.850 -0.9837 -1.4786 -0.1529
10650TIP3   OH253364   4.611   4.439  16.896 -0.0008  0.2505  0.2250
10650TIP3    H153365   4.644   4.350  16.894 -0.4386  0.0171  1.9589
10650TIP3    H253366   4.687   4.493  16.920  0.3626  0.4299 -1.2291
10651TIP3   OH253367   3.762   4.164  11.020  0.2051 -0.1570  0.2146
10651TIP3    H153368   3.767   4.248  11.066  0.1836 -0.9727  1.7596
10651TIP3    H253369   3.669   4.150  11.005  0.2822  0.8652 -1.6212
10652TIP3   OH253370   6.451   2.906  11.486 -0.6039 -0.0546 -0.2278
10652TIP3    H153371   6.514   2.894  11.414  0.1713 -0.7756  0.5393
10652TIP3    H253372   6.432   2.999  11.486 -0.4872 -0.0165 -1.2631
10653TIP3   OH253373   5.978   5.927   6.265 -0.1077 -0.2655 -0.3340
10653TIP3    H153374   5.905   5.957   6.319  1.0496 -0.1099  1.1852
10653TIP3    H253375   6.037   5.884   6.325  0.4285 -1.6209 -1.7701
10654TIP3   OH253376   1.998   0.929  13.201 -0.3314 -0.1167 -0.0699
10654TIP3    H153377   2.059   0.927  13.274  0.7978 -0.5223 -0.9893
10654TIP3    H253378   1.986   0.837  13.178  0.5019  0.0606 -1.3152
10655TIP3   OH253379   5.761   2.045  15.360  0.0819  0.0152  0.0055
10655TIP3    H153380   5.786   2.012  15.447 -0.7641  0.1453  0.3116
10655TIP3    H253381   5.709   1.974  15.322 -0.1632  0.2527 -0.1017
10656TIP3   OH253382   5.541   0.651   1.458 -0.9035  0.5504 -0.6987
10656TIP3    H153383   5.608   0.718   1.476  0.0650 -0.5832  0.0270
10656TIP3    H253384   5.466   0.701   1.425 -1.0712  2.2817  1.9705
10657TIP3   OH253385   0.578   6.228  11.773 -0.0528  0.0577 -0.5432
10657TIP3    H153386   0.545   6.219  11.683  0.1613  1.6450 -0.8137
10657TIP3    H253387   0.615   6.317  11.775  0.6939 -0.2729  0.8767
10658TIP3   OH253388   0.632   5.507   3.605  0.4184 -0.1491  0.5082
10658TIP3    H153389   0.570   5.434   3.610  1.2143 -0.8138  1.2570
10658TIP3    H253390   0.585   5.577   3.560 -0.3270 -1.1725 -0.3529
10659TIP3   OH253391   1.110   2.685  16.022  0.3872 -0.8494 -1.4146
10659TIP3    H153392   1.094   2.602  16.067 -1.9729  1.5897  2.9735
10659TIP3    H253393   1.188   2.721  16.064 -0.4333  0.4304 -0.9171
10660TIP3   OH253394   6.100   4.793   0.718 -0.1416  0.2956  0.1154
10660TIP3    H153395   6.166   4.730   0.746  0.5142  1.7939  2.1374
10660TIP3    H253396   6.027   4.779   0.778 -1.9115 -1.5176 -2.2456
10661TIP3   OH253397   5.477   6.663   3.647  0.1086 -0.0858  0.3567
10661TIP3    H153398   5.433   6.670   3.731 -0.1396 -2.0396  0.4309
10661TIP3    H253399   5.570   6.665   3.668  0.0551 -1.4899  0.8010
10662TIP3   OH253400   2.009   5.501  16.371 -0.0522  0.2570 -0.3643
10662TIP3    H153401   2.075   5.498  16.440  1.2874  0.8430 -1.5731
10662TIP3    H253402   1.946   5.566  16.401  0.2422  0.1480  0.5239
10663TIP3   OH253403   4.639   2.449  11.202  0.0430 -0.1969 -0.1248
10663TIP3    H153404   4.590   2.508  11.259 -0.2399 -0.5553  0.0054
10663TIP3    H253405   4.583   2.371  11.194  0.8401 -0.8502  0.4955
10664TIP3   OH253406   3.196   5.321  14.977  0.4846 -0.0298  0.1321
10664TIP3    H153407   3.142   5.252  14.936  0.8468 -0.5305  0.4863
10664TIP3    H253408   3.245   5.359  14.904 -1.0169  1.0865 -0.3657
10665TIP3   OH253409   6.287   1.062   2.885  0.4392  0.5111  0.0911
10665TIP3    H153410   6.229   1.137   2.875  0.2934  0.4458  0.4108
10665TIP3    H253411   6.230   0.986   2.878  0.5499  0.4358  0.0000
10666TIP3   OH253412   5.534   0.967  11.245 -0.2268  0.1891 -0.6691
10666TIP3    H153413   5.529   0.900  11.177 -0.0131 -0.7599  0.2299
10666TIP3    H253414   5.544   1.049  11.197  1.5555 -0.6177 -1.7442
10667TIP3   OH253415   4.394   2.331  13.999  0.4991 -0.8542 -0.0447
10667TIP3    H153416   4.490   2.336  14.001  0.5494 -1.7480  0.0109
10667TIP3    H253417   4.366   2.399  14.060  1.1481 -1.5420  1.0631
10668TIP3   OH253418   6.163   1.211  13.507  0.1407 -0.5560 -0.3607
10668TIP3    H153419   6.230   1.239  13.569  0.8734 -0.6306 -1.1038
10668TIP3    H253420   6.134   1.127  13.540 -0.7853  0.2176  0.8839
10669TIP3   OH253421   3.281   1.184  13.804 -0.1603  0.2645 -0.1041
10669TIP3    H153422   3.246   1.103  13.838  1.3105  0.1124  1.1463
10669TIP3    H253423   3.206   1.243  13.799 -0.9633 -0.6905  0.4376
10670TIP3   OH253424   4.730   5.481  12.130  0.3115  0.2987 -0.1170
10670TIP3    H153425   4.641   5.445  12.132 -0.0617  1.1715 -0.5332
10670TIP3    H253426   4.719   5.570  12.098  1.2183  0.7992  0.8999
10671TIP3   OH253427   0.859   5.693  11.310 -0.0876  0.2411  0.7462
10671TIP3    H153428   0.911   5.744  11.247  0.6215  0.0930  1.1959
10671TIP3    H253429   0.916   5.685  11.387 -1.0943  0.7692  1.5738
10672TIP3   OH253430   1.816   6.629  15.412  0.2927  0.8489  0.1153
10672TIP3    H153431   1.795   6.630  15.506  1.6280 -0.0147  0.4615
10672TIP3    H253432   1.896   6.680  15.405 -0.4359  1.9070 -0.7603
10673TIP3   OH253433   1.753   2.233   0.986 -0.2589  0.5020 -0.5834
10673TIP3    H153434   1.680   2.188   1.029 -1.3399  1.0059 -1.8175
10673TIP3    H253435   1.763   2.314   1.036  0.0746  0.0377  0.1343
10674TIP3   OH253436   1.181   3.049  15.103  0.0035  0.0344  0.6439
10674TIP3    H153437   1.223   2.997  15.035  1.3729  1.8822 -0.0352
10674TIP3    H253438   1.160   3.132  15.060 -2.4987 -0.0464  1.5559
10675TIP3   OH253439   3.897   1.281   6.560  0.5686  0.2478  0.6991
10675TIP3    H153440   3.905   1.198   6.513 -2.8695  0.0653  0.2280
10675TIP3    H253441   3.928   1.262   6.648  1.6350 -0.9788  0.0974
10676TIP3   OH253442   3.538   6.778  12.423 -0.5192  0.7218 -0.2651
10676TIP3    H153443   3.485   6.799  12.500  0.1382  0.0995  0.3677
10676TIP3    H253444   3.614   6.732  12.458 -0.3122  0.2450 -1.3103
10677TIP3   OH253445   1.449   6.644  14.648 -0.2271  0.1143 -0.6152
10677TIP3    H153446   1.442   6.727  14.600 -1.8942 -0.3229 -1.1788
10677TIP3    H253447   1.529   6.654  14.700  0.6002  1.3735 -2.0133
10678TIP3   OH253448   5.199   3.370  13.055  0.0754  0.0392  0.5990
10678TIP3    H153449   5.194   3.456  13.097  0.3775 -0.1970  1.1324
10678TIP3    H253450   5.110   3.335  13.062 -0.2554  0.6545 -0.3873
10679TIP3   OH253451   3.187   1.741  13.929 -1.0032  0.4796 -0.0298
10679TIP3    H153452   3.263   1.684  13.917 -0.2055  1.1560  1.4870
10679TIP3    H253453   3.179   1.788  13.846  0.5714  0.7627 -0.0524
10680TIP3   OH253454   5.649   3.145  13.313  0.2633 -0.1118 -0.5901
10680TIP3    H153455   5.646   3.062  13.266  0.6178 -1.4776  1.6871
10680TIP3    H253456   5.573   3.143  13.371  1.0372  0.5374  0.4800
10681TIP3   OH253457   6.486   6.163  12.088  0.2891  0.3131 -0.1946
10681TIP3    H153458   6.403   6.119  12.104 -0.1878  0.9394 -0.9217
10681TIP3    H253459   6.493   6.228  12.159 -1.2391  2.2388 -1.6829
10682TIP3   OH253460   5.024   5.992  15.197 -0.5105 -0.5014  0.0941
10682TIP3    H153461   4.928   5.998  15.201 -0.5129  0.6037 -1.0596
10682TIP3    H253462   5.040   5.903  15.165 -1.1082 -0.9143  0.8822
10683TIP3   OH253463   6.100   4.036  14.044 -0.1273 -0.1592 -0.2158
10683TIP3    H153464   6.082   4.059  14.136 -0.8430 -0.2689 -0.3236
10683TIP3    H253465   6.016   4.008  14.010 -0.0975  0.8875 -1.2016
10684TIP3   OH253466   4.947   4.429   4.422  0.2044  0.0165  0.6199
10684TIP3    H153467   4.975   4.483   4.349 -0.6185 -0.5541 -0.1414
10684TIP3    H253468   5.022   4.372   4.441  0.2643 -0.1377 -0.0771
10685TIP3   OH253469   5.723   2.580   0.794  0.3891  0.2340  0.1726
10685TIP3    H153470   5.815   2.555   0.802 -0.0806 -1.7632 -0.0719
10685TIP3    H253471   5.720   2.639   0.719  1.2098 -1.2982 -1.1239
10686TIP3   OH253472   5.455   2.890  13.891 -0.0569 -0.0104 -0.6621
10686TIP3    H153473   5.394   2.916  13.822 -2.4350  0.0850  1.3289
10686TIP3    H253474   5.501   2.814  13.856 -0.9151  0.2635 -2.4630
10687TIP3   OH253475   4.967   3.144  16.986  1.0589 -0.0632  0.4535
10687TIP3    H153476   4.944   3.178  17.073 -0.7878 -0.7556  0.2771
10687TIP3    H253477   4.955   3.049  16.993  0.0637 -0.0473 -0.7782
10688TIP3   OH253478   5.672   3.960   5.205 -0.5395 -0.4564 -0.1273
10688TIP3    H153479   5.689   3.883   5.152 -2.0615  0.0460 -1.4375
10688TIP3    H253480   5.634   3.925   5.286 -0.8227 -1.1077 -0.5331
10689TIP3   OH253481   1.123   5.417  11.757 -0.4386 -0.1628  0.2650
10689TIP3    H153482   1.177   5.363  11.814 -0.2106  0.0384  0.2425
10689TIP3    H253483   1.133   5.506  11.791  0.4419  0.1005 -0.6441
10690TIP3   OH253484   4.781   2.049   0.288 -0.1115  0.1004 -0.3435
10690TIP3    H153485   4.745   1.965   0.259  1.3717  0.0049 -2.1462
10690TIP3    H253486   4.741   2.113   0.230  0.5750  0.3088 -0.6022
10691TIP3   OH253487   0.376   2.157   1.106 -0.2521 -0.6295  0.3328
10691TIP3    H153488   0.285   2.186   1.111 -0.5392 -1.5936  1.0778
10691TIP3    H253489   0.427   2.228   1.143 -0.7394 -0.2299  0.2442
10692TIP3   OH253490   4.320   0.297   2.705  0.2394  0.0645  0.2441
10692TIP3    H153491   4.361   0.238   2.768 -0.1380 -0.0596  0.3787
10692TIP3    H253492   4.262   0.241   2.654  0.9620  0.0600 -0.5979
10693TIP3   OH253493   6.440   2.125  15.370  0.3617  0.5561  0.1785
10693TIP3    H153494   6.406   2.141  15.458  0.6181  1.3130  0.1441
10693TIP3    H253495   6.532   2.103  15.384  0.4138  0.7216  0.0956
10694TIP3   OH253496   3.597   2.070   1.449 -0.0804 -0.8169 -0.6606
10694TIP3    H153497   3.550   2.001   1.402  0.1455  1.2002 -4.2181
10694TIP3    H253498   3.529   2.132   1.474  0.1155 -0.3946 -1.1585
10695TIP3   OH253499   0.314   5.951  15.833 -0.1520  0.3002 -0.3254
10695TIP3    H153500   0.287   6.010  15.904 -1.6472  1.5337 -1.8149
10695TIP3    H253501   0.235   5.901  15.812  0.5405 -0.7447 -0.4782
10696TIP3   OH253502   5.726   2.689   2.782  0.4310  0.0286  0.3470
10696TIP3    H153503   5.779   2.611   2.770  2.5186  1.4522 -0.3695
10696TIP3    H253504   5.638   2.664   2.754  0.7806 -2.3272  1.2070
10697TIP3   OH253505   0.949   1.752  13.412 -0.7131  0.1897 -0.4942
10697TIP3    H153506   0.930   1.835  13.456 -0.6867  0.3068 -0.7000
10697TIP3    H253507   1.021   1.714  13.462 -2.3688 -0.9252  1.1421
10698TIP3   OH253508   0.052   2.315  14.496  0.3939 -0.0415 -0.3574
10698TIP3    H153509   0.086   2.404  14.506 -0.2529  0.2032 -0.3122
10698TIP3    H253510  -0.043   2.325  14.497  0.3145 -0.7578 -0.1168
10699TIP3   OH253511   5.945   5.416  12.718  0.3193 -0.6015  0.2181
10699TIP3    H153512   5.972   5.329  12.749  0.4006 -0.8227 -0.4412
10699TIP3    H253513   5.984   5.477  12.780  1.8410 -0.9486 -0.3504
10700TIP3   OH253514   2.857   3.332   6.196  0.7900  0.1523 -0.0115
10700TIP3    H153515   2.832   3.290   6.278 -0.0562 -2.6141 -1.5881
10700TIP3    H253516   2.774   3.360   6.157  1.2773  2.8996  0.6683
10701TIP3   OH253517   5.166   0.485   0.551  0.1262 -0.1860 -0.6915
10701TIP3    H153518   5.168   0.580   0.543 -0.4482 -0.1766 -0.8241
10701TIP3    H253519   5.149   0.469   0.644 -0.8778 -0.1281 -0.8522
10702TIP3   OH253520   1.381   4.354  11.523  0.1903  0.1366 -0.1766
10702TIP3    H153521   1.367   4.431  11.467 -2.2770  0.0102  0.1832
10702TIP3    H253522   1.403   4.284  11.462 -1.7204  0.1782 -0.9812
10703TIP3   OH253523   5.279   5.278  17.211 -0.6186 -0.6099  0.1955
10703TIP3    H153524   5.338   5.345  17.177 -0.7733 -0.6928 -0.2499
10703TIP3    H253525   5.313   5.196  17.176 -1.2248 -0.6151 -0.3957
10704TIP3   OH253526   2.986   1.652   3.701 -0.4847  0.0946  0.5615
10704TIP3    H153527   2.920   1.694   3.646  0.0592  0.8087  0.4393
10704TIP3    H253528   2.962   1.560   3.701 -0.6662  0.1269 -0.6427
10705TIP3   OH253529   3.697   2.957  13.855  0.0679 -0.3874  0.3623
10705TIP3    H153530   3.715   2.871  13.816 -0.9601 -0.5288  0.1797
10705TIP3    H253531   3.604   2.954  13.877  0.1290  0.5195  0.7699
10706TIP3   OH253532   3.463   3.443  12.952 -0.2793  0.2031  0.0676
10706TIP3    H153533   3.443   3.535  12.967  0.6881  0.5274 -0.5879
10706TIP3    H253534   3.494   3.439  12.861  2.4230 -0.2756  0.9237
10707TIP3   OH253535   5.994   6.019  15.583  0.3799  0.0424 -0.6201
10707TIP3    H153536   5.928   5.950  15.579  1.2142 -0.8679  0.3861
10707TIP3    H253537   6.074   5.973  15.607  0.5079  1.5856  2.4173
10708TIP3   OH253538   5.985   3.159  10.746  0.2012 -0.1517 -0.0853
10708TIP3    H153539   5.899   3.153  10.706 -1.1228  1.9833  2.1978
10708TIP3    H253540   6.046   3.164  10.672 -1.9220  1.8192 -1.8347
10709TIP3   OH253541   4.543   4.486  16.414 -0.1180 -0.1697 -0.0027
10709TIP3    H153542   4.521   4.571  16.378 -0.5012 -0.6862 -1.0294
10709TIP3    H253543   4.469   4.463  16.470 -0.3884 -0.1756 -0.3600
10710TIP3   OH253544   0.009   6.753  12.646  0.5211 -0.0808  0.1589
10710TIP3    H153545  -0.053   6.692  12.685  0.0412  0.3638  0.0972
10710TIP3    H253546   0.093   6.707  12.649 -0.0249 -1.2313 -0.9358
10711TIP3   OH253547   4.714   1.662   4.144  0.0377  0.6837 -0.4018
10711TIP3    H153548   4.765   1.641   4.222 -0.1467 -0.7800 -0.6563
10711TIP3    H253549   4.651   1.728   4.174  0.9640  1.2571  0.3109
10712TIP3   OH253550   5.129   2.538  13.124 -0.1347 -0.4095  0.5052
10712TIP3    H153551   5.210   2.488  13.136  0.9429  1.0771 -0.2374
10712TIP3    H253552   5.139   2.614  13.181 -0.0774  0.8080 -1.0537
10713TIP3   OH253553   1.567   6.018   3.501  0.3423 -0.2351  1.1299
10713TIP3    H153554   1.654   6.042   3.534  0.1493 -0.1007  1.5469
10713TIP3    H253555   1.563   6.056   3.414 -0.1493  1.7637  1.9616
10714TIP3   OH253556   4.075   4.791  12.534 -0.1653 -0.0437 -0.5677
10714TIP3    H153557   4.007   4.825  12.476 -0.2475  2.0956  0.6845
10714TIP3    H253558   4.038   4.800  12.622  0.5093 -1.9027 -0.0477
10715TIP3   OH253559   2.550   0.764  16.026 -0.3599  0.7227 -0.3987
10715TIP3    H153560   2.595   0.837  16.070 -1.0075  1.3959 -0.8303
10715TIP3    H253561   2.504   0.805  15.953  0.6894 -0.3718 -1.7321
10716TIP3   OH253562   3.451   2.449   1.801  0.0982 -0.2954  0.3508
10716TIP3    H153563   3.458   2.512   1.729 -0.9410  1.0346  1.3781
10716TIP3    H253564   3.389   2.488   1.862 -1.1624 -2.6621  0.6989
10717TIP3   OH253565   3.278   1.108  15.431  0.1451 -0.4914 -0.7155
10717TIP3    H153566   3.367   1.104  15.467  0.6147  2.1440 -1.3553
10717TIP3    H253567   3.286   1.073  15.342  0.4043 -0.8384 -0.5586
10718TIP3   OH253568   1.190   0.099  11.742  0.0682 -0.0513 -0.2714
10718TIP3    H153569   1.272   0.085  11.694 -0.5029  0.5270 -1.4597
10718TIP3    H253570   1.169   0.191  11.725 -1.2797 -0.4241 -0.7248
10719TIP3   OH253571   3.747   5.044   6.766 -0.0606  0.1234  0.5840
10719TIP3    H153572   3.692   5.041   6.688 -0.5712 -1.3712  0.9675
10719TIP3    H253573   3.805   4.968   6.758  0.0234  0.0649  1.5462
10720TIP3   OH253574   6.742   6.720  14.159  0.4262 -0.4894  0.3985
10720TIP3    H153575   6.803   6.773  14.106 -0.1146 -0.4261 -0.1663
10720TIP3    H253576   6.735   6.768  14.242  2.4001 -1.3252  1.1185
10721TIP3   OH253577   2.732   4.457   2.064  0.2689 -0.0533 -0.1373
10721TIP3    H153578   2.797   4.514   2.023  0.1249  2.1857  2.4463
10721TIP3    H253579   2.784   4.390   2.107  0.6730  0.0351 -0.4766
10722TIP3   OH253580   4.807   2.646  13.287  0.1733 -0.0971 -0.2247
10722TIP3    H153581   4.757   2.660  13.368  0.2758  0.0427 -0.1856
10722TIP3    H253582   4.741   2.640  13.219  0.1542  2.9078 -0.6265
10723TIP3   OH253583   4.400   5.220  11.001 -0.0489 -0.3852 -0.3014
10723TIP3    H153584   4.332   5.199  10.938  0.6060 -1.1309 -0.7721
10723TIP3    H253585   4.440   5.136  11.022  0.0204 -0.0946  0.7970
10724TIP3   OH253586   5.156   5.154   6.182 -0.0714 -0.7628  0.3358
10724TIP3    H153587   5.157   5.245   6.213 -1.6106  0.1913 -2.0836
10724TIP3    H253588   5.115   5.104   6.252 -1.6382  0.9009  0.6725
10725TIP3   OH253589   2.761   6.354   1.279  0.3875  0.6121 -0.3026
10725TIP3    H153590   2.820   6.409   1.330 -1.1251  0.7556  1.4079
10725TIP3    H253591   2.817   6.288   1.239  1.5122 -0.6384  3.0639
10726TIP3   OH253592   2.555   5.785   4.701  0.0914  0.2586  0.1601
10726TIP3    H153593   2.475   5.820   4.739  0.0322  1.3878 -0.9307
10726TIP3    H253594   2.545   5.690   4.707 -0.1900  0.3716  2.3067
10727TIP3   OH253595   2.578   1.486   5.350  0.4760 -0.2726 -0.6344
10727TIP3    H153596   2.546   1.525   5.431  0.0559 -0.3383 -0.7668
10727TIP3    H253597   2.587   1.393   5.370 -0.1125 -0.3732 -0.8058
10728TIP3   OH253598   3.995   4.684   2.198  0.0768  0.2451 -0.2103
10728TIP3    H153599   3.982   4.778   2.212  1.0141  0.4798 -0.8116
10728TIP3    H253600   4.069   4.661   2.254 -0.4644 -0.2541  0.3156
10729TIP3   OH253601   5.391   5.517   5.459  0.3949  0.6448  0.5055
10729TIP3    H153602   5.326   5.487   5.395  0.1376  0.3251  0.9111
10729TIP3    H253603   5.429   5.595   5.419 -1.5888  1.9771  1.0820
10730TIP3   OH253604   0.114   2.027  12.387  0.0163 -0.2023  0.6875
10730TIP3    H153605   0.034   2.052  12.342  0.9285  0.0771 -0.8590
10730TIP3    H253606   0.183   2.041  12.322  1.3920  0.1488  2.1688
10731TIP3   OH253607   3.961   1.021   0.873  1.0256  0.4560 -0.1593
10731TIP3    H153608   3.951   1.093   0.811  0.3435 -1.2974 -2.2267
10731TIP3    H253609   4.039   0.974   0.842 -0.2353 -1.3550 -0.7244
10732TIP3   OH253610   2.421   2.262   5.745  0.2615  0.2309  0.0201
10732TIP3    H153611   2.387   2.180   5.709 -0.7799  0.9830 -0.7745
10732TIP3    H253612   2.447   2.240   5.835  0.6838 -1.1281 -0.4152
10733TIP3   OH253613   2.459   4.068  14.357 -0.1887  0.0197 -0.5665
10733TIP3    H153614   2.486   4.083  14.266  1.3478 -0.8975 -0.2985
10733TIP3    H253615   2.494   3.981  14.378 -0.9234  0.0234  0.7721
10734TIP3   OH253616   3.696   5.272   4.882  0.0415 -0.1638 -0.5238
10734TIP3    H153617   3.617   5.300   4.837  0.0921  2.0155  0.5873
10734TIP3    H253618   3.665   5.236   4.965  0.1352 -1.0488 -0.8616
10735TIP3   OH253619   3.213   1.675   0.004 -0.3926 -0.0962  0.7836
10735TIP3    H153620   3.187   1.756  -0.040  0.4455 -0.1421  0.1753
10735TIP3    H253621   3.296   1.698   0.048  0.3764 -0.8787 -0.2221
10736TIP3   OH253622   6.357   3.223   5.556  0.3502  0.0808  0.0701
10736TIP3    H153623   6.347   3.226   5.651  0.6471  0.2195  0.0995
10736TIP3    H253624   6.375   3.314   5.531 -0.7369  0.2190 -0.2396
10737TIP3   OH253625   4.315   5.927   5.583  0.1981 -0.4507 -0.2541
10737TIP3    H153626   4.244   5.963   5.529 -0.8711 -1.0563  0.7089
10737TIP3    H253627   4.359   6.004   5.619  0.5735 -0.0495 -1.5019
10738TIP3   OH253628   5.743   4.765  14.978  0.0591 -0.1371 -0.0461
10738TIP3    H153629   5.689   4.844  14.978  1.0440  0.5649  0.3715
10738TIP3    H253630   5.710   4.714  15.052 -0.4698 -0.0302 -0.2072
10739TIP3   OH253631   1.376   6.278  12.494 -0.2180  0.4076  0.3271
10739TIP3    H153632   1.298   6.253  12.545 -0.1406  1.9023  1.2466
10739TIP3    H253633   1.448   6.272  12.557  0.1124  0.8544 -0.0057
10740TIP3   OH253634   2.987   2.541  13.349  0.3680  0.4137  0.1992
10740TIP3    H153635   3.010   2.600  13.277  0.0137 -1.0828 -1.1972
10740TIP3    H253636   2.913   2.490  13.315  1.5009 -1.7596  0.8276
10741TIP3   OH253637   3.190   2.143  15.021 -0.3602 -0.1010  0.7625
10741TIP3    H153638   3.173   2.051  15.039 -1.2394  0.2962  2.1800
10741TIP3    H253639   3.267   2.165  15.073  0.6342 -0.3194 -0.5721
10742TIP3   OH253640   2.879   3.627  12.122  0.0135 -0.2907 -0.2306
10742TIP3    H153641   2.838   3.664  12.200  0.3888  0.1704 -0.2461
10742TIP3    H253642   2.808   3.580  12.077 -0.6857  1.0995 -0.6406
10743TIP3   OH253643   3.079   2.454  16.731 -0.1257 -0.1751 -0.3129
10743TIP3    H153644   3.130   2.454  16.812  0.5918  0.6226 -0.7458
10743TIP3    H253645   2.994   2.417  16.755  0.7966 -1.9781  0.3200
10744TIP3   OH253646   4.911   4.479  16.954  0.4033 -1.0981 -0.2542
10744TIP3    H153647   4.902   4.397  16.905 -2.7342 -1.1111  0.1688
10744TIP3    H253648   4.895   4.455  17.045 -0.3746 -0.0708 -0.1022
10745TIP3   OH253649   3.609   6.631   6.488 -0.1316 -0.4787  0.2264
10745TIP3    H153650   3.517   6.627   6.513 -0.4215 -2.1755 -0.9247
10745TIP3    H253651   3.655   6.580   6.555  0.0157  0.5336  0.9101
10746TIP3   OH253652   3.863   3.799   3.387 -0.4867 -0.3318  0.5590
10746TIP3    H153653   3.870   3.761   3.299  2.1654  0.5525  0.3024
10746TIP3    H253654   3.803   3.873   3.376  1.9692  1.5540 -1.2704
10747TIP3   OH253655   2.480   3.909   2.604  0.8834  0.2195 -0.5518
10747TIP3    H153656   2.408   3.948   2.554 -0.8808 -0.1711  1.5140
10747TIP3    H253657   2.447   3.905   2.694  3.0769 -1.0608  0.2747
10748TIP3   OH253658   4.304   2.127  14.455  0.0109 -0.0767 -0.1499
10748TIP3    H153659   4.338   2.207  14.415  1.3363 -0.6892 -0.3054
10748TIP3    H253660   4.238   2.157  14.517  0.5933  1.1499 -0.0968
10749TIP3   OH253661   4.818   6.645   3.081  0.0114  0.3048  0.5623
10749TIP3    H153662   4.773   6.599   3.010 -2.5091  0.1859  2.1206
10749TIP3    H253663   4.848   6.727   3.041  1.8127 -1.2306 -1.4558
10750TIP3   OH253664   4.179   0.119  13.501 -0.5875 -0.0308 -0.0351
10750TIP3    H153665   4.175   0.119  13.406 -1.3089  0.0628 -0.0098
10750TIP3    H253666   4.130   0.041  13.527 -1.1811  0.4377  0.2822
10751TIP3   OH253667   5.143   0.190  13.605 -0.7720 -0.3674 -0.2414
10751TIP3    H153668   5.225   0.151  13.576 -0.3284  1.8253 -2.1974
10751TIP3    H253669   5.130   0.156  13.693  2.1478 -0.9134  0.0707
10752TIP3   OH253670   5.379   4.471   1.821  0.1290  0.0403  0.4040
10752TIP3    H153671   5.362   4.545   1.879 -1.2558  1.1750 -1.3321
10752TIP3    H253672   5.463   4.436   1.850  0.7784  2.2179  1.3688
10753TIP3   OH253673   6.105   1.737   2.086  0.0755 -0.2860  0.0610
10753TIP3    H153674   6.173   1.767   2.147  0.1336 -0.6913  0.1996
10753TIP3    H253675   6.049   1.681   2.139 -0.5037  0.2238  0.0016
10754TIP3   OH253676   0.336   6.073   4.669  0.2190 -0.2527 -0.5902
10754TIP3    H153677   0.253   6.088   4.714  1.5162  0.5511  1.6815
10754TIP3    H253678   0.347   5.977   4.671 -1.2874 -0.5265 -2.2736
10755TIP3   OH253679   3.760   2.697   3.085  0.3962  0.0052 -0.0782
10755TIP3    H153680   3.667   2.695   3.105  0.0666 -0.0560 -1.4872
10755TIP3    H253681   3.779   2.610   3.049  0.9431  0.0830  0.0172
10756TIP3   OH253682   0.811   5.773   3.797  0.4468 -0.1688  0.5757
10756TIP3    H153683   0.888   5.822   3.828  1.3633 -1.0447 -0.2113
10756TIP3    H253684   0.788   5.814   3.715 -0.0790  0.2375  0.9234
10757TIP3   OH253685   3.722   4.769   0.588  0.2261 -0.1960 -0.1025
10757TIP3    H153686   3.645   4.825   0.587  0.3963  0.0353 -1.3029
10757TIP3    H253687   3.759   4.777   0.500  2.6011  1.0487  0.9192
10758TIP3   OH253688   4.229   3.994  14.526 -0.1188  0.5933  0.6112
10758TIP3    H153689   4.211   4.051  14.451 -1.8080  0.8721  1.1995
10758TIP3    H253690   4.316   3.958  14.508 -0.4944  0.6135 -1.5030
10759TIP3   OH253691   1.451   4.574  11.346  0.0651  0.2987  0.1671
10759TIP3    H153692   1.505   4.505  11.307 -0.0274  0.8224 -0.9312
10759TIP3    H253693   1.413   4.620  11.271 -1.2789  0.4456  0.9020
10760TIP3   OH253694   1.823   0.090   1.379  0.8754  0.5163 -0.2395
10760TIP3    H153695   1.844   0.180   1.405 -0.0419  0.4595  0.7556
10760TIP3    H253696   1.750   0.065   1.435  0.4663 -0.5102 -1.1868
10761TIP3   OH253697   2.736   0.941  11.943 -0.0831  0.2297 -0.2668
10761TIP3    H153698   2.759   0.994  11.867 -0.2147  0.5298 -0.0980
10761TIP3    H253699   2.799   0.966  12.010  0.2235 -0.2533 -0.3651
10762TIP3   OH253700   4.921   3.579  10.416  0.6025  0.3385 -0.4413
10762TIP3    H153701   4.983   3.611  10.482  0.5175  0.4447 -0.4118
10762TIP3    H253702   4.839   3.623  10.437  0.6351  0.5582 -0.7692
10763TIP3   OH253703   1.449   4.885  12.038  0.4951 -0.0938  0.4084
10763TIP3    H153704   1.431   4.969  11.996 -0.0764 -0.3448  0.1371
10763TIP3    H253705   1.543   4.873  12.029  0.5409  0.3897  0.2049
10764TIP3   OH253706   4.508   0.909  15.505 -0.7203  0.1159 -0.0572
10764TIP3    H153707   4.451   0.973  15.547 -1.1319 -0.5243  0.3847
10764TIP3    H253708   4.595   0.927  15.541 -0.7286  0.7848 -0.3673
10765TIP3   OH253709   3.791   5.036   1.555 -0.5274  0.2234 -0.1243
10765TIP3    H153710   3.799   5.030   1.460 -2.4513 -0.0897 -0.3008
10765TIP3    H253711   3.864   4.983   1.588  0.1366  0.2858 -1.4173
10766TIP3   OH253712   1.147   5.035   0.067  0.2272 -0.2522 -0.5822
10766TIP3    H153713   1.191   5.118   0.048 -0.0336  0.0287  0.0037
10766TIP3    H253714   1.212   4.968   0.045  0.4223  0.1036 -1.1071
10767TIP3   OH253715   0.370   4.488   3.412 -0.2119 -0.2064 -0.5517
10767TIP3    H153716   0.439   4.443   3.460  0.5449 -0.3350 -1.6993
10767TIP3    H253717   0.310   4.419   3.385 -0.9113 -0.0723  0.6032
10768TIP3   OH253718   1.523   0.886  15.186  0.6962  0.0152  0.5925
10768TIP3    H153719   1.610   0.911  15.155  1.0577 -1.3543  0.4590
10768TIP3    H253720   1.475   0.969  15.189  1.7414  0.6803 -0.1461
10769TIP3   OH253721   2.311   5.940  10.875 -0.1065  0.5614 -0.1831
10769TIP3    H153722   2.330   5.898  10.792 -1.8474 -1.7322  0.4827
10769TIP3    H253723   2.243   6.005  10.855  0.1804  0.7122 -0.6798
10770TIP3   OH253724   2.773   4.978  15.984  0.3309  0.5612 -0.1403
10770TIP3    H153725   2.770   4.924  15.905  2.0359  0.4765 -0.1989
10770TIP3    H253726   2.789   5.067  15.951  0.6715  0.5851  0.0872
10771TIP3   OH253727   2.387   1.129  14.548  0.1816  0.6089 -0.6117
10771TIP3    H153728   2.303   1.158  14.583  0.5069  0.9773 -0.1275
10771TIP3    H253729   2.419   1.205  14.499 -0.8178 -0.2676 -2.7759
10772TIP3   OH253730   1.943   5.792  15.896 -0.4808  0.1550  0.0697
10772TIP3    H153731   1.892   5.860  15.852 -2.7203 -0.6436  1.2817
10772TIP3    H253732   1.879   5.728  15.925  1.2972 -1.2482  1.1728
10773TIP3   OH253733   6.365   6.779  15.924 -0.6250 -0.1979 -0.0428
10773TIP3    H153734   6.450   6.792  15.966 -1.0700  1.2830  0.4580
10773TIP3    H253735   6.381   6.799  15.832 -0.7075  1.6018  0.2843
10774TIP3   OH253736   4.036   1.310  13.929 -0.2725  0.0719 -0.2291
10774TIP3    H153737   3.971   1.275  13.990 -0.5425  0.7315 -0.1348
10774TIP3    H253738   4.044   1.403  13.953  1.3282 -0.1787  0.3292
10775TIP3   OH253739   1.731   6.039   3.715  0.2965  0.1367  0.1103
10775TIP3    H153740   1.761   6.105   3.778 -1.3054 -0.6412  1.8250
10775TIP3    H253741   1.810   6.006   3.674  1.3058  1.5674  0.8265
10776TIP3   OH253742   5.570   4.117   5.774  0.2469  0.4256 -0.0882
10776TIP3    H153743   5.510   4.151   5.841  0.3516  0.1968  0.1270
10776TIP3    H253744   5.534   4.148   5.691 -0.8333 -0.6805 -0.0603
10777TIP3   OH253745   4.948   1.079  13.733  0.4034  0.1478 -0.1996
10777TIP3    H153746   4.997   1.157  13.707 -0.2309  0.3218 -0.9422
10777TIP3    H253747   4.940   1.028  13.652  1.2712 -0.9569  0.3892
10778TIP3   OH253748   5.308   5.081  15.788 -0.0240  0.0931 -0.4837
10778TIP3    H153749   5.400   5.056  15.782  0.2711  0.3905  1.7615
10778TIP3    H253750   5.261   4.998  15.803  0.1946  0.1683  0.7186
10779TIP3   OH253751   1.487   4.209   1.817  0.3198 -0.0068  0.2260
10779TIP3    H153752   1.425   4.158   1.765  0.4025 -0.1474  0.2646
10779TIP3    H253753   1.558   4.230   1.756  0.3572 -0.0654  0.2492
10780TIP3   OH253754   5.814   5.473   2.630  0.0418  0.2953  0.1481
10780TIP3    H153755   5.872   5.494   2.556  0.0107 -1.3417 -0.3748
10780TIP3    H253756   5.830   5.380   2.647 -0.4602  0.4767  1.7750
10781TIP3   OH253757   2.471   4.422  15.812  0.4426 -0.1625  0.1557
10781TIP3    H153758   2.525   4.354  15.852 -0.3927 -1.4534 -0.8051
10781TIP3    H253759   2.403   4.373  15.764 -1.4461  1.3590  1.1151
10782TIP3   OH253760   1.472   2.704   4.186 -0.0140 -0.3141  0.0420
10782TIP3    H153761   1.507   2.782   4.143 -1.0169  0.1070 -0.0551
10782TIP3    H253762   1.450   2.733   4.275 -0.3566 -0.4866  0.0177
10783TIP3   OH253763   1.612   2.060   6.106 -0.0140 -0.1215 -0.3548
10783TIP3    H153764   1.520   2.042   6.127  0.0174 -0.8832 -0.8376
10783TIP3    H253765   1.639   2.124   6.172 -1.1727  0.8914 -0.8089
10784TIP3   OH253766   1.346   3.098  15.862  0.0560  0.2716 -0.2875
10784TIP3    H153767   1.289   3.040  15.811 -0.4995  0.4179  0.1547
10784TIP3    H253768   1.293   3.176  15.877  0.9991  1.1590 -1.3811
10785TIP3   OH253769   1.712   5.624  11.733 -0.0366 -0.9191 -0.1422
10785TIP3    H153770   1.753   5.589  11.812  0.9161 -2.9737 -1.4586
10785TIP3    H253771   1.644   5.684  11.765  1.8089  0.0854  2.1538
10786TIP3   OH253772   0.114   1.159   1.647  0.5769  0.0561  0.1601
10786TIP3    H153773   0.124   1.078   1.696  1.5419 -0.3888 -0.7181
10786TIP3    H253774   0.199   1.203   1.655 -0.3775  1.7499  1.8820
10787TIP3   OH253775   3.620   1.477   3.564  0.3120 -0.2357 -0.1740
10787TIP3    H153776   3.664   1.403   3.524  0.3108 -0.9741  1.1416
10787TIP3    H253777   3.675   1.501   3.639 -0.3101  0.3236  0.1200
10788TIP3   OH253778   5.415   1.093  16.783  0.2809 -0.3881 -0.8536
10788TIP3    H153779   5.462   1.021  16.825 -1.5002 -1.6258 -0.8926
10788TIP3    H253780   5.356   1.127  16.850  0.7340  0.7277 -0.9952
10789TIP3   OH253781   5.359   5.398   2.518 -0.1000  0.4138  0.0393
10789TIP3    H153782   5.397   5.314   2.492 -0.0566  0.4786 -0.1074
10789TIP3    H253783   5.434   5.455   2.533 -0.1520  1.0075 -1.7927
10790TIP3   OH253784   0.270   0.408   4.380 -0.6677 -0.6929 -0.5804
10790TIP3    H153785   0.304   0.392   4.292 -0.6111  0.5078 -0.7946
10790TIP3    H253786   0.177   0.427   4.368 -0.4293  0.6507 -0.5517
10791TIP3   OH253787   3.652   1.812  15.815 -0.1519 -0.3746 -0.3218
10791TIP3    H153788   3.676   1.900  15.846 -1.8927 -0.4819  1.4844
10791TIP3    H253789   3.720   1.755  15.850 -0.0177  0.0196  0.0718
10792TIP3   OH253790   1.678   1.078   2.852 -0.3639 -0.2142 -0.0028
10792TIP3    H153791   1.768   1.059   2.876  0.8532  0.3551 -3.5952
10792TIP3    H253792   1.640   0.992   2.832 -0.1211 -0.3237  0.0049
10793TIP3   OH253793   1.982   6.157   1.485 -0.2418 -0.3495  0.0422
10793TIP3    H153794   2.063   6.121   1.522 -1.3797 -1.8295  1.2651
10793TIP3    H253795   1.999   6.250   1.474  1.4585 -0.5515  0.7306
10794TIP3   OH253796   5.561   0.055  14.213 -0.0481  0.3458  0.1475
10794TIP3    H153797   5.639   0.108  14.199  0.3284  0.4816  2.4801
10794TIP3    H253798   5.494   0.097  14.160  1.1895  0.7907 -1.1457
10795TIP3   OH253799   0.202   0.499   2.303 -0.1272  0.5110  0.2428
10795TIP3    H153800   0.243   0.492   2.217 -0.1901  1.2986  0.1394
10795TIP3    H253801   0.110   0.518   2.284  0.0502  1.6671  0.4755
10796TIP3   OH253802   2.808   2.997  11.060 -0.0636 -0.2234  0.3236
10796TIP3    H153803   2.759   2.963  11.135 -0.0332  0.3255  0.5963
10796TIP3    H253804   2.832   2.919  11.010  0.3206 -0.6297  1.1276
10797TIP3   OH253805   6.562   5.689   0.324 -0.1010 -1.0261  0.0411
10797TIP3    H153806   6.567   5.784   0.315 -0.2781 -1.1092 -1.1765
10797TIP3    H253807   6.579   5.672   0.417  2.1972  0.0304 -0.1064
10798TIP3   OH253808   3.115   5.134   2.753  0.5255 -0.0692  0.4252
10798TIP3    H153809   3.089   5.102   2.839  1.3488  0.5807  0.9284
10798TIP3    H253810   3.100   5.228   2.757  3.1477  0.3870  0.8449
10799TIP3   OH253811   3.279   2.921  11.764  0.3904 -0.5853  0.5659
10799TIP3    H153812   3.223   2.999  11.762  0.9445 -0.1454  1.4154
10799TIP3    H253813   3.273   2.885  11.676  1.4889  1.4283 -0.4168
10800TIP3   OH253814   2.967   3.324  11.960 -0.5683 -0.1320  0.3008
10800TIP3    H153815   2.912   3.355  11.889  0.9783 -1.4897 -1.6071
10800TIP3    H253816   2.933   3.236  11.980 -0.7357  0.0798  0.9872
10801TIP3   OH253817   6.575   4.231  13.455 -0.2021 -0.3641  0.3202
10801TIP3    H153818   6.667   4.216  13.475  0.6592  0.2227 -2.6608
10801TIP3    H253819   6.571   4.323  13.429 -1.5051 -0.5251 -0.1308
10802TIP3   OH253820   6.648   1.148   0.498  0.2925 -0.1879  0.9630
10802TIP3    H153821   6.574   1.195   0.461 -0.6387 -2.1963  0.1349
10802TIP3    H253822   6.617   1.114   0.582  0.6937  0.0086  1.1961
10803TIP3   OH253823   2.566   3.283   4.582  0.4496 -0.6981 -0.2968
10803TIP3    H153824   2.480   3.304   4.544 -1.2010 -2.1847  2.3245
10803TIP3    H253825   2.589   3.360   4.633  2.1562  0.8535 -3.1175
10804TIP3   OH253826   5.520   2.326  10.744  0.0326 -0.0731 -0.9163
10804TIP3    H153827   5.449   2.328  10.679  0.3624 -2.1942 -1.4316
10804TIP3    H253828   5.574   2.252  10.717  1.4654  0.4106  0.4943
10805TIP3   OH253829   0.395   2.180   5.430 -0.1830 -0.2851 -0.0989
10805TIP3    H153830   0.441   2.097   5.420 -0.1973 -0.2907 -0.1192
10805TIP3    H253831   0.397   2.219   5.342 -1.5756 -1.0060 -0.4970
10806TIP3   OH253832   1.257   5.736  13.693  0.2041  0.3923  0.5942
10806TIP3    H153833   1.322   5.707  13.628 -0.9459 -0.3457 -0.2712
10806TIP3    H253834   1.242   5.828  13.671  1.0579  0.6173  0.9036
10807TIP3   OH253835   3.345   5.534   3.826  0.4579 -0.3046 -0.6979
10807TIP3    H153836   3.402   5.461   3.850  2.8428  1.3031 -1.0644
10807TIP3    H253837   3.336   5.528   3.731  1.4897  0.3768 -0.8598
10808TIP3   OH253838   2.727   0.234   4.093 -0.0530  0.5582 -0.4027
10808TIP3    H153839   2.659   0.190   4.042 -1.5683  0.7984  1.2942
10808TIP3    H253840   2.750   0.171   4.162  0.8796  0.7804 -0.5041
10809TIP3   OH253841   4.701   5.667   1.007  0.5214  0.1768 -0.1766
10809TIP3    H153842   4.673   5.753   0.974  1.9117 -0.0221 -2.0130
10809TIP3    H253843   4.698   5.676   1.102 -1.1547  1.6396 -0.3053
10810TIP3   OH253844   5.373   6.225  11.971 -0.3914  0.4532 -0.0623
10810TIP3    H153845   5.381   6.285  11.896 -0.7598  1.6022  0.7919
10810TIP3    H253846   5.457   6.180  11.975  0.3931  1.8621  0.0507
10811TIP3   OH253847   4.797   1.947  13.766 -0.5346 -0.1877  0.3749
10811TIP3    H153848   4.710   1.970  13.733 -0.8564  0.0609  1.3743
10811TIP3    H253849   4.857   1.978  13.698 -1.2130 -0.2130 -0.2452
10812TIP3   OH253850   6.523   6.117   3.899 -0.3103 -0.4757 -0.4467
10812TIP3    H153851   6.519   6.164   3.983 -0.8029 -0.0421 -0.7054
10812TIP3    H253852   6.559   6.031   3.921  0.6547  0.0306  0.0325
10813TIP3   OH253853   4.724   3.971   4.678 -0.5377 -0.0023  0.7062
10813TIP3    H153854   4.728   3.903   4.610 -1.9875 -1.2498  1.8047
10813TIP3    H253855   4.631   3.992   4.685 -0.8236 -1.7205  3.9714
10814TIP3   OH253856   6.147   1.948   5.875 -0.2804 -0.0746  0.0487
10814TIP3    H153857   6.208   1.902   5.933  0.0254 -1.1551 -1.0876
10814TIP3    H253858   6.102   2.010   5.932 -0.0429 -1.1490  1.4635
10815TIP3   OH253859   1.099   1.041   2.940 -0.4676 -0.2520  0.1655
10815TIP3    H153860   1.032   1.086   2.888 -1.8767 -0.5192  1.6691
10815TIP3    H253861   1.070   1.052   3.030  1.4991 -0.4655  0.8582
10816TIP3   OH253862   1.072   2.113   1.044  0.1725  0.7375  0.2492
10816TIP3    H153863   1.142   2.139   0.984  0.3964  1.6098  0.8537
10816TIP3    H253864   1.033   2.036   1.004  1.2214  0.4728 -0.3014
10817TIP3   OH253865   2.079   4.162   5.231 -0.7580  0.1920  0.0435
10817TIP3    H153866   1.995   4.175   5.186 -0.6863  0.5956  0.0172
10817TIP3    H253867   2.094   4.068   5.227 -0.6578  0.2374 -0.9582
10818TIP3   OH253868   4.478   0.016  11.480 -0.1811  0.6428 -0.7337
10818TIP3    H153869   4.391   0.022  11.521 -0.7686 -0.0439 -1.8266
10818TIP3    H253870   4.539   0.025  11.552 -1.1711  0.5048  0.1482
10819TIP3   OH253871   1.621   1.417   1.499  0.0143 -0.1704  0.1621
10819TIP3    H153872   1.562   1.492   1.501  1.5740  1.1250  2.4633
10819TIP3    H253873   1.580   1.352   1.557 -0.4567 -0.3903 -0.4093
10820TIP3   OH253874   2.042   5.392  14.321 -1.1055 -0.4172  0.4428
10820TIP3    H153875   2.110   5.439  14.273 -0.3004 -1.5419  0.4432
10820TIP3    H253876   2.086   5.313  14.354 -2.2844 -0.9186  0.8632
10821TIP3   OH253877   2.745   0.127  12.962  0.1378 -0.4772  0.0485
10821TIP3    H153878   2.651   0.111  12.951  0.4307 -1.1750 -1.9355
10821TIP3    H253879   2.752   0.169  13.048 -2.0599  0.2785 -0.0573
10822TIP3   OH253880   3.559   0.453  14.357  0.1196  0.1137  0.2489
10822TIP3    H153881   3.601   0.478  14.439 -0.0681  1.2743  0.0054
10822TIP3    H253882   3.548   0.535  14.310  1.5276 -0.6699 -1.5703
10823TIP3   OH253883   1.360   2.612   0.574  0.1749 -0.1828  0.2826
10823TIP3    H153884   1.420   2.674   0.532  0.0806  0.6673  1.3841
10823TIP3    H253885   1.359   2.537   0.514 -0.0626  1.0357 -1.3199
10824TIP3   OH253886   2.872   0.183   5.827  0.1869  0.2503 -0.0031
10824TIP3    H153887   2.964   0.162   5.840  0.2113 -1.2545 -2.0705
10824TIP3    H253888   2.825   0.106   5.858 -0.4762  1.2840  1.6844
10825TIP3   OH253889   3.449   5.470   0.076  0.2764  0.3887 -0.0422
10825TIP3    H153890   3.511   5.416   0.126  0.0289  2.5229  2.7412
10825TIP3    H253891   3.426   5.414   0.001  2.5770 -2.0028  0.8374
10826TIP3   OH253892   1.201   3.311  15.744  0.1351 -0.5941  0.1619
10826TIP3    H153893   1.127   3.368  15.767  0.8224  1.1987 -1.6948
10826TIP3    H253894   1.167   3.253  15.676  0.6718  1.1863 -1.7451
10827TIP3   OH253895   0.823   2.149   5.575 -0.0141  0.5020  0.2705
10827TIP3    H153896   0.896   2.195   5.615 -0.0374  0.7642  0.0163
10827TIP3    H253897   0.750   2.211   5.579  0.4176  1.2367 -1.7354
10828TIP3   OH253898   3.155   4.544  11.898 -0.0275  0.2711  0.2571
10828TIP3    H153899   3.206   4.470  11.932 -1.0290 -0.1124  0.9634
10828TIP3    H253900   3.068   4.532  11.934 -0.8594  0.4812 -1.5784
10829TIP3   OH253901   3.228   3.883  11.602  0.4890  0.2585  0.0881
10829TIP3    H153902   3.188   3.931  11.530 -2.4782 -2.4357 -0.2566
10829TIP3    H253903   3.322   3.887  11.584 -0.0564  0.7070 -3.2715
10830TIP3   OH253904   5.676   2.169  13.922 -0.9603 -0.7750  0.0613
10830TIP3    H153905   5.665   2.090  13.975  1.9203 -1.3946 -0.1022
10830TIP3    H253906   5.627   2.151  13.842 -0.3520 -2.4288  0.0195
10831TIP3   OH253907   3.645   6.579   5.322 -0.0254  0.2725 -0.3506
10831TIP3    H153908   3.609   6.497   5.289 -1.2627  1.1085 -1.1882
10831TIP3    H253909   3.669   6.628   5.244 -0.7000  1.2984  0.0612
10832TIP3   OH253910   2.353   2.803   1.333  0.7254  0.4005 -0.0552
10832TIP3    H153911   2.413   2.790   1.260 -0.2566 -0.0182 -0.8183
10832TIP3    H253912   2.403   2.779   1.411  1.2993 -0.6943 -0.7478
10833TIP3   OH253913   6.319   5.399  10.994 -0.2073 -0.2639  0.1999
10833TIP3    H153914   6.275   5.356  11.067 -0.3474  0.8487  0.7901
10833TIP3    H253915   6.406   5.419  11.027 -0.3980  0.5960  0.2229
10834TIP3   OH253916   0.828   1.584  16.545  0.0940  0.3392  0.0697
10834TIP3    H153917   0.747   1.563  16.591  0.5102 -0.1495  0.6073
10834TIP3    H253918   0.884   1.622  16.613  0.6670 -0.2593 -0.0491
10835TIP3   OH253919   4.382   5.962  13.419  0.6897 -0.2088  0.2383
10835TIP3    H153920   4.440   6.022  13.371  0.2724  0.0464  0.0439
10835TIP3    H253921   4.297   5.971  13.375  0.7262 -1.2704 -0.0679
10836TIP3   OH253922   0.500   1.818   4.193  0.2534  0.4654 -0.1398
10836TIP3    H153923   0.553   1.742   4.169  0.7374  0.6871  0.2123
10836TIP3    H253924   0.554   1.866   4.256  0.1134  1.2913 -0.6332
10837TIP3   OH253925   0.038   3.255  15.222 -0.3799  0.4564 -0.7703
10837TIP3    H153926  -0.043   3.252  15.273 -0.5539  0.6862 -1.0287
10837TIP3    H253927   0.018   3.204  15.143 -0.1287  0.1451 -0.6362
10838TIP3   OH253928   2.830   3.790   3.084  0.0594  0.6017  0.0446
10838TIP3    H153929   2.915   3.811   3.046 -0.3140  0.7787 -0.7200
10838TIP3    H253930   2.768   3.847   3.037 -0.4656  0.5490  0.6600
10839TIP3   OH253931   0.047   4.945  11.251 -0.2054  0.0055 -0.3203
10839TIP3    H153932  -0.045   4.928  11.232 -1.0450  1.8224  1.7059
10839TIP3    H253933   0.094   4.906  11.178 -2.4055 -2.7864 -0.4375
10840TIP3   OH253934   1.110   3.240  11.983 -0.3881 -0.7199  0.4729
10840TIP3    H153935   1.075   3.157  12.016 -1.1835 -0.9459 -0.8476
10840TIP3    H253936   1.174   3.267  12.049 -0.8111 -1.8908  1.4070
10841TIP3   OH253937   2.726   3.002   3.612  0.4535 -0.0159 -0.0912
10841TIP3    H153938   2.802   2.972   3.661  0.5255 -1.0235 -0.7794
10841TIP3    H253939   2.676   2.922   3.595 -0.5587  0.5783  0.0084
10842TIP3   OH253940   2.810   2.994  15.196  0.1398 -0.1856 -0.3011
10842TIP3    H153941   2.899   2.996  15.159  0.1489  0.5895 -0.2495
10842TIP3    H253942   2.824   2.988  15.290  0.1192 -1.4742 -0.3587
10843TIP3   OH253943   4.454   5.351  12.609 -0.9708  0.1663 -0.3249
10843TIP3    H153944   4.476   5.300  12.531 -1.8229  0.6613 -0.9035
10843TIP3    H253945   4.470   5.292  12.682 -1.4003 -0.7291 -0.9485
10844TIP3   OH253946   2.587   2.077  11.025 -0.5888 -0.4518 -0.2588
10844TIP3    H153947   2.613   2.118  10.943  0.4867 -0.3251  0.1304
10844TIP3    H253948   2.538   1.999  10.998  0.1038 -0.6374 -1.0275
10845TIP3   OH253949   5.065   0.640   3.195  0.6059  0.6624  0.6636
10845TIP3    H153950   5.091   0.621   3.285  1.0831  0.1170  0.4188
10845TIP3    H253951   5.029   0.557   3.162  0.5262  0.8272  0.3257
10846TIP3   OH253952   2.230   4.096   0.872 -0.5652  0.4106  0.3514
10846TIP3    H153953   2.190   4.096   0.785 -1.9720  0.4221  0.9760
10846TIP3    H253954   2.199   4.177   0.913  0.1706  0.4631  0.8322
10847TIP3   OH253955   2.895   3.260   1.962 -0.4305 -0.1341 -0.3553
10847TIP3    H153956   2.882   3.170   1.931 -2.2409  0.3016 -1.0236
10847TIP3    H253957   2.933   3.250   2.049  0.8935 -1.4939 -1.0233
10848TIP3   OH253958   6.678   0.767  17.279  0.0132  0.1125  0.4561
10848TIP3    H153959   6.675   0.671  17.287  0.4418  0.0242 -0.3364
10848TIP3    H253960   6.587   0.794  17.290  0.0822 -0.2271  2.2862
10849TIP3   OH253961   1.544   3.332  12.503 -0.0841  0.2472  0.1815
10849TIP3    H153962   1.522   3.369  12.417  0.2332 -2.1979 -1.0289
10849TIP3    H253963   1.503   3.392  12.565 -0.5304  1.9782 -1.6646
10850TIP3   OH253964   2.251   0.665   4.143  0.2016 -0.3500 -0.0612
10850TIP3    H153965   2.194   0.596   4.110 -0.9861  1.0867 -1.1500
10850TIP3    H253966   2.340   0.635   4.123 -0.2391 -1.8364  0.0899
10851TIP3   OH253967   4.890   2.778  14.937  0.2415  0.1409  0.6312
10851TIP3    H153968   4.926   2.726  14.866 -0.7854  0.7379 -0.3666
10851TIP3    H253969   4.925   2.866  14.924 -0.2136  0.3305  0.6620
10852TIP3   OH253970   3.130   1.967   4.497  1.1795  0.0121 -0.0844
10852TIP3    H153971   3.127   1.938   4.406  0.0710 -0.4417  0.0733
10852TIP3    H253972   3.223   1.979   4.515  1.3387  2.1143 -1.8847
10853TIP3   OH253973   0.758   1.693   2.505 -0.4964 -0.1555  0.0850
10853TIP3    H153974   0.807   1.761   2.459 -1.3862  0.1795 -0.3938
10853TIP3    H253975   0.668   1.703   2.474 -0.5571 -1.8901 -0.3705
10854TIP3   OH253976   3.252   3.415   0.011  1.0591 -0.1513  0.0499
10854TIP3    H153977   3.343   3.437  -0.007  1.1539 -0.4810  0.1283
10854TIP3    H253978   3.220   3.376  -0.071  1.5510 -1.8509  0.6300
10855TIP3   OH253979   2.638   3.744   2.457  0.4693  0.1598 -0.5546
10855TIP3    H153980   2.637   3.813   2.391  0.5021  0.7943  0.0932
10855TIP3    H253981   2.579   3.775   2.526  0.3300 -0.5503 -0.3483
10856TIP3   OH253982   6.150   5.971  13.181 -0.0179 -0.0115  0.1351
10856TIP3    H153983   6.135   6.039  13.115 -0.8487 -0.4614 -0.1419
10856TIP3    H253984   6.063   5.946  13.211  0.2953 -0.7125  0.4861
10857TIP3   OH253985   3.488   1.738  12.352 -0.2763 -0.3676  0.2987
10857TIP3    H153986   3.578   1.757  12.328 -0.3493 -0.2157  0.1406
10857TIP3    H253987   3.474   1.647  12.326 -0.7276  0.1389 -1.3670
10858TIP3   OH253988   4.731   4.564  12.216  0.1222 -0.5330  0.2373
10858TIP3    H153989   4.709   4.623  12.144 -2.4566 -2.8549 -1.0925
10858TIP3    H253990   4.760   4.622  12.287  0.0556  2.0750 -1.7263
10859TIP3   OH253991   3.328   1.769   5.438  0.6904  0.4838  0.4151
10859TIP3    H153992   3.370   1.845   5.396  1.1022  0.5763  0.9857
10859TIP3    H253993   3.246   1.758   5.390  0.8158  1.0417  0.0610
10860TIP3   OH253994   3.328   1.680   4.462 -0.6435 -0.2916 -0.6844
10860TIP3    H153995   3.300   1.715   4.547 -0.3558 -0.4048 -0.5432
10860TIP3    H253996   3.403   1.624   4.483  0.0479  0.4451 -1.1181
10861TIP3   OH253997   6.458   4.797  17.228  0.1842 -0.3228  0.2838
10861TIP3    H153998   6.490   4.867  17.285  2.1521 -1.0324  0.1342
10861TIP3    H253999   6.425   4.843  17.151 -1.0403  0.5557  1.2849
10862TIP3   OH254000   3.738   2.886   1.394 -0.6144  0.3970  0.2682
10862TIP3    H154001   3.676   2.828   1.349  0.9954 -1.3984  0.2557
10862TIP3    H254002   3.768   2.835   1.469 -1.2245  2.3194  1.9122
10863TIP3   OH254003   2.799   5.491  11.300  0.4855 -0.0365  0.0230
10863TIP3    H154004   2.712   5.501  11.260  0.7444  0.0473 -0.5333
10863TIP3    H254005   2.838   5.578  11.294  0.7825 -0.1806 -0.1439
10864TIP3   OH254006   6.191   5.675  15.932 -0.1982 -0.0988  0.6858
10864TIP3    H154007   6.247   5.607  15.894  0.0571 -0.3193  1.4589
10864TIP3    H254008   6.251   5.736  15.973 -0.4516  0.4104  0.3189
10865TIP3   OH254009   1.650   4.806  15.893 -0.1670  0.0720 -0.1675
10865TIP3    H154010   1.613   4.869  15.955  1.0631  1.7839 -1.0867
10865TIP3    H254011   1.678   4.732  15.947 -0.5927  0.8065  1.0982
10866TIP3   OH254012   6.244   5.173   4.098  0.8145  0.1450 -0.3994
10866TIP3    H154013   6.181   5.188   4.028  0.7749  1.0926 -0.1660
10866TIP3    H254014   6.216   5.231   4.169  2.8305  1.7514 -0.8507
10867TIP3   OH254015   3.754   5.063   3.677  0.6150  0.0204  0.2491
10867TIP3    H154016   3.753   5.011   3.597 -0.5733  2.6156 -1.5719
10867TIP3    H254017   3.677   5.034   3.726 -0.0393  0.0285 -0.7453
10868TIP3   OH254018   5.205   2.955  16.530  0.5105 -0.5139 -0.2735
10868TIP3    H154019   5.238   3.024  16.587  0.4301 -0.6641 -0.0422
10868TIP3    H254020   5.261   2.959  16.452 -1.3490  1.8022 -1.6354
10869TIP3   OH254021   6.662   3.254  16.605 -0.0142 -0.0977 -0.4595
10869TIP3    H154022   6.637   3.163  16.589  0.6271 -0.4850  0.6473
10869TIP3    H254023   6.726   3.274  16.537  0.2230 -0.6340 -0.3938
10870TIP3   OH254024   3.386   3.896   3.956  0.6074 -0.1599 -0.0888
10870TIP3    H154025   3.475   3.915   3.929  0.3701  0.6478 -0.3286
10870TIP3    H254026   3.336   3.975   3.935 -0.2644 -0.7737 -0.4166
10871TIP3   OH254027   4.079   1.950   1.773  0.5147  0.2167  0.2341
10871TIP3    H154028   4.024   1.960   1.696 -0.2119  0.3794  0.7644
10871TIP3    H254029   4.072   2.035   1.818 -1.2937 -0.7403  1.9156
10872TIP3   OH254030   3.083   0.948   3.311 -0.4923 -0.8183 -0.4352
10872TIP3    H154031   3.011   1.011   3.304  1.0080  0.8819 -1.4183
10872TIP3    H254032   3.108   0.950   3.403 -0.5093 -0.0357 -0.4447
10873TIP3   OH254033   3.071   5.842   5.287  0.2378  0.5559 -0.1328
10873TIP3    H154034   3.139   5.794   5.335  0.8626  1.7348  0.1885
10873TIP3    H254035   3.014   5.773   5.252  2.5932 -0.6133 -1.9396
10874TIP3   OH254036   2.076   5.135   1.578  0.1049 -0.2833  0.0804
10874TIP3    H154037   2.007   5.124   1.511  0.9026 -0.6348 -0.7078
10874TIP3    H254038   2.145   5.183   1.533  1.5747 -2.3951 -0.0328
10875TIP3   OH254039   3.682   1.895  13.519 -0.1948  0.3752 -0.1792
10875TIP3    H154040   3.697   1.960  13.588 -0.6747  0.0867  0.2107
10875TIP3    H254041   3.589   1.904  13.498 -0.3154 -0.3140  0.0204
10876TIP3   OH254042   0.280   2.177  12.219  0.2001 -0.2651 -0.5988
10876TIP3    H154043   0.210   2.234  12.188  0.3806 -0.4482 -1.3641
10876TIP3    H254044   0.317   2.139  12.140  1.1393 -0.2073 -0.2068
10877TIP3   OH254045   5.137   3.906  11.709 -0.6866  0.5558  0.1730
10877TIP3    H154046   5.043   3.923  11.712 -0.7215  0.4179 -0.0772
10877TIP3    H254047   5.147   3.819  11.746 -0.7506  0.2311 -0.5658
10878TIP3   OH254048   1.325   1.684  13.743  0.2395 -0.3386 -0.2713
10878TIP3    H154049   1.340   1.602  13.696  1.3370 -1.5899  2.0939
10878TIP3    H254050   1.321   1.659  13.835 -0.9943  2.0891  0.4217
10879TIP3   OH254051   1.722   6.151   2.679 -0.0595  0.1311  0.0908
10879TIP3    H154052   1.723   6.105   2.763  0.6403 -0.3737 -0.1811
10879TIP3    H254053   1.807   6.131   2.640 -1.0468 -1.1684 -1.5441
10880TIP3   OH254054   0.445   6.039   2.466  0.0504 -0.5102  0.2381
10880TIP3    H154055   0.409   6.027   2.378  0.1529  0.2356  0.0921
10880TIP3    H254056   0.535   6.068   2.452 -0.4728  1.3848  0.5441
10881TIP3   OH254057   2.778   6.682   4.855  0.4834 -0.1097  0.1671
10881TIP3    H154058   2.778   6.670   4.950 -1.0629  0.2703  0.2500
10881TIP3    H254059   2.771   6.777   4.843 -2.0008 -0.2568 -0.2316
10882TIP3   OH254060   1.135   4.489  11.808  0.1856 -0.6693 -0.3137
10882TIP3    H154061   1.074   4.536  11.865  0.0584 -0.8808 -0.2764
10882TIP3    H254062   1.087   4.411  11.780  1.2241 -2.0714  1.5810
10883TIP3   OH254063   0.770   2.793   1.593  0.4687 -0.0016 -0.8060
10883TIP3    H154064   0.690   2.763   1.551  0.3707  0.1889 -0.7582
10883TIP3    H254065   0.837   2.731   1.564  0.0428 -1.0087  0.2899
10884TIP3   OH254066   3.821   5.193  15.276 -0.3559 -0.2604  0.4307
10884TIP3    H154067   3.835   5.126  15.343  0.3170 -0.6720 -0.1077
10884TIP3    H254068   3.803   5.144  15.196  0.9150  0.1742 -0.1420
10885TIP3   OH254069   2.188   4.794   2.272 -0.1197 -0.0597  0.1249
10885TIP3    H154070   2.146   4.807   2.187  1.4479  1.5388 -0.4786
10885TIP3    H254071   2.138   4.849   2.332 -0.5996 -0.3770  0.0211
10886TIP3   OH254072   2.646   3.340  16.358  0.2006  0.4890  0.3002
10886TIP3    H154073   2.654   3.264  16.301 -1.2733  0.9515 -0.5810
10886TIP3    H254074   2.590   3.310  16.430 -0.3817  0.7037 -0.0478
10887TIP3   OH254075   3.989   5.357   3.227 -0.0983  0.6472  0.0582
10887TIP3    H154076   3.912   5.397   3.187  0.0090  0.2918 -0.5187
10887TIP3    H254077   4.008   5.411   3.304 -1.7275 -0.0464  0.9826
10888TIP3   OH254078   3.494   2.701   1.630 -0.3295  0.1704 -0.1528
10888TIP3    H154079   3.446   2.773   1.589 -1.3103  0.1277  0.8540
10888TIP3    H254080   3.567   2.684   1.572 -0.9368  0.9747 -1.1805
10889TIP3   OH254081   0.929   4.085   4.524  0.2953  0.1983  0.9181
10889TIP3    H154082   0.841   4.086   4.487  1.1807 -0.7564 -1.4354
10889TIP3    H254083   0.958   3.994   4.516  1.1662  0.2786  2.5709
10890TIP3   OH254084   0.623   3.489   0.724 -0.6972  0.3410 -0.5028
10890TIP3    H154085   0.557   3.551   0.755  0.4024  0.5932  1.4886
10890TIP3    H254086   0.574   3.424   0.675 -2.5578  0.1713  1.4421
10891TIP3   OH254087   6.274   0.488  16.686 -0.2779 -0.1380  0.0068
10891TIP3    H154088   6.238   0.474  16.774  0.7840 -1.9576  0.2042
10891TIP3    H254089   6.201   0.468  16.627 -0.3795 -1.1785  0.4540
10892TIP3   OH254090   4.927   5.023   3.008 -0.6277 -0.0853 -0.0889
10892TIP3    H154091   5.020   5.020   3.030 -0.7120  0.6284  0.4147
10892TIP3    H254092   4.921   4.986   2.920  0.0838 -0.4539  0.0137
10893TIP3   OH254093   5.055   0.456   2.547 -0.0626 -0.6973  0.0296
10893TIP3    H154094   4.980   0.502   2.510  0.5924 -0.5905 -1.2380
10893TIP3    H254095   5.099   0.417   2.471  1.9657  0.4298  0.5396
10894TIP3   OH254096   2.356   2.319   4.807  0.4595 -0.3935  0.1455
10894TIP3    H154097   2.298   2.340   4.734 -0.3002  1.1438  1.1363
10894TIP3    H254098   2.305   2.261   4.863 -0.4784  1.5291  1.3829
10895TIP3   OH254099   0.703   4.481   0.520 -0.1972 -0.1386 -0.8684
10895TIP3    H154100   0.633   4.516   0.465 -0.1261 -0.4396 -1.1553
10895TIP3    H254101   0.664   4.404   0.562 -0.2567  0.1005 -0.4820
10896TIP3   OH254102   0.316   6.316   6.405  0.3656  0.4394 -0.1638
10896TIP3    H154103   0.330   6.222   6.418  0.8496  0.6258  0.7242
10896TIP3    H254104   0.395   6.357   6.441 -0.8801  1.3353  1.6883
10897TIP3   OH254105   3.292   3.508  14.300 -0.0484 -0.3579 -0.3190
10897TIP3    H154106   3.212   3.484  14.253 -0.2731 -0.0324 -0.1094
10897TIP3    H254107   3.299   3.603  14.289 -1.4555  0.1527  2.3270
10898TIP3   OH254108   4.726   1.590   2.117 -0.6695 -0.1756 -0.0133
10898TIP3    H154109   4.683   1.603   2.202  0.4827  0.8552  0.4420
10898TIP3    H254110   4.742   1.679   2.084 -1.2358 -0.5629 -1.3978
10899TIP3   OH254111   4.967   1.253  13.990  0.0523 -0.4462 -0.1738
10899TIP3    H154112   4.921   1.241  14.073 -2.0433  1.3414 -0.9651
10899TIP3    H254113   4.992   1.164  13.963 -1.4389 -1.3267  1.1719
10900TIP3   OH254114   4.487   3.280  13.956 -0.2141 -0.1907 -0.3090
10900TIP3    H154115   4.487   3.278  13.860  2.5780  0.9816 -0.4369
10900TIP3    H254116   4.498   3.188  13.982 -0.1699 -0.4244 -1.1347
10901TIP3   OH254117   6.698   1.339   6.158  0.2823 -0.7610  0.1525
10901TIP3    H154118   6.762   1.281   6.115 -0.9998 -1.5059 -0.8354
10901TIP3    H254119   6.640   1.279   6.205 -0.2241 -0.1634  0.2921
10902TIP3   OH254120   1.182   2.628   3.673 -0.4539  0.1997  0.0748
10902TIP3    H154121   1.230   2.592   3.599 -1.7139  1.1012 -1.2281
10902TIP3    H254122   1.249   2.670   3.727  0.2727  1.2299 -1.5730
10903TIP3   OH254123   3.216   2.789  15.119  0.4315  0.0402  0.5925
10903TIP3    H154124   3.187   2.702  15.093  0.3517  0.0497  0.6491
10903TIP3    H254125   3.201   2.792  15.214  0.5362  0.0763  0.6084
10904TIP3   OH254126   1.894   6.773  16.541 -0.2895  0.0633 -0.4364
10904TIP3    H154127   1.907   6.857  16.584  0.7440 -0.0307 -0.5357
10904TIP3    H254128   1.838   6.723  16.602 -1.4051  1.0050 -0.6513
10905TIP3   OH254129   4.729   2.352  13.072  0.1173  0.2515 -0.1118
10905TIP3    H154130   4.636   2.358  13.050 -0.4297 -4.2851 -0.1103
10905TIP3    H254131   4.732   2.363  13.167 -0.5763 -0.3369 -0.0118
10906TIP3   OH254132   5.637   5.399  10.646  0.4125  0.2574  0.2398
10906TIP3    H154133   5.618   5.353  10.727  0.2975  0.6868  0.4583
10906TIP3    H254134   5.713   5.353  10.610  0.6479  0.2454  0.7382
10907TIP3   OH254135   5.224   5.443  12.376  0.6655 -0.0330 -0.1261
10907TIP3    H154136   5.200   5.407  12.462  1.6021 -0.0946  0.1128
10907TIP3    H254137   5.140   5.457  12.332  0.1743  0.0296  0.8137
10908TIP3   OH254138   5.383   2.729   0.975 -0.0281  0.4148 -0.1322
10908TIP3    H154139   5.447   2.798   0.957  0.2696  0.9812  2.6199
10908TIP3    H254140   5.411   2.691   1.059 -2.8239  0.1770  0.8222
10909TIP3   OH254141   1.547   3.548   2.112 -0.1234 -0.3976 -0.4923
10909TIP3    H154142   1.468   3.500   2.088 -1.5230  1.1259  0.8437
10909TIP3    H254143   1.556   3.614   2.043 -1.8324  1.3880  0.9037
10910TIP3   OH254144   3.745   6.183   3.953  0.0998 -0.0984 -0.5927
10910TIP3    H154145   3.824   6.166   4.005 -0.4761 -0.2971  0.2585
10910TIP3    H254146   3.757   6.271   3.918  1.3566 -0.6905 -1.7242
10911TIP3   OH254147   2.148   0.414  12.264  0.1639  0.0176  0.8049
10911TIP3    H154148   2.182   0.487  12.212  1.2335 -0.0627  1.3589
10911TIP3    H254149   2.223   0.386  12.318 -0.3034 -1.3071  0.8012
10912TIP3   OH254150   5.071   1.312  13.624  0.2014 -0.8024 -0.5627
10912TIP3    H154151   5.015   1.377  13.667  0.0128 -1.2712 -0.0777
10912TIP3    H254152   5.073   1.338  13.532  2.9306  1.9473  0.0993
10913TIP3   OH254153   4.225   4.804   3.591 -0.4400 -0.0352  0.0029
10913TIP3    H154154   4.291   4.793   3.659  1.5220  0.8160 -1.6708
10913TIP3    H254155   4.195   4.894   3.601  0.8354  0.5336 -1.0419
10914TIP3   OH254156   6.309   0.140  17.321 -0.3813  0.0261 -0.4197
10914TIP3    H154157   6.230   0.166  17.276  0.3234 -0.2977 -1.8870
10914TIP3    H254158   6.293   0.163  17.413 -2.4449 -0.6967 -0.5457
10915TIP3   OH254159   3.461   2.423   2.617  0.0651 -0.3527  0.3565
10915TIP3    H154160   3.366   2.411   2.615  0.1295 -1.3883  1.9904
10915TIP3    H254161   3.474   2.517   2.604 -1.1433 -0.2710 -0.4143
10916TIP3   OH254162   1.505   5.837   3.039 -0.2689  0.5803 -0.8705
10916TIP3    H154163   1.420   5.796   3.056  0.3313  0.1662  1.3694
10916TIP3    H254164   1.565   5.796   3.102  0.9364  3.0418 -0.3081
10917TIP3   OH254165   0.354   1.355  14.679 -0.1628 -0.4810 -0.3465
10917TIP3    H154166   0.409   1.431  14.697  0.0649 -0.8559  0.5811
10917TIP3    H254167   0.415   1.286  14.656 -0.3475 -0.5069 -0.7854
10918TIP3   OH254168   2.710   4.173  15.892  0.2999 -0.5448 -0.1145
10918TIP3    H154169   2.640   4.127  15.845  0.1313 -0.2095 -0.1993
10918TIP3    H254170   2.666   4.213  15.967  0.3767 -0.2294 -0.2365
10919TIP3   OH254171   1.819   5.096  13.476 -0.2465  0.6332  0.0255
10919TIP3    H154172   1.733   5.109  13.436 -0.6708 -0.5691  0.5169
10919TIP3    H254173   1.802   5.040  13.552  1.0021  0.2321  0.0286
10920TIP3   OH254174   4.202   1.097   2.822  0.2145  0.0964  0.1703
10920TIP3    H154175   4.240   1.125   2.906 -2.4328 -0.3551  1.6215
10920TIP3    H254176   4.275   1.057   2.775  1.3395 -1.8588  3.2780
10921TIP3   OH254177   5.891   4.168   5.958  0.1344 -0.5072  0.3553
10921TIP3    H154178   5.930   4.149   6.043  0.8176  0.0548  0.1736
10921TIP3    H254179   5.813   4.112   5.955 -1.0833  0.9578  2.2181
10922TIP3   OH254180   5.670   5.348   4.529  0.2429  0.0384 -0.1591
10922TIP3    H154181   5.621   5.266   4.529  0.5745 -0.1957  1.4170
10922TIP3    H254182   5.660   5.381   4.618  2.0721  0.5132 -0.0985
10923TIP3   OH254183   4.472   4.850  15.096 -0.1823 -0.1243  0.2979
10923TIP3    H154184   4.487   4.878  15.186 -0.0982  2.7942 -0.5393
10923TIP3    H254185   4.416   4.917  15.058  0.5102 -0.7782 -2.0799
10924TIP3   OH254186   4.563   4.930  12.559  0.8962 -0.4506 -0.1820
10924TIP3    H154187   4.496   4.917  12.625  0.6837  1.3568  0.0081
10924TIP3    H254188   4.646   4.920  12.606  0.7492 -0.2126  0.1303
10925TIP3   OH254189   4.074   3.283  16.270  0.5531 -0.0499 -0.4349
10925TIP3    H154190   4.024   3.201  16.273  0.1958  0.2006  0.8453
10925TIP3    H254191   4.127   3.282  16.350  0.9649  0.7181 -0.6853
10926TIP3   OH254192   6.205   6.556  14.503 -0.0303 -0.0483 -0.8508
10926TIP3    H154193   6.298   6.535  14.488 -0.0728  0.8968 -2.7282
10926TIP3    H254194   6.163   6.471  14.515  1.0213 -0.5139 -0.3517
10927TIP3   OH254195   6.356   4.557   4.842 -0.1705 -0.3291  0.2068
10927TIP3    H154196   6.406   4.486   4.800  1.5145  0.0825  1.4078
10927TIP3    H254197   6.311   4.600   4.770  1.4910 -0.5310 -1.0293
10928TIP3   OH254198   6.434   2.341  16.359 -0.4246 -0.0248 -0.1094
10928TIP3    H154199   6.489   2.413  16.327  0.5324 -0.3906  0.6623
10928TIP3    H254200   6.493   2.265  16.361 -1.4124 -0.8610 -0.9251
10929TIP3   OH254201   1.644   0.128  12.802 -0.1161  0.2622 -0.1523
10929TIP3    H154202   1.551   0.143  12.786 -0.4795 -1.0811  0.5022
10929TIP3    H254203   1.669   0.063  12.736  0.1172 -0.0600  0.2451
10930TIP3   OH254204   4.524   4.176   2.500 -0.0042 -0.4000 -0.2799
10930TIP3    H154205   4.600   4.220   2.537 -0.5373  0.3377 -0.0334
10930TIP3    H254206   4.560   4.105   2.447  0.9291  0.9287 -1.4807
10931TIP3   OH254207   2.154   2.996  17.193  0.3402 -0.0645 -0.4072
10931TIP3    H154208   2.085   3.058  17.171  0.4426 -0.3196 -1.5147
10931TIP3    H254209   2.150   2.988  17.288 -1.8913 -0.9310 -0.5206
10932TIP3   OH254210   1.455   3.055  14.963 -0.4847  0.0051 -0.1866
10932TIP3    H154211   1.467   3.061  15.058 -0.7530  0.1503 -0.1624
10932TIP3    H254212   1.535   3.011  14.932 -0.2732  0.1995  0.0738
10933TIP3   OH254213   6.020   4.488   4.974  0.6119  0.1307  0.1537
10933TIP3    H154214   6.091   4.462   5.033  0.5007 -1.4278 -0.3448
10933TIP3    H254215   5.940   4.461   5.020  0.2155  2.6572  1.1085
10934TIP3   OH254216   2.317   5.635   2.174  0.0252  0.1674 -0.0936
10934TIP3    H154217   2.378   5.709   2.166  0.8339 -0.4815 -0.1235
10934TIP3    H254218   2.357   5.567   2.119 -1.1605 -0.0045 -0.7696
10935TIP3   OH254219   3.120   0.413  11.735  0.1891  0.8901 -0.2881
10935TIP3    H154220   3.070   0.444  11.660 -0.5657  0.8682  0.1867
10935TIP3    H254221   3.156   0.492  11.774 -0.1399  0.9885 -0.1799
10936TIP3   OH254222   5.156   2.479  11.779 -0.6170  1.1738  0.3102
10936TIP3    H154223   5.145   2.574  11.783 -2.1322  1.0073  0.9517
10936TIP3    H254224   5.083   2.449  11.724 -0.0921  0.3760  0.0267
10937TIP3   OH254225   3.156   0.625   3.896  0.0681 -0.5852 -0.0726
10937TIP3    H154226   3.075   0.602   3.850 -0.6256  0.8943  0.3739
10937TIP3    H254227   3.140   0.602   3.987  0.1791 -0.3414  0.0091
10938TIP3   OH254228   4.906   3.431   3.730  0.2808  0.4166 -0.4343
10938TIP3    H154229   4.980   3.481   3.695  1.0442 -1.5663 -1.8308
10938TIP3    H254230   4.929   3.416   3.822  1.6408 -0.1164 -0.8281
10939TIP3   OH254231   1.905   2.117   1.561  0.4102  0.0746 -0.2080
10939TIP3    H154232   1.898   2.039   1.506 -1.6440  1.5413 -2.2403
10939TIP3    H254233   1.815   2.149   1.569  0.8104  0.7358  2.9353
10940TIP3   OH254234   3.712   2.193  11.309 -0.8677  0.2783  0.1414
10940TIP3    H154235   3.639   2.134  11.328 -2.0245  0.9035 -2.0464
10940TIP3    H254236   3.779   2.137  11.271 -0.7602 -0.0743  0.8358
10941TIP3   OH254237   5.386   6.242  15.301  0.5370 -0.1721  0.0191
10941TIP3    H154238   5.388   6.213  15.210 -0.5242  1.9750 -0.7439
10941TIP3    H254239   5.307   6.200  15.337  1.0571 -1.1695  0.0253
10942TIP3   OH254240   0.596   4.246   0.612  0.1179  0.0923 -0.4947
10942TIP3    H154241   0.525   4.195   0.571 -0.1865  0.9558 -1.0615
10942TIP3    H254242   0.657   4.180   0.644  0.3513 -0.6323 -2.2993
10943TIP3   OH254243   0.144   0.406   5.563 -0.3113 -0.4803 -0.7657
10943TIP3    H154244   0.213   0.412   5.630 -0.8136 -0.0789 -0.2713
10943TIP3    H254245   0.120   0.497   5.546 -0.7514 -0.6195 -0.9016
10944TIP3   OH254246   0.689   0.595  16.387  0.6347 -0.6267  0.5803
10944TIP3    H154247   0.671   0.596  16.481 -0.2345 -0.1620  0.4216
10944TIP3    H254248   0.689   0.687  16.361  2.2943 -0.6581  0.3620
10945TIP3   OH254249   6.424   6.589  15.158 -0.1595  0.2917 -0.2912
10945TIP3    H154250   6.463   6.504  15.179 -0.9191  0.0473  0.1403
10945TIP3    H254251   6.363   6.570  15.086 -0.2244  0.4972 -0.2894
10946TIP3   OH254252   5.983   4.258  12.473  0.4161 -0.7815  0.1895
10946TIP3    H154253   6.008   4.284  12.561  0.4106  0.2900 -0.1029
10946TIP3    H254254   6.046   4.302  12.416 -1.8092  1.7493 -0.5613
10947TIP3   OH254255   3.995   2.256  10.542  0.0101  0.4241 -0.4369
10947TIP3    H154256   4.064   2.234  10.604 -0.7369 -0.4467  0.1111
10947TIP3    H254257   3.918   2.211  10.575 -0.4119 -0.0596 -2.0052
10948TIP3   OH254258   4.378   2.835   2.705 -0.1099 -0.7744  0.9750
10948TIP3    H154259   4.466   2.805   2.724  0.1271 -0.0572  1.0454
10948TIP3    H254260   4.382   2.930   2.714 -0.9529 -0.7508  1.2442
10949TIP3   OH254261   4.509   4.388  15.389 -0.7819 -0.4480  0.7352
10949TIP3    H154262   4.414   4.387  15.382 -0.7376  0.1335 -0.1257
10949TIP3    H254263   4.537   4.305  15.350 -0.8465  0.3101 -1.0148
10950TIP3   OH254264   3.963   3.339  16.901 -0.2262 -0.3912 -0.1808
10950TIP3    H154265   3.870   3.323  16.913  0.1604 -2.4092  0.4613
10950TIP3    H254266   3.970   3.375  16.813 -1.7674  1.7726  0.4746
10951TIP3   OH254267   2.895   3.061  16.812  0.0113 -0.3001 -0.4184
10951TIP3    H154268   2.954   3.129  16.781  1.0231 -2.4904 -3.9595
10951TIP3    H254269   2.812   3.078  16.766 -0.1868 -0.6240 -0.1850
10952TIP3   OH254270   3.666   0.741   4.027  0.6115  0.0437  0.1716
10952TIP3    H154271   3.583   0.765   4.068  0.4689 -1.7293  1.0341
10952TIP3    H254272   3.642   0.718   3.938  0.2958  0.2613  0.1967
10953TIP3   OH254273   0.192   5.226   1.434 -0.0551 -0.0918 -0.2471
10953TIP3    H154274   0.098   5.219   1.417  0.0241 -0.0831 -0.6853
10953TIP3    H254275   0.197   5.264   1.522 -0.4964 -2.6307  0.9951
10954TIP3   OH254276   2.972   6.701  12.146  0.3055  0.0360  0.3735
10954TIP3    H154277   3.037   6.729  12.082  1.2639 -0.1819  1.2206
10954TIP3    H254278   3.014   6.628  12.192 -1.1804 -1.2122 -0.1468
10955TIP3   OH254279   5.795   6.446  15.395  0.0989  0.0075  0.1485
10955TIP3    H154280   5.740   6.484  15.326 -3.1130 -0.4674  2.2517
10955TIP3    H254281   5.784   6.506  15.469  3.2335  0.3516  0.4658
10956TIP3   OH254282   5.690   2.313  16.029 -0.5382 -0.3921  0.0782
10956TIP3    H154283   5.595   2.314  16.037 -0.5750  1.8157 -0.0342
10956TIP3    H254284   5.712   2.221  16.018 -2.8019 -0.8463 -1.4876
10957TIP3   OH254285   4.552   2.383   3.627  0.3590  0.0705 -0.3360
10957TIP3    H154286   4.463   2.418   3.637  0.5923  1.2556 -1.9237
10957TIP3    H254287   4.603   2.431   3.692 -0.0011  0.0626 -0.0450
10958TIP3   OH254288   3.676   2.303   0.987 -0.1586  0.1594  0.2715
10958TIP3    H154289   3.621   2.253   1.047 -0.8481  1.6179  0.8966
10958TIP3    H254290   3.687   2.388   1.029  0.4143  0.7813 -1.0791
10959TIP3   OH254291   2.080   6.510   2.536  0.0037 -0.4610 -0.1010
10959TIP3    H154292   2.057   6.531   2.626 -1.3180 -1.7210 -0.1042
10959TIP3    H254293   2.034   6.428   2.518  0.5888 -0.4578 -1.7780
10960TIP3   OH254294   5.310   2.222  15.133  0.3050  0.6665  0.0138
10960TIP3    H154295   5.291   2.283  15.062  0.1096  1.1439  0.4627
10960TIP3    H254296   5.258   2.145  15.112 -1.1689  1.4614  0.5284
10961TIP3   OH254297   3.807   3.898  14.620 -0.4033 -0.0837 -0.0594
10961TIP3    H154298   3.839   3.926  14.706 -0.1518  1.4050 -0.6159
10961TIP3    H254299   3.870   3.831  14.592  1.7090  2.0369 -0.6803
10962TIP3   OH254300   2.405   6.066   1.905 -0.1496  0.2508 -0.6644
10962TIP3    H154301   2.330   6.107   1.863 -1.1924  0.6325  1.4575
10962TIP3    H254302   2.469   6.137   1.916 -0.7521  0.6561  0.3151
10963TIP3   OH254303   0.544   4.530  13.942 -0.6160 -0.0821 -0.0792
10963TIP3    H154304   0.542   4.547  14.036  0.3422  1.8022 -0.3354
10963TIP3    H254305   0.476   4.586  13.906  1.2959  1.9313 -0.7839
10964TIP3   OH254306   4.935   2.101   1.571 -0.1617  0.2484 -0.4987
10964TIP3    H154307   4.912   2.016   1.609 -0.0931 -0.1596 -1.3312
10964TIP3    H254308   4.952   2.157   1.646 -0.2355 -0.4667  0.0701
10965TIP3   OH254309   3.582   0.065   3.344 -0.1136  0.2683  1.1084
10965TIP3    H154310   3.621   0.143   3.304 -1.1776 -0.1187 -0.8138
10965TIP3    H254311   3.488   0.078   3.334 -0.2866 -1.9451 -0.7187
10966TIP3   OH254312   0.465   1.891  12.749 -0.5306 -0.3424 -0.2381
10966TIP3    H154313   0.433   1.930  12.831 -0.1219  0.5843 -0.5120
10966TIP3    H254314   0.560   1.892  12.757 -0.4933 -0.4454 -0.6402
10967TIP3   OH254315   4.463   4.112  13.035 -0.1763  0.1298  0.3092
10967TIP3    H154316   4.475   4.130  12.942 -0.9663 -1.2781 -0.0945
10967TIP3    H254317   4.388   4.053  13.039 -1.5724  1.9006  2.0266
10968TIP3   OH254318   1.273   3.537   3.100  0.2591 -0.4177 -0.5887
10968TIP3    H154319   1.358   3.528   3.056 -0.1136 -1.1793 -1.1799
10968TIP3    H254320   1.271   3.463   3.161  0.6032  0.4067  0.4505
10969TIP3   OH254321   4.778   6.621  12.184  0.3770  0.1126  0.2187
10969TIP3    H154322   4.762   6.645  12.092  0.6914  0.4021  0.2366
10969TIP3    H254323   4.859   6.569  12.181 -0.4033 -1.1435  0.1530
10970TIP3   OH254324   2.087   1.943  12.005  0.0347  0.0093 -0.0438
10970TIP3    H154325   2.169   1.966  11.960  1.1203 -1.2058  1.2320
10970TIP3    H254326   2.027   2.015  11.983  1.3103  0.7550 -1.2967
10971TIP3   OH254327   2.961   1.729  12.505 -0.2910  0.1012 -0.8363
10971TIP3    H154328   2.904   1.771  12.570 -0.7730  0.3996 -1.4396
10971TIP3    H254329   2.901   1.694  12.439  0.2456  0.9959 -1.8306
10972TIP3   OH254330   6.518   1.521  12.918  0.1511  0.3545  0.0679
10972TIP3    H154331   6.554   1.605  12.946  0.8424  0.6839 -1.7241
10972TIP3    H254332   6.541   1.460  12.989  2.6817  0.9303 -0.1886
10973TIP3   OH254333   5.172   0.957  15.624 -0.0453  0.0832  0.3114
10973TIP3    H154334   5.140   0.880  15.670  0.4396  0.3001  1.0398
10973TIP3    H254335   5.129   1.031  15.667 -1.0908  0.1991 -0.8762
10974TIP3   OH254336   4.132   5.762   4.959 -0.1509 -0.0649  0.1228
10974TIP3    H154337   4.118   5.670   4.985 -1.8339 -0.0041 -0.3965
10974TIP3    H254338   4.114   5.762   4.865  0.5329  0.6758 -0.0082
10975TIP3   OH254339   4.159   6.724   6.480 -0.0649  0.2323  0.3087
10975TIP3    H154340   4.213   6.714   6.559 -0.1796  0.3347  0.4019
10975TIP3    H254341   4.219   6.711   6.407  0.1462  0.6415  0.4084
10976TIP3   OH254342   1.633   4.498  15.981  0.1246  0.2634  0.1868
10976TIP3    H154343   1.572   4.429  15.955 -0.5701  0.9472 -0.0271
10976TIP3    H254344   1.697   4.503  15.910 -0.6137  0.7622 -0.4562
10977TIP3   OH254345   0.646   6.289  14.007 -0.3201  0.5780 -0.2675
10977TIP3    H154346   0.605   6.374  14.024 -0.2739  0.4317  0.6196
10977TIP3    H254347   0.665   6.253  14.094  0.9434  0.2770 -0.6378
10978TIP3   OH254348   0.439   5.520  14.959  0.4527 -0.2709 -0.1106
10978TIP3    H154349   0.479   5.464  15.025  1.3985 -0.9812 -1.2341
10978TIP3    H254350   0.500   5.516  14.885  0.2322  1.7844 -0.4459
10979TIP3   OH254351   4.865   3.804  12.868  0.4187 -0.6834 -0.2118
10979TIP3    H154352   4.777   3.767  12.861 -0.0993  0.2112  1.0662
10979TIP3    H254353   4.897   3.808  12.778 -0.5207 -1.7610 -0.6223
10980TIP3   OH254354   1.952   5.006  13.913  0.5670 -0.2126 -0.0981
10980TIP3    H154355   1.917   4.924  13.948  1.3526 -0.7649 -0.5791
10980TIP3    H254356   2.017   5.034  13.977  0.6086 -0.1929 -0.1494
10981TIP3   OH254357   0.716   5.394   4.921 -0.5605 -0.5188 -0.4665
10981TIP3    H154358   0.743   5.302   4.917 -0.5495 -0.6148  1.1554
10981TIP3    H254359   0.634   5.394   4.970 -0.1370  0.4061  0.2797
10982TIP3   OH254360   1.951   4.992  15.894  0.5631  0.2871 -0.1615
10982TIP3    H154361   2.040   4.986  15.860  0.2999 -0.6923 -0.7349
10982TIP3    H254362   1.896   5.007  15.817  0.2178  0.7630  0.1708
10983TIP3   OH254363   1.069   2.390   3.800  0.0557 -0.0717  0.9736
10983TIP3    H154364   1.127   2.464   3.787 -0.3697  0.2334  0.8023
10983TIP3    H254365   1.073   2.372   3.894 -0.7337  0.9176  1.2153
10984TIP3   OH254366   0.053   3.545  15.456 -0.2383  0.4912  0.0556
10984TIP3    H154367   0.111   3.621  15.470 -0.8848  0.8212  1.0443
10984TIP3    H254368  -0.008   3.574  15.388  1.5779 -0.3516 -2.0396
10985TIP3   OH254369   5.459   5.132   1.172 -0.4376 -0.4379  0.0466
10985TIP3    H154370   5.505   5.213   1.194  0.4900 -1.1887  0.9906
10985TIP3    H254371   5.392   5.123   1.240 -0.9857 -0.1237 -0.4481
10986TIP3   OH254372   2.079   5.444  12.517  0.5669 -0.1673  0.4705
10986TIP3    H154373   2.065   5.365  12.568  0.9391  0.2418  1.2375
10986TIP3    H254374   2.079   5.515  12.582 -1.3459  0.6598 -0.3507
10987TIP3   OH254375   5.004   1.429  11.157 -0.2288 -0.3817 -0.3553
10987TIP3    H154376   4.953   1.427  11.076  1.3810 -1.1760 -1.4089
10987TIP3    H254377   5.025   1.338  11.175  0.2182 -0.1345  0.4322
10988TIP3   OH254378   2.704   1.465   1.305  0.4884  0.0249 -0.2795
10988TIP3    H154379   2.695   1.388   1.247  0.8843 -1.0328  1.0177
10988TIP3    H254380   2.747   1.531   1.250  1.7287 -1.2642 -0.9434
10989TIP3   OH254381   4.991   6.545  15.117 -0.0445 -0.3601 -0.6295
10989TIP3    H154382   4.986   6.484  15.044 -4.4559 -1.9974  0.7119
10989TIP3    H254383   5.030   6.495  15.188 -0.7074 -0.6069 -0.4285
10990TIP3   OH254384   1.244   5.195  14.368 -0.2630 -0.1219 -0.8281
10990TIP3    H154385   1.223   5.137  14.440  1.4749  0.7371  0.4504
10990TIP3    H254386   1.279   5.274  14.409  2.4901 -0.2775 -2.5495
10991TIP3   OH254387   4.859   2.566   5.787  0.4102  0.0155 -0.8188
10991TIP3    H154388   4.916   2.515   5.844  0.1626 -1.7855 -2.0880
10991TIP3    H254389   4.774   2.565   5.831  0.3983 -0.7395 -0.8507
10992TIP3   OH254390   5.762   0.201   4.261  0.5752  0.0269  0.5511
10992TIP3    H154391   5.715   0.274   4.301  0.5562  0.4988 -0.3067
10992TIP3    H254392   5.699   0.162   4.201  0.8384 -0.1975  0.4191
10993TIP3   OH254393   0.968   6.683  12.818  0.5850  0.2542 -0.5076
10993TIP3    H154394   0.921   6.656  12.897  0.5448 -0.4812 -0.7723
10993TIP3    H254395   1.038   6.740  12.850  0.8723 -0.4226  0.1181
10994TIP3   OH254396   4.490   4.370   2.105 -0.2734  0.6596  0.1240
10994TIP3    H154397   4.431   4.299   2.130  0.4253  0.6841  1.9752
10994TIP3    H254398   4.461   4.395   2.017 -1.4902 -0.8955  0.0369
10995TIP3   OH254399   3.679   0.293   2.930 -0.1464 -0.3853 -0.1317
10995TIP3    H154400   3.669   0.359   2.999 -0.2683 -0.6133  0.0688
10995TIP3    H254401   3.621   0.222   2.956  0.6800 -0.9742  0.1279
10996TIP3   OH254402   4.100   2.499  16.044 -0.1553 -0.3982  0.0620
10996TIP3    H154403   4.181   2.481  16.093 -0.8149  2.9542  2.7387
10996TIP3    H254404   4.129   2.545  15.966  0.6098 -1.3375 -0.2310
10997TIP3   OH254405   0.922   6.496   3.880 -0.2876  0.3244 -0.1513
10997TIP3    H154406   0.932   6.494   3.785  0.9563  0.4896 -0.0331
10997TIP3    H254407   0.920   6.590   3.902 -4.1360  0.4427 -0.3234
10998TIP3   OH254408   2.834   3.766  15.222  0.4298 -0.0404 -0.7341
10998TIP3    H154409   2.891   3.712  15.276 -0.1529 -1.6177 -1.6376
10998TIP3    H254410   2.750   3.720  15.221 -0.6725  1.8243 -0.0732
10999TIP3   OH254411   2.567   4.175   4.247  0.4864  0.0674  0.0782
10999TIP3    H154412   2.636   4.225   4.291 -0.4455  1.9744 -0.5038
10999TIP3    H254413   2.500   4.162   4.314  0.8366 -0.6294  0.2954
11000TIP3   OH254414   1.055   1.465   3.946  0.1426 -0.1942  0.1534
11000TIP3    H154415   1.151   1.467   3.939  0.0589  1.3634 -0.9509
11000TIP3    H254416   1.034   1.372   3.946  1.7158 -0.6034  1.5432
11001TIP3   OH254417   3.942   4.255   2.245 -0.0984 -0.2421 -0.4926
11001TIP3    H154418   3.952   4.241   2.339 -1.5127  0.0166 -0.2704
11001TIP3    H254419   3.847   4.254   2.231  0.0926 -0.4391 -1.9454
11002TIP3   OH254420   4.473   5.440   3.469 -0.6275 -0.1009  0.1314
11002TIP3    H154421   4.551   5.403   3.427  0.3591  0.8484  1.0729
11002TIP3    H254422   4.501   5.524   3.502 -1.7600 -0.2239  1.4944
11003TIP3   OH254423   5.636   5.350  15.017  0.0104 -0.1530  0.1200
11003TIP3    H154424   5.650   5.256  15.025  1.9501  0.1030  0.1775
11003TIP3    H254425   5.701   5.389  15.075  0.8528  1.2643 -1.6740
11004TIP3   OH254426   5.208   6.746  16.771 -0.7295  0.2718  0.2409
11004TIP3    H154427   5.180   6.777  16.857 -0.0137  0.0808  0.5453
11004TIP3    H254428   5.218   6.826  16.719 -1.4619  0.3686  0.2284
11005TIP3   OH254429   5.524   3.165   5.622 -0.1530  0.5695  0.5927
11005TIP3    H154430   5.430   3.167   5.641 -0.3315 -1.5901  0.1180
11005TIP3    H254431   5.555   3.083   5.660  1.4542  1.0068  0.2962
11006TIP3   OH254432   6.283   1.496  12.261  0.4128 -0.6902 -0.2541
11006TIP3    H154433   6.371   1.520  12.232  0.6615  0.9491  1.6515
11006TIP3    H254434   6.297   1.421  12.320  0.7083  0.2664  0.9333
11007TIP3   OH254435   0.954   5.429   1.738  0.0503  0.4185 -0.5872
11007TIP3    H154436   0.970   5.349   1.689  0.2141  0.3985 -0.5031
11007TIP3    H254437   0.950   5.400   1.830 -0.1468  0.4700 -0.5791
11008TIP3   OH254438   6.640   4.662  15.072  0.2644  0.7098  0.2559
11008TIP3    H154439   6.561   4.627  15.030  0.6418 -0.3693  0.4016
11008TIP3    H254440   6.657   4.744  15.027 -0.2221  0.3278 -0.6499
11009TIP3   OH254441   3.128   5.432   0.570  0.1503  0.0471 -0.6608
11009TIP3    H154442   3.098   5.493   0.503 -1.6427 -0.1668 -0.0969
11009TIP3    H254443   3.115   5.346   0.531  1.9330 -0.0291 -1.1513
11010TIP3   OH254444   0.524   6.350   3.522  0.0119 -0.5589  0.3445
11010TIP3    H154445   0.446   6.406   3.518  0.2341 -0.0846  1.9453
11010TIP3    H254446   0.494   6.264   3.494 -0.7946 -0.0974 -0.2374
11011TIP3   OH254447   4.558   5.038  16.772 -0.3577 -0.3159 -0.3990
11011TIP3    H154448   4.623   5.107  16.787 -0.8631  0.4528 -1.5481
11011TIP3    H254449   4.557   4.988  16.853  1.1277  0.1049 -0.0868
11012TIP3   OH254450   6.355   6.541  12.066  0.3663 -0.7281 -0.2802
11012TIP3    H154451   6.305   6.483  12.009 -1.5549 -1.1959  1.7331
11012TIP3    H254452   6.446   6.513  12.055 -0.1227 -1.8772 -1.8245
11013TIP3   OH254453   0.579   0.980   2.952 -0.0715  0.1994  0.0331
11013TIP3    H154454   0.521   0.993   3.027 -0.4179 -1.4823  0.1118
11013TIP3    H254455   0.654   0.932   2.988  0.2404  0.2818 -0.4991
11014TIP3   OH254456   4.765   5.340   1.542  0.1929  0.3765 -0.4929
11014TIP3    H154457   4.843   5.305   1.498  0.8658  1.9838 -0.6284
11014TIP3    H254458   4.735   5.409   1.484  1.1993  2.6986  1.5858
11015TIP3   OH254459   4.851   5.741   4.178 -0.3534  0.4655  0.4632
11015TIP3    H154460   4.805   5.792   4.111 -1.1496 -1.4124 -0.4807
11015TIP3    H254461   4.861   5.654   4.140  3.5631  0.5962  0.8631
11016TIP3   OH254462   3.617   6.461   0.009  0.3554  0.4109 -0.5778
11016TIP3    H154463   3.652   6.372   0.008  0.9069  0.6260 -1.1154
11016TIP3    H254464   3.535   6.455   0.058  0.1608 -0.4754 -1.0015
11017TIP3   OH254465   5.107   1.803  11.374 -0.3813  0.0713  0.3328
11017TIP3    H154466   5.066   1.872  11.321  0.9801  2.2668  1.9760
11017TIP3    H254467   5.079   1.822  11.463 -0.0722 -1.6333  0.8149
11018TIP3   OH254468   3.368   0.528  13.679  0.1259 -0.5383 -0.3426
11018TIP3    H154469   3.436   0.474  13.639 -0.3319 -1.6194  0.3163
11018TIP3    H254470   3.285   0.488  13.652 -0.2426  0.1903 -0.3395
11019TIP3   OH254471   6.278   3.932   1.625  0.5478  0.4350 -0.5948
11019TIP3    H154472   6.365   3.902   1.599  0.5900 -0.4583  0.5086
11019TIP3    H254473   6.229   3.938   1.543  0.4413 -3.0215 -0.9426
11020TIP3   OH254474   0.408   1.389   0.624 -0.4489  0.5966 -0.0568
11020TIP3    H154475   0.420   1.367   0.532  3.7276  1.5365  0.0456
11020TIP3    H254476   0.387   1.306   0.666  0.0806 -0.3432 -1.5631
11021TIP3   OH254477   3.826   2.442   1.860 -0.0082 -0.9799  0.7905
11021TIP3    H154478   3.744   2.482   1.832  0.1168 -0.4310  1.1997
11021TIP3    H254479   3.800   2.358   1.898 -0.3660 -0.8556  0.8229
11022TIP3   OH254480   3.796   3.794  15.386 -0.2941  0.1733 -0.3686
11022TIP3    H154481   3.804   3.709  15.429  0.3976 -0.3134 -1.3901
11022TIP3    H254482   3.842   3.782  15.302  0.7942  1.8818 -0.0637
11023TIP3   OH254483   2.207   0.203  11.590  0.3935 -0.8790  0.3111
11023TIP3    H154484   2.137   0.214  11.526  1.1210 -0.4271 -0.4412
11023TIP3    H254485   2.226   0.109  11.590  0.0152 -0.9540  0.2674
11024TIP3   OH254486   0.671   1.671  13.962  0.0948  0.1831 -0.0549
11024TIP3    H154487   0.599   1.644  13.905 -0.4390  1.5185 -0.0621
11024TIP3    H254488   0.663   1.766  13.966  0.4946  0.1815  1.7451
11025TIP3   OH254489   3.904   1.487  17.029  0.0220  0.4627 -0.5779
11025TIP3    H154490   3.907   1.396  17.000  1.3212  0.9447 -2.0340
11025TIP3    H254491   3.983   1.499  17.082  0.0078  0.8211 -0.6323
11026TIP3   OH254492   3.938   0.364   6.819 -0.7946  0.8521 -0.4419
11026TIP3    H154493   3.886   0.285   6.804 -1.3008  0.9463  0.6847
11026TIP3    H254494   3.941   0.407   6.734 -0.5308 -0.3646 -1.0654
11027TIP3   OH254495   1.264   3.703  11.733 -0.1256  0.1473  0.4363
11027TIP3    H154496   1.244   3.613  11.705  0.5953  0.0013  0.3804
11027TIP3    H254497   1.280   3.750  11.652  1.2243 -0.0986  0.5386
11028TIP3   OH254498   6.490   6.342   6.493 -0.0048  0.2540 -0.5156
11028TIP3    H154499   6.564   6.284   6.510 -1.3553 -1.2889  0.3599
11028TIP3    H254500   6.420   6.309   6.550 -0.5518  3.4077  0.8708
11029TIP3   OH254501   1.700   2.612   0.865 -0.5370  0.5751  0.2543
11029TIP3    H154502   1.787   2.642   0.892 -0.7847  1.5977 -0.0364
11029TIP3    H254503   1.641   2.647   0.932 -1.0932  2.6740 -1.2291
11030TIP3   OH254504   2.988   4.339   0.520  0.5308  0.2779  0.5881
11030TIP3    H154505   2.989   4.418   0.575  1.7367 -0.1387  1.1992
11030TIP3    H254506   3.005   4.371   0.432 -1.5406  0.9703  0.3864
11031TIP3   OH254507   1.974   0.135   4.046 -0.1775 -0.1008 -0.1404
11031TIP3    H154508   1.987   0.229   4.034 -0.5381  0.0212  0.3519
11031TIP3    H254509   1.940   0.104   3.962 -2.3610  0.6546  0.3826
11032TIP3   OH254510   2.641   2.611   1.281 -0.2066 -0.3662  0.4521
11032TIP3    H154511   2.720   2.648   1.319 -0.6166  0.8054  0.1816
11032TIP3    H254512   2.615   2.672   1.213 -1.1996 -0.8695  0.3556
11033TIP3   OH254513   5.665   3.542  15.682  0.0677 -0.7512  0.1233
11033TIP3    H154514   5.620   3.485  15.619 -0.8330  0.3501 -0.2758
11033TIP3    H254515   5.625   3.521  15.766 -0.1569 -0.8229  0.0007
11034TIP3   OH254516   5.890   0.180  15.924  0.4281  0.5858  0.0050
11034TIP3    H154517   5.981   0.196  15.902  0.0719  0.1469 -2.0035
11034TIP3    H254518   5.853   0.141  15.845 -1.3127  0.0263  1.0440
11035TIP3   OH254519   3.094   4.563  15.067  1.1843  0.2270  0.2081
11035TIP3    H154520   3.153   4.501  15.026  0.9499 -1.0596  1.7022
11035TIP3    H254521   3.006   4.530  15.046  1.0339  0.7441  0.0149
11036TIP3   OH254522   5.443   0.724   7.016  0.4113  0.4307  0.3048
11036TIP3    H154523   5.348   0.731   7.020  0.5535  3.7510  0.9577
11036TIP3    H254524   5.465   0.743   6.924  0.4516  1.1336  0.4475
11037TIP3   OH254525   3.895   3.218   0.597  0.0126 -0.6468 -1.2848
11037TIP3    H154526   3.872   3.140   0.546  0.9426 -1.1524 -0.9459
11037TIP3    H254527   3.892   3.289   0.533 -0.9949 -0.9232 -1.5637
11038TIP3   OH254528   6.372   3.550  15.030 -0.0943 -0.5175 -0.0286
11038TIP3    H154529   6.296   3.509  14.987  0.6776  0.3671 -2.4075
11038TIP3    H254530   6.376   3.508  15.116 -1.9813 -2.1455 -0.6404
11039TIP3   OH254531   4.011   2.731   5.627  0.0614 -0.4329 -0.0887
11039TIP3    H154532   4.014   2.712   5.721  1.9847  2.5938  0.5996
11039TIP3    H254533   4.035   2.823   5.620 -1.5166 -0.1209 -3.4962
11040TIP3   OH254534   0.039   0.999  11.571  0.4777  0.2839  0.0182
11040TIP3    H154535   0.024   1.041  11.655  0.4115  1.1556 -0.4126
11040TIP3    H254536   0.133   1.008  11.556  1.0243 -2.3932  1.2752
11041TIP3   OH254537   4.899   1.530  15.836  0.4975  0.0221 -0.0691
11041TIP3    H154538   4.857   1.520  15.750 -1.3630  3.2892  0.2887
11041TIP3    H254539   4.983   1.571  15.817 -0.4321  1.9052 -0.3568
11042TIP3   OH254540   3.225   2.057   5.680 -0.3275  0.2645  0.4253
11042TIP3    H154541   3.228   2.015   5.595  2.5790 -0.1432  0.6234
11042TIP3    H254542   3.243   2.149   5.662  0.9628  0.0654  0.6156
11043TIP3   OH254543   3.315   5.731  14.240  0.8805  0.1766  0.1635
11043TIP3    H154544   3.222   5.716  14.254  0.8579  2.0413  2.6679
11043TIP3    H254545   3.323   5.826  14.230  2.5772  0.1337  0.7569
11044TIP3   OH254546   3.540   2.953   2.865  0.8152 -0.0230 -0.1153
11044TIP3    H154547   3.547   2.887   2.796  1.1792 -0.3159  0.1956
11044TIP3    H254548   3.461   2.930   2.914  2.2539 -1.7488  1.5361
11045TIP3   OH254549   6.189   2.871  14.449  0.7799 -0.4273 -0.1531
11045TIP3    H154550   6.223   2.802  14.506 -0.4123 -1.1809 -0.3185
11045TIP3    H254551   6.250   2.871  14.374  0.1301 -2.1775 -0.7402
11046TIP3   OH254552   0.868   0.069  13.119 -0.8340 -0.5567  0.1409
11046TIP3    H154553   0.817  -0.003  13.157 -1.0162 -0.3145  0.3532
11046TIP3    H254554   0.835   0.147  13.162 -0.9858 -0.2876 -0.4601
11047TIP3   OH254555   3.670   4.121   2.342 -0.1938  0.4439 -0.0000
11047TIP3    H154556   3.614   4.084   2.410  0.4097  0.1207  0.3327
11047TIP3    H254557   3.620   4.195   2.306 -0.8085  0.1833  0.3096
11048TIP3   OH254558   4.669   0.779   3.785 -0.6312  0.0363 -0.0613
11048TIP3    H154559   4.640   0.814   3.701 -0.1366  1.1693  0.2170
11048TIP3    H254560   4.713   0.852   3.827 -1.7177 -0.2345  1.6132
11049TIP3   OH254561   2.557   0.906   3.601  0.4591  0.3358 -0.4180
11049TIP3    H154562   2.471   0.943   3.581 -0.2048  0.0797  1.6637
11049TIP3    H254563   2.619   0.956   3.547 -0.9235  0.9363 -1.4894
11050TIP3   OH254564   6.512   2.232  13.353 -0.0843 -0.1597 -0.5987
11050TIP3    H154565   6.521   2.208  13.261 -1.3146 -0.1915 -0.7294
11050TIP3    H254566   6.526   2.151  13.401 -1.5355 -0.6262 -0.8942
11051TIP3   OH254567   1.527   5.193   0.114  0.5110  0.0664 -0.6460
11051TIP3    H154568   1.594   5.235   0.169 -0.2661 -0.0967  0.4689
11051TIP3    H254569   1.444   5.223   0.151 -0.0460 -0.8330 -1.1254
11052TIP3   OH254570   5.277   4.970   0.238  0.4246 -0.2330  0.2525
11052TIP3    H154571   5.307   4.966   0.147  0.2651  0.1215  0.1826
11052TIP3    H254572   5.356   4.955   0.290  0.5565 -0.2259  0.0559
11053TIP3   OH254573   1.655   2.530   3.117  0.1132  0.8259  0.0514
11053TIP3    H154574   1.631   2.486   3.035  0.9548  1.3584 -0.5043
11053TIP3    H254575   1.606   2.612   3.115  2.6240  2.4341 -1.6236
11054TIP3   OH254576   5.163   0.151   5.599  0.4917  0.2135  0.2083
11054TIP3    H154577   5.178   0.125   5.690 -1.9883 -0.2823  0.5492
11054TIP3    H254578   5.190   0.074   5.548  0.6252 -0.0164  0.6189
11055TIP3   OH254579   1.365   4.364   3.531  0.2512 -0.1501 -0.1485
11055TIP3    H154580   1.380   4.456   3.508 -0.6964 -0.2899 -1.4396
11055TIP3    H254581   1.270   4.355   3.535  0.2908 -1.2816 -1.0426
11056TIP3   OH254582   2.218   5.354   4.838 -0.5620 -0.1643  0.3210
11056TIP3    H154583   2.238   5.261   4.836  0.5424  0.0647 -0.6339
11056TIP3    H254584   2.147   5.366   4.776  1.5276  0.0534 -2.1869
11057TIP3   OH254585   2.438   5.705   3.292  0.4080  0.3899  0.0649
11057TIP3    H154586   2.486   5.635   3.337  0.1064  1.1561  1.6616
11057TIP3    H254587   2.491   5.725   3.215  2.3004  0.7478  1.4030
11058TIP3   OH254588   5.935   4.632   0.437  0.5058 -0.6018 -0.4496
11058TIP3    H154589   5.854   4.592   0.405  0.2664 -0.7977  0.3717
11058TIP3    H254590   5.918   4.727   0.433 -0.2504 -0.6474  0.8608
11059TIP3   OH254591   3.867   0.850   1.333 -0.1327  0.0138  0.6188
11059TIP3    H154592   3.859   0.928   1.388 -1.4143 -0.0605  0.5864
11059TIP3    H254593   3.824   0.875   1.251  0.3513 -0.3927  0.2407
11060TIP3   OH254594   4.067   2.642  15.317 -0.0649 -0.0980  0.3487
11060TIP3    H154595   4.076   2.550  15.292 -0.7582 -0.2465  0.6088
11060TIP3    H254596   4.155   2.678  15.308  0.2556 -0.8350  0.4355
11061TIP3   OH254597   4.877   1.568  11.545  0.2273  0.2786 -0.1986
11061TIP3    H154598   4.813   1.514  11.498  0.6031 -0.6864  0.3656
11061TIP3    H254599   4.960   1.521  11.534  0.4435  0.3885  0.8780
11062TIP3   OH254600   1.683   3.543  16.730  0.1673 -0.0570  0.3256
11062TIP3    H154601   1.606   3.568  16.781 -0.6416 -2.9456  0.7258
11062TIP3    H254602   1.753   3.535  16.794 -0.5916 -2.6452  0.9394
11063TIP3   OH254603   6.611   6.083   3.559 -0.1242 -0.3029 -0.3491
11063TIP3    H154604   6.552   6.066   3.486  0.0598 -1.6950 -0.2128
11063TIP3    H254605   6.670   6.151   3.528 -1.6360  0.9547 -0.5665
11064TIP3   OH254606   5.987   4.360   4.743 -0.0729 -0.6637 -0.3292
11064TIP3    H154607   5.997   4.427   4.811 -0.6935 -0.2978 -0.5959
11064TIP3    H254608   5.943   4.287   4.788 -0.2299 -0.5347 -0.2750
11065TIP3   OH254609   1.355   3.129  11.109 -0.5749 -0.3195  0.6204
11065TIP3    H154610   1.398   3.105  11.191  0.7894  0.7088  0.2524
11065TIP3    H254611   1.390   3.068  11.045 -1.9810 -1.4144  0.8499
11066TIP3   OH254612   3.743   3.085   3.006  0.5677 -0.0693  0.4306
11066TIP3    H154613   3.666   3.058   2.957  0.4309  1.4250 -0.2295
11066TIP3    H254614   3.798   3.007   3.011  0.9365 -0.1553 -2.7676
11067TIP3   OH254615   5.487   5.817   5.814  0.2972 -0.7586  0.3878
11067TIP3    H154616   5.476   5.779   5.901  0.5676  0.1180  0.8194
11067TIP3    H254617   5.407   5.795   5.767 -0.3607 -0.2674  1.2447
11068TIP3   OH254618   2.469   5.795  15.389 -0.0807 -0.1303 -0.2616
11068TIP3    H154619   2.474   5.846  15.470 -0.4552 -1.0164  0.3288
11068TIP3    H254620   2.529   5.840  15.329 -0.5376  1.1093  0.1812
11069TIP3   OH254621   5.056   3.141  15.148  0.3652  0.4085 -0.2154
11069TIP3    H154622   5.138   3.177  15.181  0.1460 -0.2481  1.0916
11069TIP3    H254623   5.050   3.054  15.187 -1.5956  0.9515  0.8177
11070TIP3   OH254624   1.120   2.259  14.924 -0.4803  0.1261  0.0789
11070TIP3    H154625   1.046   2.320  14.924 -0.8023 -0.1952  2.2129
11070TIP3    H254626   1.196   2.314  14.901 -1.1158  0.7844 -0.5229
11071TIP3   OH254627   4.542   0.828   0.958 -0.7178 -0.3329  0.1382
11071TIP3    H154628   4.598   0.890   0.911 -0.6593 -0.0428  0.5867
11071TIP3    H254629   4.453   0.852   0.935 -0.7949  1.1811  1.8322
11072TIP3   OH254630   2.687   2.616   5.327 -0.1234 -0.0777 -0.2148
11072TIP3    H154631   2.774   2.611   5.285  0.4574  1.5118  0.7257
11072TIP3    H254632   2.642   2.686   5.280 -0.7285 -0.5609 -0.3684
11073TIP3   OH254633   5.662   6.000   2.720  0.4432 -0.1527 -0.1981
11073TIP3    H154634   5.672   5.963   2.632 -2.4757  0.4497 -0.8813
11073TIP3    H254635   5.664   5.925   2.779 -0.1113 -0.8445 -1.0445
11074TIP3   OH254636   6.094   2.762   4.621  0.0439  0.2635  0.1775
11074TIP3    H154637   6.037   2.690   4.594 -0.2549  0.3382  0.5996
11074TIP3    H254638   6.062   2.838   4.572 -0.5167  0.4061  0.7586
11075TIP3   OH254639   0.290   1.735   2.577  0.2361  0.4649  0.4132
11075TIP3    H154640   0.315   1.644   2.566 -0.3403  0.2342  0.9236
11075TIP3    H254641   0.323   1.779   2.499  0.9643 -0.0806  0.4024
11076TIP3   OH254642   6.454   4.901  16.517 -0.0631 -0.2949  0.4096
11076TIP3    H154643   6.455   4.966  16.447 -0.6449 -1.0473 -0.3245
11076TIP3    H254644   6.546   4.876  16.528 -0.0082 -0.4696 -0.3847
11077TIP3   OH254645   5.785   4.339  16.927  0.7729  0.4911  0.3411
11077TIP3    H154646   5.864   4.287  16.943  1.6501  0.6398 -2.8282
11077TIP3    H254647   5.791   4.365  16.835 -3.3582 -0.1054 -0.3005
11078TIP3   OH254648   6.010   3.095  11.594 -0.3796  0.5383  0.2096
11078TIP3    H154649   6.050   3.170  11.550 -1.1449  1.8562  1.6549
11078TIP3    H254650   6.053   3.091  11.679 -1.4656  0.3597  0.7718
11079TIP3   OH254651   5.965   1.159  14.438 -0.1812 -0.0673 -0.4543
11079TIP3    H154652   6.014   1.180  14.359 -0.3763 -1.0576 -0.8542
11079TIP3    H254653   6.018   1.194  14.510 -1.1606  3.0387 -1.0952
11080TIP3   OH254654   4.084   2.020   2.896  0.2452 -0.0998  0.0615
11080TIP3    H154655   4.127   1.945   2.937 -0.5963  0.0515  1.2648
11080TIP3    H254656   3.994   1.990   2.880 -0.1336  0.6749  0.6746
11081TIP3   OH254657   1.890   3.412  15.667  0.0494  0.3545  0.1474
11081TIP3    H154658   1.863   3.325  15.697 -0.3913  0.2707 -0.4909
11081TIP3    H254659   1.962   3.396  15.607 -0.3491  0.3906 -0.3493
11082TIP3   OH254660   2.944   4.409  11.565  0.5932 -0.6800 -0.4851
11082TIP3    H154661   3.005   4.397  11.492  1.1217 -1.9391  0.1228
11082TIP3    H254662   2.993   4.381  11.642 -0.3892 -0.6384  0.1787
11083TIP3   OH254663   6.178   2.195  11.934  0.8115 -0.1763 -0.2201
11083TIP3    H154664   6.095   2.194  11.886 -0.0727  0.6918  1.2379
11083TIP3    H254665   6.191   2.103  11.960  0.1366 -0.2582 -0.1557
11084TIP3   OH254666   4.892   1.522   6.432  0.0447 -0.3237  0.2855
11084TIP3    H154667   4.854   1.610   6.437 -0.0885 -0.3573 -0.0949
11084TIP3    H254668   4.948   1.524   6.354  1.6315  0.0251  1.3813
11085TIP3   OH254669   1.116   1.563   2.792 -0.6527  0.3360  0.3160
11085TIP3    H154670   1.113   1.636   2.729  1.0504 -0.1298 -0.3769
11085TIP3    H254671   1.085   1.487   2.742 -1.1472  0.3362  0.6266
11086TIP3   OH254672   0.628   3.065  13.694 -0.1964  0.3001 -0.6249
11086TIP3    H154673   0.672   3.032  13.772 -1.6006 -0.8781 -0.3001
11086TIP3    H254674   0.687   3.041  13.622 -0.4448 -1.6160 -0.2421
11087TIP3   OH254675   2.012   2.078   2.387 -0.1462 -0.1099  0.5861
11087TIP3    H154676   1.928   2.113   2.416 -0.0636  0.6007 -0.0103
11087TIP3    H254677   2.055   2.152   2.345  0.3555 -0.7361 -0.0145
11088TIP3   OH254678   4.407   2.507   4.114  0.5878  0.1237 -0.0626
11088TIP3    H154679   4.380   2.556   4.037  0.4651  0.2673  0.0710
11088TIP3    H254680   4.355   2.544   4.185  1.3048  0.5693  0.2468
11089TIP3   OH254681   0.819   3.297  13.419  0.2127 -0.2884 -0.1056
11089TIP3    H154682   0.821   3.275  13.512 -0.4861  0.4577  0.0988
11089TIP3    H254683   0.893   3.250  13.382  2.3729  1.6978  1.3597
11090TIP3   OH254684   4.796   2.569   1.383 -0.6952 -0.4295 -0.2949
11090TIP3    H154685   4.786   2.649   1.332  3.2060  0.5107  0.1050
11090TIP3    H254686   4.809   2.500   1.318  0.0117  0.0065 -0.6221
11091TIP3   OH254687   3.052   4.048   2.976  0.3487  0.0667 -0.3617
11091TIP3    H154688   3.023   4.094   2.898  1.1038  0.5301 -0.3836
11091TIP3    H254689   3.134   4.091   3.001 -1.3072  1.9495  2.4143
11092TIP3   OH254690   3.689   4.461   6.557  0.3308  0.0855 -0.2083
11092TIP3    H154691   3.678   4.465   6.462 -1.1483 -1.4855 -0.1525
11092TIP3    H254692   3.703   4.368   6.576  0.3173  0.3342  1.1399
11093TIP3   OH254693   4.024   3.112   3.934 -0.2056 -0.2629 -0.2441
11093TIP3    H154694   4.020   3.137   4.027  0.5816  0.0061 -0.2739
11093TIP3    H254695   4.102   3.156   3.901 -2.9791  3.6771 -2.2766
11094TIP3   OH254696   3.290   1.342   2.115 -0.7231 -0.5192 -0.3462
11094TIP3    H154697   3.322   1.419   2.068 -0.4705 -0.0778  0.5238
11094TIP3    H254698   3.228   1.377   2.179  1.0448 -0.7410  1.5824
11095TIP3   OH254699   1.650   2.855  15.271 -0.2596  0.1001  0.0372
11095TIP3    H154700   1.635   2.809  15.353 -0.4198 -0.6760 -0.4167
11095TIP3    H254701   1.583   2.822  15.212 -0.0456  0.5256 -0.4584
11096TIP3   OH254702   2.022   4.312   2.994 -0.4441 -0.0236  0.0782
11096TIP3    H154703   2.080   4.249   3.039 -1.5227 -0.8382  0.3804
11096TIP3    H254704   2.042   4.300   2.901  1.0823  0.9446  0.2404
11097TIP3   OH254705   0.779   2.777   6.426  0.3014  0.5301  0.6642
11097TIP3    H154706   0.797   2.825   6.345  0.2880 -1.9930 -0.9354
11097TIP3    H254707   0.719   2.834   6.475  1.6933  2.8970 -0.2404
11098TIP3   OH254708   6.078   2.830   3.180 -0.4239  0.6328 -0.3385
11098TIP3    H154709   6.160   2.812   3.134 -0.2441 -1.2272  0.5805
11098TIP3    H254710   6.105   2.870   3.262 -0.5902  1.8661 -0.8732
11099TIP3   OH254711   3.511   4.944  15.365 -0.0800  0.1412  0.0093
11099TIP3    H154712   3.462   4.927  15.284  0.1163  0.0994 -0.1019
11099TIP3    H254713   3.443   4.957  15.431 -0.2469  0.3607 -0.1998
11100TIP3   OH254714   2.015   3.141   4.907  0.2199  0.4573 -0.2432
11100TIP3    H154715   1.920   3.133   4.904 -0.2153  3.8642  0.2503
11100TIP3    H254716   2.039   3.123   4.998  0.2900 -1.7004 -0.6405
11101TIP3   OH254717   4.422   6.144   5.717 -0.3405  0.8961  0.6348
11101TIP3    H154718   4.491   6.130   5.781  0.7328  1.1511 -0.4362
11101TIP3    H254719   4.354   6.193   5.765  0.8590  1.9505  1.3257
11102TIP3   OH254720   3.762   2.194  14.449  0.4040  0.4509  0.2895
11102TIP3    H154721   3.781   2.123  14.388 -0.1252  0.5313  0.0303
11102TIP3    H254722   3.740   2.150  14.531  1.4973  0.3501  0.5449
11103TIP3   OH254723   2.396   0.943   0.103 -0.3693 -0.6081 -0.7668
11103TIP3    H154724   2.430   1.011   0.045 -0.8229  1.0796  0.8231
11103TIP3    H254725   2.311   0.919   0.065 -2.5621  3.2964  1.0207
11104TIP3   OH254726   6.283   1.754  15.114 -0.6199  0.0844  0.4885
11104TIP3    H154727   6.344   1.810  15.162  1.1252 -2.1962  1.0873
11104TIP3    H254728   6.328   1.735  15.031 -1.0624 -0.6284  0.4060
11105TIP3   OH254729   4.566   3.139  13.192  0.2658  0.0261  0.2793
11105TIP3    H154730   4.615   3.109  13.269 -2.6009 -2.5962  1.2994
11105TIP3    H254731   4.498   3.197  13.229 -0.7445 -0.7520 -0.3242
11106TIP3   OH254732   6.058   6.766  14.429 -0.1379  0.0950  0.1107
11106TIP3    H154733   6.082   6.677  14.454 -0.2883  0.0455  0.0866
11106TIP3    H254734   6.059   6.765  14.333  0.2079  0.2175  0.1148
11107TIP3   OH254735   6.546   4.880  13.085 -0.0833  0.1421  0.7652
11107TIP3    H154736   6.567   4.958  13.034 -2.3748  2.2768  2.8499
11107TIP3    H254737   6.618   4.873  13.148  0.2387  0.4018  0.4347
11108TIP3   OH254738   6.690   0.115  14.395  0.5586  0.5363 -0.1339
11108TIP3    H154739   6.641   0.164  14.461 -0.9856 -0.5522 -0.3942
11108TIP3    H254740   6.753   0.177  14.360 -0.7643  2.0821  0.1101
11109TIP3   OH254741   5.835   2.826   0.475  0.2706 -0.4446  0.4585
11109TIP3    H154742   5.825   2.821   0.570 -0.2052 -1.1502  0.3849
11109TIP3    H254743   5.838   2.734   0.447 -1.4113 -0.2805 -0.3739
11110TIP3   OH254744   0.103   5.850  16.943  0.1409  0.0253 -0.3410
11110TIP3    H154745   0.027   5.828  16.997 -0.3439  0.0670 -1.0019
11110TIP3    H254746   0.118   5.772  16.889  2.6051 -1.3275  2.0451
11111TIP3   OH254747   0.195   3.066  14.614 -0.4148 -0.2385  0.2957
11111TIP3    H154748   0.107   3.074  14.651 -0.2555 -1.5364  1.0040
11111TIP3    H254749   0.185   3.094  14.523 -1.2585  0.9736  0.7433
11112TIP3   OH254750   5.158   4.568   6.560 -0.3311 -0.2028 -0.3164
11112TIP3    H154751   5.240   4.546   6.515 -0.4349 -2.3029  0.4163
11112TIP3    H254752   5.100   4.597   6.490  0.0011 -1.9317 -1.3633
11113TIP3   OH254753   5.546   3.507  10.714  0.5494  0.4097 -0.9014
11113TIP3    H154754   5.535   3.417  10.683  0.3388  0.5663 -1.2896
11113TIP3    H254755   5.469   3.553  10.680  0.0041  0.4679  0.3236
11114TIP3   OH254756   5.729   0.387   3.320 -0.4342 -0.3044 -0.0077
11114TIP3    H154757   5.659   0.366   3.382 -0.4904  0.8817  0.3441
11114TIP3    H254758   5.808   0.396   3.373 -0.1346 -0.9828 -0.3260
11115TIP3   OH254759   6.192   6.262  16.741 -0.0091  0.1258 -0.1807
11115TIP3    H154760   6.179   6.311  16.660 -1.5629  0.2493  0.1129
11115TIP3    H254761   6.116   6.204  16.747  1.5764 -2.0949 -0.3271
11116TIP3   OH254762   1.637   4.725  14.867  0.3333 -0.1718 -0.0549
11116TIP3    H154763   1.682   4.784  14.928 -0.6163  0.1878  0.3114
11116TIP3    H254764   1.546   4.754  14.868  0.2001 -0.4944 -1.2532
11117TIP3   OH254765   4.891   0.559  11.146  0.0397 -0.1490 -0.3141
11117TIP3    H154766   4.829   0.631  11.151 -0.3207 -0.4061 -0.9464
11117TIP3    H254767   4.882   0.526  11.056  0.2423 -0.9411 -0.0458
11118TIP3   OH254768   4.022   5.153   0.515  0.6031 -0.3694 -0.6214
11118TIP3    H154769   4.114   5.131   0.503  0.1263 -1.3484 -3.1150
11118TIP3    H254770   3.984   5.144   0.428 -2.4272 -2.7878  0.7673
11119TIP3   OH254771   1.169   3.816  16.361  0.4358  0.0482  0.1163
11119TIP3    H154772   1.166   3.748  16.428 -0.5943 -0.5871 -0.5344
11119TIP3    H254773   1.175   3.898  16.409 -0.8700 -0.3576  1.0210
11120TIP3   OH254774   2.765   5.341   0.847 -0.1644  0.1882  0.3096
11120TIP3    H154775   2.764   5.437   0.853 -0.2008  0.1446  1.1525
11120TIP3    H254776   2.856   5.317   0.865 -0.3972  0.0094  1.3158
11121TIP3   OH254777   6.515   4.881   2.774  0.5633  0.0693 -0.3112
11121TIP3    H154778   6.519   4.790   2.744 -0.4720  0.2506 -1.0695
11121TIP3    H254779   6.590   4.923   2.731  3.0802 -1.0555  2.5912
11122TIP3   OH254780   3.265   3.882   4.439  0.4439 -0.4868 -0.1330
11122TIP3    H154781   3.205   3.808   4.451  0.6686 -0.4112  1.8408
11122TIP3    H254782   3.268   3.895   4.344 -2.2119 -0.8611 -0.3683
11123TIP3   OH254783   2.433   5.797   3.559 -0.5048 -0.0612 -0.0421
11123TIP3    H154784   2.434   5.783   3.465 -0.1176 -3.2107  0.3048
11123TIP3    H254785   2.423   5.709   3.596  0.9159  0.8653  2.8709
11124TIP3   OH254786   0.056   3.458   5.474 -0.2547  0.4610  0.3520
11124TIP3    H154787   0.081   3.550   5.478 -0.3472  0.4448  2.5176
11124TIP3    H254788   0.138   3.410   5.491 -0.6299  0.2634  1.8125
11125TIP3   OH254789   3.063   4.187   4.277  0.3712 -0.2043 -0.3424
11125TIP3    H154790   3.044   4.204   4.369 -1.7102 -0.5279 -0.6779
11125TIP3    H254791   3.144   4.136   4.279  0.7874  0.4699  1.2452
11126TIP3   OH254792   1.674   1.520   5.223  0.3660  0.1424 -0.2871
11126TIP3    H154793   1.736   1.457   5.258  1.3926  1.6135  0.6751
11126TIP3    H254794   1.632   1.558   5.300 -1.1584 -0.2460 -0.8924
11127TIP3   OH254795   4.868   1.085  11.128  0.2629 -0.9897  0.3530
11127TIP3    H154796   4.831   1.157  11.179 -1.0800 -1.3003 -0.1627
11127TIP3    H254797   4.937   1.126  11.076 -2.5266  0.6638 -2.3553
11128TIP3   OH254798   6.099   6.076   5.670 -0.1760  0.2185 -0.7103
11128TIP3    H154799   6.143   5.991   5.669  0.9590  0.7777 -0.7399
11128TIP3    H254800   6.146   6.126   5.737 -2.4142  0.0507  1.1126
11129TIP3   OH254801   3.956   4.218   4.508 -0.5174 -0.4527 -0.1594
11129TIP3    H154802   3.912   4.133   4.510 -1.1054 -0.1594  1.1496
11129TIP3    H254803   3.902   4.274   4.565  0.2288  0.6065 -0.4546
11130TIP3   OH254804   4.654   2.237  12.086  0.8889 -0.4036  0.4516
11130TIP3    H154805   4.708   2.234  12.165  0.2009  2.6974  1.1826
11130TIP3    H254806   4.567   2.262  12.117  0.3442 -0.1348 -1.1935
11131TIP3   OH254807   2.501   2.276   3.942  0.1432  0.2735  0.3343
11131TIP3    H154808   2.592   2.263   3.970  0.3934 -0.3610 -0.7337
11131TIP3    H254809   2.483   2.367   3.966  1.0437  0.3987  0.6054
11132TIP3   OH254810   0.476   3.158  15.718 -0.0275 -0.3426  0.0363
11132TIP3    H154811   0.411   3.228  15.708 -0.8602 -1.0776  0.1394
11132TIP3    H254812   0.453   3.095  15.651 -0.0824 -1.1078  0.7577
11133TIP3   OH254813   0.118   5.514  11.800 -0.6875 -0.0922 -0.9448
11133TIP3    H154814   0.197   5.494  11.850 -0.5746 -0.2586 -1.1872
11133TIP3    H254815   0.065   5.568  11.859 -1.5478 -2.0419  0.1841
11134TIP3   OH254816   2.154   4.074   6.055 -0.7317 -0.3528  0.2354
11134TIP3    H154817   2.090   4.094   6.124 -0.9438 -2.3263  0.6681
11134TIP3    H254818   2.226   4.031   6.101  0.0912  0.2157 -0.5017
11135TIP3   OH254819   3.750   6.468  12.690 -0.3429 -0.4717 -0.3137
11135TIP3    H154820   3.708   6.382  12.695  1.4241 -1.4268 -0.8176
11135TIP3    H254821   3.719   6.515  12.767 -2.2557 -1.1170 -0.6417
11136TIP3   OH254822   1.996   2.846  14.315  0.2598  0.4938  0.0909
11136TIP3    H154823   2.075   2.793  14.303 -0.8151 -0.7795 -1.7577
11136TIP3    H254824   1.925   2.791  14.282 -1.2914  1.9897  0.8123
11137TIP3   OH254825   3.613   6.211   6.799  0.2000 -0.5065  0.9221
11137TIP3    H154826   3.613   6.147   6.728 -0.9662 -0.7767  1.1488
11137TIP3    H254827   3.597   6.160   6.878 -0.0181 -0.0301  1.1917
11138TIP3   OH254828   2.943   3.177   5.600  0.3432  0.2666 -0.0555
11138TIP3    H154829   2.983   3.202   5.683 -1.0087  0.4413  0.5698
11138TIP3    H254830   2.983   3.235   5.536  0.7068  0.7918  0.6291
11139TIP3   OH254831   3.500   5.380   2.398  0.0329  0.0622  0.2450
11139TIP3    H154832   3.593   5.394   2.379 -0.2480  0.1156 -1.2545
11139TIP3    H254833   3.481   5.295   2.358 -0.3812 -0.3275  1.2599
11140TIP3   OH254834   0.685   6.078  14.627 -0.5423 -0.4747 -0.3468
11140TIP3    H154835   0.705   5.985  14.620  1.0618 -0.1734 -0.2389
11140TIP3    H254836   0.590   6.084  14.612 -0.8963 -2.2390  0.8602
11141TIP3   OH254837   6.010   1.520   5.889 -0.1097  0.4812 -0.0392
11141TIP3    H154838   6.050   1.571   5.959 -1.9118  1.5546  0.2827
11141TIP3    H254839   6.005   1.431   5.924  0.5564  0.6524  0.5088
11142TIP3   OH254840   5.299   4.967   3.695  0.0523 -0.1871 -0.6756
11142TIP3    H154841   5.285   4.877   3.724  2.2035  0.2268  2.1458
11142TIP3    H254842   5.215   5.010   3.707  0.1860 -0.6867  3.0656
11143TIP3   OH254843   3.332   1.398   3.721  0.7228  0.5198 -0.0682
11143TIP3    H154844   3.320   1.310   3.686 -0.7168 -0.3026  2.2939
11143TIP3    H254845   3.409   1.391   3.778  0.5660  0.7553  0.1773
11144TIP3   OH254846   5.294   0.796   3.062  0.3118 -0.0508  0.4137
11144TIP3    H154847   5.365   0.749   3.106  0.7709 -1.6967 -1.9359
11144TIP3    H254848   5.221   0.791   3.124  0.9931 -2.0837  1.1431
11145TIP3   OH254849   6.652   4.159  15.086  0.2358  0.0159 -0.9571
11145TIP3    H154850   6.705   4.226  15.042  1.1850 -0.2953 -0.3258
11145TIP3    H254851   6.713   4.088  15.105 -0.4305 -0.4093 -0.3091
11146TIP3   OH254852   2.334   2.173   5.373  0.2166  0.1421 -0.4039
11146TIP3    H154853   2.333   2.200   5.282 -0.5565 -0.2944 -0.5357
11146TIP3    H254854   2.419   2.202   5.406  0.2785  0.7934 -1.1070
11147TIP3   OH254855   0.008   6.260  13.138 -0.1542  0.1322  0.5497
11147TIP3    H154856  -0.036   6.186  13.178 -1.7515  0.1634 -1.0099
11147TIP3    H254857   0.026   6.320  13.210 -0.5100 -0.9516  1.5618
11148TIP3   OH254858   6.098   2.739  16.960 -0.0142  0.1442  0.0048
11148TIP3    H154859   6.111   2.809  16.896  1.3315 -0.4279 -0.3760
11148TIP3    H254860   6.054   2.669  16.911  3.0246 -1.2189 -1.0218
11149TIP3   OH254861   0.737   1.189   5.610  0.8416 -0.1971 -0.0142
11149TIP3    H154862   0.729   1.280   5.638 -0.5665 -0.3998  0.2818
11149TIP3    H254863   0.647   1.156   5.607  1.2594 -1.3293 -0.9760
11150TIP3   OH254864   0.938   3.576  12.473  0.0523 -0.2327  0.5151
11150TIP3    H154865   0.853   3.619  12.464 -0.8221 -1.7334  1.1842
11150TIP3    H254866   0.999   3.648  12.491 -0.3531  1.3569 -3.3970
11151TIP3   OH254867   1.428   3.957   2.111  0.5531  0.2118  0.1748
11151TIP3    H154868   1.465   3.924   2.192  0.1756  0.0166  0.2707
11151TIP3    H254869   1.378   3.884   2.076  1.5948 -0.0702 -0.7957
11152TIP3   OH254870   2.506   2.104  13.166 -0.0267  0.6524 -0.3285
11152TIP3    H154871   2.449   2.083  13.240  0.1432  0.5257 -0.2302
11152TIP3    H254872   2.472   2.186  13.131 -1.4796 -0.3954 -1.5011
11153TIP3   OH254873   6.685   4.752   4.240 -0.1267 -0.1298 -0.4268
11153TIP3    H154874   6.612   4.706   4.282 -0.5317 -0.1833 -1.1696
11153TIP3    H254875   6.683   4.721   4.150  0.9379 -0.2696 -0.4149
11154TIP3   OH254876   0.708   3.643   1.544 -0.1064  0.9201 -0.3686
11154TIP3    H154877   0.636   3.682   1.495  1.6567  2.7828 -1.6193
11154TIP3    H254878   0.756   3.718   1.580  1.5137 -0.2317 -0.0167
11155TIP3   OH254879   1.976   4.682  13.795 -0.4616  0.3402  0.5306
11155TIP3    H154880   1.906   4.701  13.859 -0.7334  1.1220  0.0176
11155TIP3    H254881   2.057   4.696  13.844 -0.6670  1.4187  0.5963
11156TIP3   OH254882   5.762   2.228  15.676  0.8907 -0.1243 -0.0838
11156TIP3    H154883   5.674   2.193  15.684  0.7369 -0.0801 -1.2825
11156TIP3    H254884   5.775   2.282  15.753 -0.7246  1.1357 -0.6430
11157TIP3   OH254885   5.304   6.691   4.448  0.6785 -0.8244  0.0513
11157TIP3    H154886   5.266   6.712   4.534 -0.6552  0.3341 -0.7862
11157TIP3    H254887   5.321   6.597   4.453 -0.8748 -1.1037  1.0363
11158TIP3   OH254888   4.752   3.397   3.155 -0.4930 -0.3105 -0.2774
11158TIP3    H154889   4.766   3.456   3.229 -1.3438  1.5487 -1.5341
11158TIP3    H254890   4.831   3.342   3.153  0.2433  0.6307  1.0423
11159TIP3   OH254891   1.658   5.938  13.615  0.0624 -0.2197  0.0122
11159TIP3    H154892   1.669   5.847  13.589 -0.3728 -0.6334  1.2063
11159TIP3    H254893   1.577   5.966  13.571  1.3579  0.3423 -2.2005
11160TIP3   OH254894   0.279   4.115  15.297 -0.1291 -0.1895 -0.2914
11160TIP3    H154895   0.270   4.192  15.242  1.0591  0.1532 -0.0326
11160TIP3    H254896   0.354   4.068  15.261  1.9995  1.0805  2.1443
11161TIP3   OH254897   4.407   0.720  14.517  0.0014 -0.2575  0.0000
11161TIP3    H154898   4.462   0.660  14.567 -1.2063 -0.6942  0.8616
11161TIP3    H254899   4.418   0.804  14.560 -2.7873 -1.0602  2.6222
11162TIP3   OH254900   0.965   6.664  11.310 -0.2650 -0.5530 -0.0597
11162TIP3    H154901   0.976   6.569  11.310 -0.1521 -0.5859 -2.3204
11162TIP3    H254902   1.047   6.698  11.274 -0.3269  0.4117  0.6567
11163TIP3   OH254903   6.494   3.671   1.818  0.1522  0.0819 -0.1721
11163TIP3    H154904   6.409   3.638   1.845  0.0866  0.0864 -0.3661
11163TIP3    H254905   6.480   3.765   1.805  0.2961  0.1570  0.2177
11164TIP3   OH254906   4.250   0.495  15.386 -0.2731  0.0844  0.3622
11164TIP3    H154907   4.315   0.545  15.436 -2.7934  4.2672 -0.0055
11164TIP3    H254908   4.289   0.485  15.299  1.1115 -0.3861  1.0139
11165TIP3   OH254909   3.096   0.360  11.046  0.6522 -0.0346  0.1460
11165TIP3    H154910   3.122   0.364  11.138 -1.0680 -1.3849  0.7353
11165TIP3    H254911   3.166   0.310  11.003  0.6311 -0.8743  1.0606
11166TIP3   OH254912   4.445   6.604  11.986 -0.8094 -0.0208 -0.2723
11166TIP3    H154913   4.420   6.651  12.066  1.0191  2.6419 -1.1202
11166TIP3    H254914   4.528   6.644  11.960 -1.5876 -0.3897 -3.8356
11167TIP3   OH254915   5.445   6.127   6.011  0.1694 -0.2433  0.1229
11167TIP3    H154916   5.455   6.044   5.965 -0.3953 -0.5945  0.6196
11167TIP3    H254917   5.469   6.107   6.102  2.9109  0.7987 -0.2565
11168TIP3   OH254918   1.489   3.891  12.253  0.4784  0.3369 -0.3645
11168TIP3    H154919   1.545   3.852  12.186 -0.3830  1.0318 -1.5250
11168TIP3    H254920   1.506   3.839  12.331  1.8123 -0.2472 -1.0044
11169TIP3   OH254921   2.906   0.625  13.757 -0.2052  1.1506 -0.9345
11169TIP3    H154922   2.867   0.684  13.693 -0.6381  0.9643 -0.8476
11169TIP3    H254923   2.835   0.605  13.818  0.4053  1.9326  0.0500
11170TIP3   OH254924   2.569   5.341  13.558  0.9488 -0.0327 -0.4733
11170TIP3    H154925   2.598   5.432  13.564 -0.0753  0.3994 -1.6936
11170TIP3    H254926   2.476   5.347  13.535  0.9085 -1.3966 -0.7196
11171TIP3   OH254927   1.698   6.738   0.596 -0.0787 -0.0216 -0.3188
11171TIP3    H154928   1.635   6.762   0.664  0.6490 -0.0720  0.3780
11171TIP3    H254929   1.645   6.732   0.516 -0.8758  0.4064  0.1643
11172TIP3   OH254930   1.571   2.459   2.856  0.3006 -0.1226 -0.1496
11172TIP3    H154931   1.590   2.370   2.826  2.6448  0.3163 -0.1622
11172TIP3    H254932   1.476   2.467   2.850  0.2628 -1.6342 -3.0058
11173TIP3   OH254933   1.317   5.719   0.463 -0.0262  0.0473 -0.3682
11173TIP3    H154934   1.301   5.788   0.399  1.5971 -0.5981 -1.5427
11173TIP3    H254935   1.359   5.649   0.412  1.3584 -0.4694  1.3995
11174TIP3   OH254936   3.486   5.119  15.768  0.4678 -0.4688 -0.3719
11174TIP3    H154937   3.521   5.207  15.755  1.9249 -0.9988 -0.2347
11174TIP3    H254938   3.420   5.110  15.698 -0.0357  0.8652 -0.1115
11175TIP3   OH254939   6.588   2.980  16.937 -0.1657 -0.2034 -0.4886
11175TIP3    H154940   6.666   2.950  16.984  0.0211  0.9600 -0.0232
11175TIP3    H254941   6.602   2.952  16.846  0.9116  0.2152 -0.4579
11176TIP3   OH254942   5.150   1.211   5.222  0.5040  0.2164 -0.5842
11176TIP3    H154943   5.116   1.242   5.138  0.6017 -0.3038 -0.8204
11176TIP3    H254944   5.096   1.255   5.287 -1.3477 -1.3242 -0.9513
11177TIP3   OH254945   0.301   4.073   4.214  0.0466 -0.1394 -0.0173
11177TIP3    H154946   0.353   4.077   4.134  0.4102  0.0507  0.2262
11177TIP3    H254947   0.261   4.160   4.222  0.8057  0.1688  0.5306
11178TIP3   OH254948   0.839   4.015  12.203  0.6257 -0.0726 -0.0243
11178TIP3    H154949   0.916   3.971  12.168 -0.2285 -2.5257  0.9529
11178TIP3    H254950   0.783   4.029  12.127  0.4319 -1.8144 -0.2513
11179TIP3   OH254951   0.955   6.199  16.419 -0.2179  0.7045 -0.2520
11179TIP3    H154952   0.921   6.166  16.502  0.8035  2.7726  1.0987
11179TIP3    H254953   0.881   6.244  16.378 -0.3295  1.0318  0.3075
11180TIP3   OH254954   0.682   0.923   4.703  0.3120  0.5619  0.1791
11180TIP3    H154955   0.757   0.971   4.668 -0.5686  1.2102 -0.8995
11180TIP3    H254956   0.608   0.982   4.691 -0.8617 -1.1277 -1.3787
11181TIP3   OH254957   0.914   3.398  17.241  1.1493 -0.2433 -0.1865
11181TIP3    H154958   0.823   3.416  17.214  1.2571  0.4805 -0.0822
11181TIP3    H254959   0.915   3.415  17.335  1.3351 -0.5085 -0.1392
11182TIP3   OH254960   4.403   1.827  15.979  0.0571 -0.3184 -0.6064
11182TIP3    H154961   4.400   1.905  15.923  0.3635  0.3963  0.3486
11182TIP3    H254962   4.380   1.859  16.067  1.7616 -0.9932  0.1265
11183TIP3   OH254963   6.649   0.518   1.708  0.8213  0.6540 -0.2614
11183TIP3    H154964   6.744   0.521   1.719  0.8926  0.7984 -0.8873
11183TIP3    H254965   6.636   0.485   1.619  0.2907  1.0034 -0.3198
11184TIP3   OH254966   1.438   5.416   4.872 -0.2380  0.0712 -0.0378
11184TIP3    H154967   1.501   5.368   4.819  1.1322 -0.6523  2.1227
11184TIP3    H254968   1.453   5.385   4.961 -1.9512  1.7424  0.9034
11185TIP3   OH254969   5.644   2.703  15.278 -0.0105 -0.0420 -0.2086
11185TIP3    H154970   5.678   2.698  15.367 -1.7468 -1.7165  0.4175
11185TIP3    H254971   5.558   2.744  15.287 -1.2274 -2.3065 -0.7222
11186TIP3   OH254972   1.285   2.458   5.103 -0.1089 -0.1591  0.9233
11186TIP3    H154973   1.375   2.491   5.110  0.6988 -2.1836  0.8201
11186TIP3    H254974   1.281   2.386   5.165 -1.6038 -0.2380  0.7590
11187TIP3   OH254975   0.106   6.211  17.191 -0.7050  0.1351  0.3780
11187TIP3    H154976   0.143   6.296  17.216 -0.1411  0.1984 -0.6058
11187TIP3    H254977   0.157   6.185  17.114  0.5818 -2.1114  1.8826
11188TIP3   OH254978   5.888   6.777   5.100  0.0542  0.1721 -0.0366
11188TIP3    H154979   5.955   6.714   5.073  0.5702 -0.0305  1.5671
11188TIP3    H254980   5.810   6.724   5.115 -0.3030  0.3175 -1.2714
11189TIP3   OH254981   5.894   0.833   5.378  0.0295 -0.2550  0.2599
11189TIP3    H154982   5.827   0.835   5.310 -1.3229  0.7243  1.5394
11189TIP3    H254983   5.966   0.886   5.343 -0.4476 -0.1385 -0.5631
11190TIP3   OH254984   6.403   4.080   5.857  0.5331 -0.0049  0.3707
11190TIP3    H154985   6.367   3.998   5.890  2.1114 -0.0027  2.3042
11190TIP3    H254986   6.334   4.145   5.874  0.6521 -0.3184  2.2399
11191TIP3   OH254987   3.530   0.126  16.769 -0.9897 -0.3207 -0.0567
11191TIP3    H154988   3.516   0.119  16.675  0.1593 -1.1383 -0.1758
11191TIP3    H254989   3.615   0.086  16.785 -2.7490 -3.7475  1.8275
11192TIP3   OH254990   1.693   0.425   6.593  0.3376  0.1183  0.3666
11192TIP3    H154991   1.771   0.390   6.637  0.4683  2.1028  1.9040
11192TIP3    H254992   1.726   0.500   6.543 -0.2226 -0.5790 -1.0752
11193TIP3   OH254993   1.517   1.032  12.250  0.1020  0.4065  0.3679
11193TIP3    H154994   1.580   0.960  12.250 -0.3228  0.0326 -0.1212
11193TIP3    H254995   1.482   1.033  12.162 -0.5789  0.6102  0.6358
11194TIP3   OH254996   1.592   5.635  15.526 -0.0707 -0.0712 -0.1898
11194TIP3    H154997   1.672   5.663  15.480 -0.5494  1.7969  0.0224
11194TIP3    H254998   1.536   5.599  15.457  0.4231 -0.1272 -0.5651
11195TIP3   OH254999   2.401   3.390  16.734 -0.6804 -0.5790  0.1103
11195TIP3    H155000   2.384   3.385  16.828  2.5846 -0.8645  0.8062
11195TIP3    H255001   2.349   3.464  16.704 -1.3484 -0.1135  2.2811
11196TIP3   OH255002   3.291   1.441   5.094  0.1444 -0.2371 -0.2000
11196TIP3    H155003   3.297   1.346   5.092  1.7213 -0.1757  0.3623
11196TIP3    H255004   3.260   1.462   5.182 -1.8826 -0.2472 -0.8411
11197TIP3   OH255005   5.682   0.600  16.835 -0.4771 -0.2003 -0.2358
11197TIP3    H155006   5.722   0.516  16.857 -1.1238 -1.1543 -2.4185
11197TIP3    H255007   5.740   0.638  16.770 -1.8583 -0.5321 -1.7209
11198TIP3   OH255008   6.771   5.829   2.499  0.2122  0.2198 -0.4184
11198TIP3    H155009   6.797   5.827   2.407 -0.3513  2.1452 -0.6609
11198TIP3    H255010   6.814   5.752   2.537  2.5464  0.7672 -1.7493
11199TIP3   OH255011   4.505   2.991   6.231  0.6400  0.1659  0.4075
11199TIP3    H155012   4.564   2.954   6.297  0.4550 -0.4294  0.2460
11199TIP3    H255013   4.449   2.918   6.205 -1.5736  1.1509  2.0504
11200TIP3   OH255014   0.186   3.468  15.801 -0.2289  0.1795 -0.2730
11200TIP3    H155015   0.119   3.536  15.808  0.8757  1.3562 -0.7816
11200TIP3    H255016   0.230   3.469  15.886 -0.9510 -0.7264  0.1299
11201TIP3   OH255017   6.313   3.637   0.223 -0.0711  0.3310 -0.0638
11201TIP3    H155018   6.261   3.652   0.302 -1.0001 -0.0918 -0.5796
11201TIP3    H255019   6.398   3.678   0.242  0.2989 -1.1329  1.7741
11202TIP3   OH255020   4.357   5.196  14.673 -0.0793  0.3529 -0.3573
11202TIP3    H155021   4.317   5.132  14.614 -1.5351  0.9242 -0.0201
11202TIP3    H255022   4.422   5.145  14.721  0.1463 -0.4320 -1.4499
11203TIP3   OH255023   6.497   1.462   5.736  0.1346 -0.1794  0.0009
11203TIP3    H155024   6.409   1.439   5.767 -0.3873  1.1023 -0.4760
11203TIP3    H255025   6.544   1.378   5.733 -0.0446 -0.5375  3.3580
11204TIP3   OH255026   5.441   1.833   1.428  0.0127 -0.0894  0.2792
11204TIP3    H155027   5.444   1.738   1.437  2.1752 -0.0579  0.4483
11204TIP3    H255028   5.439   1.849   1.334 -0.5279 -0.2918  0.2530
11205TIP3   OH255029   4.223   0.356   1.903  0.0905  0.2546  0.2375
11205TIP3    H155030   4.151   0.339   1.963  1.5845 -1.9631  1.5285
11205TIP3    H255031   4.265   0.271   1.890 -0.0768  0.5792 -3.9850
11206TIP3   OH255032   3.284   1.385   2.653 -0.0862  0.2247  0.3244
11206TIP3    H155033   3.271   1.312   2.714  2.0517 -1.8726 -1.4864
11206TIP3    H255034   3.273   1.346   2.566  3.7637  1.2288 -0.8538
11207TIP3   OH255035   1.595   5.896  13.171  0.2626 -0.0447 -0.3863
11207TIP3    H155036   1.526   5.953  13.134  0.0882 -0.8936 -1.4207
11207TIP3    H255037   1.614   5.834  13.101  0.2271 -1.4624  0.8245
11208TIP3   OH255038   1.184   5.798   4.195 -0.2672  0.2353 -0.5711
11208TIP3    H155039   1.229   5.779   4.277  0.3013 -0.0843 -0.9520
11208TIP3    H255040   1.165   5.892   4.199 -0.2251  0.2249 -0.0869
11209TIP3   OH255041   1.212   6.419   5.139  0.0723 -0.0160  0.1181
11209TIP3    H155042   1.243   6.510   5.136 -0.5647  0.2097  0.2884
11209TIP3    H255043   1.288   6.369   5.170  1.6204 -0.1010 -3.3706
11210TIP3   OH255044   5.451   0.369   0.765 -0.1816  0.3861  0.0336
11210TIP3    H155045   5.362   0.380   0.731 -0.5072 -0.6569  0.5199
11210TIP3    H255046   5.449   0.285   0.810  1.4528 -0.3958 -1.2518
11211TIP3   OH255047   2.615   2.936  12.048  0.2875 -0.2019 -0.0410
11211TIP3    H155048   2.576   3.023  12.050  0.1472 -0.2582 -0.4303
11211TIP3    H255049   2.552   2.880  12.094  0.7118  0.0349  0.8568
11212TIP3   OH255050   2.087   6.716  14.303 -0.2688  0.4725 -0.0715
11212TIP3    H155051   2.030   6.792  14.295 -3.8688 -1.9430  0.0144
11212TIP3    H255052   2.098   6.685  14.213 -0.2782  0.1942  0.0209
11213TIP3   OH255053   4.452   0.914   0.171 -0.1267 -0.3837 -0.1876
11213TIP3    H155054   4.440   0.944   0.261  1.4812  0.2888 -0.1653
11213TIP3    H255055   4.406   0.831   0.167  0.5032 -0.8552  1.5193
11214TIP3   OH255056   0.709   1.661  11.210 -0.8234 -0.8760 -0.3413
11214TIP3    H155057   0.730   1.720  11.138 -0.0952 -0.8135 -0.0788
11214TIP3    H255058   0.685   1.719  11.282 -0.9893 -0.9251 -0.3565
11215TIP3   OH255059   1.503   3.487   2.888  0.1511  0.1570  0.8206
11215TIP3    H155060   1.505   3.400   2.927 -0.3946  0.5541  1.7497
11215TIP3    H255061   1.553   3.478   2.807  0.2161 -0.9840  0.9781
11216TIP3   OH255062   6.555   0.142  12.560  0.3963  0.3079 -0.2466
11216TIP3    H155063   6.633   0.092  12.534 -0.2914 -0.4354 -0.9176
11216TIP3    H255064   6.521   0.096  12.636 -0.5950 -0.6543 -1.2390
11217TIP3   OH255065   5.711   4.316  14.741  0.5349 -0.2672  0.2557
11217TIP3    H155066   5.752   4.230  14.731 -0.9143 -0.9424 -0.2361
11217TIP3    H255067   5.634   4.312  14.684  0.0521  1.1084  0.7748
11218TIP3   OH255068   3.391   1.451   0.312  0.0752  0.0274  0.0716
11218TIP3    H155069   3.323   1.513   0.339 -0.5777 -0.0083 -1.3967
11218TIP3    H255070   3.473   1.498   0.327 -0.3673  0.8786 -0.1129
11219TIP3   OH255071   3.777   0.631   4.858  0.1927  0.1867 -0.2620
11219TIP3    H155072   3.741   0.677   4.783 -0.5803  0.9158  0.5237
11219TIP3    H255073   3.764   0.692   4.931 -0.8405 -1.2472  0.8054
11220TIP3   OH255074   1.943   1.676   5.362  0.2925 -0.3057 -0.0244
11220TIP3    H155075   1.926   1.583   5.351 -2.0825  0.1025 -0.2139
11220TIP3    H255076   2.012   1.695   5.297 -0.7422 -1.5171 -1.5472
11221TIP3   OH255077   2.673   3.844   5.631 -0.3749 -0.3918 -0.3872
11221TIP3    H155078   2.654   3.919   5.688 -2.1752 -2.0933  1.4139
11221TIP3    H255079   2.608   3.851   5.560  0.8586  0.8566 -1.4673
11222TIP3   OH255080   1.891   0.355   3.247 -0.0785 -0.3204 -0.1106
11222TIP3    H155081   1.919   0.274   3.290 -1.6412 -1.5432 -1.2835
11222TIP3    H255082   1.838   0.400   3.313 -0.5903 -1.0808  0.0058
11223TIP3   OH255083   2.028   2.940  11.851 -0.1162  0.3161  0.7083
11223TIP3    H155084   2.043   3.034  11.865 -0.6790  0.2126  2.1690
11223TIP3    H255085   1.947   2.936  11.800  1.5475  0.6841 -2.1378
11224TIP3   OH255086   6.130   0.030   1.004 -0.4107  0.4864  0.5070
11224TIP3    H155087   6.040   0.058   0.986 -1.1582 -1.4627  0.8536
11224TIP3    H255088   6.121  -0.062   1.031  1.5748  0.6113  1.8147
11225TIP3   OH255089   5.033   1.694   2.655 -0.0692 -0.2112  0.1090
11225TIP3    H155090   5.013   1.722   2.745 -0.6224 -0.0712 -0.0504
11225TIP3    H255091   4.947   1.678   2.616  0.1616 -0.0428 -0.4736
11226TIP3   OH255092   5.183   6.706   2.629 -0.1813 -0.1794 -0.5104
11226TIP3    H155093   5.186   6.612   2.616  2.4763 -0.0272 -1.5829
11226TIP3    H255094   5.233   6.721   2.710 -0.9010  0.3131 -0.1404
11227TIP3   OH255095   0.341   5.068   4.530 -0.0356 -0.0726 -0.0284
11227TIP3    H155096   0.270   5.057   4.594  0.2393 -1.0964  0.1154
11227TIP3    H255097   0.420   5.039   4.577 -0.0689 -2.5276 -1.3364
11228TIP3   OH255098   4.802   6.083   3.267  0.2743 -0.3939  0.0469
11228TIP3    H155099   4.789   6.008   3.325  0.4041  0.3727  1.0892
11228TIP3    H255100   4.882   6.063   3.219 -0.4809 -1.5959 -0.7924
11229TIP3   OH255101   3.317   2.724   0.018 -0.0626 -0.2352  0.2982
11229TIP3    H155102   3.334   2.766   0.103  0.4927 -1.9326  1.0617
11229TIP3    H255103   3.303   2.797  -0.042  2.1812  1.1055  1.2809
11230TIP3   OH255104   0.685   6.648  17.078  0.2174 -0.2073 -0.5732
11230TIP3    H155105   0.718   6.681  16.995 -2.3050  2.3961 -0.6955
11230TIP3    H255106   0.736   6.695  17.144  0.5535 -0.4287 -0.6750
11231TIP3   OH255107   5.603   1.755   2.513 -0.0107 -0.0569 -0.2012
11231TIP3    H155108   5.630   1.793   2.597  0.9706 -1.4426  0.1498
11231TIP3    H255109   5.510   1.736   2.524 -0.8324  3.0769 -0.7552
11232TIP3   OH255110   3.922   0.660   2.208 -0.1084 -0.4573 -0.0706
11232TIP3    H155111   4.006   0.691   2.242 -0.3918  0.6924 -0.3773
11232TIP3    H255112   3.860   0.729   2.230 -0.8207 -0.9268 -0.5580
11233TIP3   OH255113   4.484   0.412  16.095  0.7253  0.4100  0.0714
11233TIP3    H155114   4.472   0.364  16.177 -1.5350 -0.2404 -0.5718
11233TIP3    H255115   4.442   0.357  16.029  2.0074  1.1866 -1.4573
11234TIP3   OH255116   0.376   0.766  11.312 -0.0022 -0.3359 -0.0335
11234TIP3    H155117   0.289   0.789  11.281 -0.3417  0.8732  1.6878
11234TIP3    H255118   0.424   0.849  11.312  0.1373 -0.3752  2.0539
11235TIP3   OH255119   5.025   4.455  16.638  0.2578  0.1694  0.2280
11235TIP3    H155120   5.037   4.363  16.659  1.1969 -0.0394 -1.1446
11235TIP3    H255121   5.113   4.490  16.629 -0.0924  1.1236  0.3576
11236TIP3   OH255122   6.146   4.201   4.583  0.4634  0.1015  0.2292
11236TIP3    H155123   6.111   4.264   4.647 -0.4015 -1.5953  1.5082
11236TIP3    H255124   6.241   4.203   4.598  0.5822  1.8703 -0.5236
11237TIP3   OH255125   3.040   0.951   4.050 -0.7509  0.1664 -0.4030
11237TIP3    H155126   3.119   0.990   4.012 -0.2283 -0.7108 -0.2676
11237TIP3    H255127   3.065   0.929   4.140 -1.4219  0.6352 -0.0949
11238TIP3   OH255128   0.840   3.756  15.101 -1.1167 -0.1491 -0.4101
11238TIP3    H155129   0.913   3.779  15.158 -1.5665  1.5200 -0.4491
11238TIP3    H255130   0.870   3.679  15.052 -0.1310 -0.6533  0.9298
11239TIP3   OH255131   2.192   6.545  15.876 -0.8470 -0.2135 -0.0333
11239TIP3    H155132   2.234   6.470  15.834  0.8804 -0.6692  2.2837
11239TIP3    H255133   2.121   6.507  15.927  0.3483 -0.4466  1.5562
11240TIP3   OH255134   0.810   3.475   1.179 -0.4244 -0.2957  0.2141
11240TIP3    H155135   0.796   3.431   1.095  0.2523  1.6215 -0.9608
11240TIP3    H255136   0.724   3.512   1.201 -0.7287 -1.2358  0.6563
11241TIP3   OH255137   3.491   1.845   0.903  0.0235 -0.2575  0.2961
11241TIP3    H155138   3.542   1.855   0.983 -0.6177 -0.7698  0.7779
11241TIP3    H255139   3.554   1.817   0.837  0.8413  1.5687  0.2419
11242TIP3   OH255140   0.304   3.958   0.256 -0.2191  0.0088 -0.3461
11242TIP3    H155141   0.271   3.875   0.291  0.0545  0.0020 -0.1136
11242TIP3    H255142   0.396   3.941   0.235 -0.2388  0.1686 -0.5723
11243TIP3   OH255143   3.906   4.896  15.816  0.5084 -0.6207  0.5851
11243TIP3    H155144   3.814   4.877  15.836  0.2472 -0.8755 -0.7560
11243TIP3    H255145   3.903   4.971  15.757  1.1536 -0.7627  0.3662
11244TIP3   OH255146   0.861   2.439   1.567  0.5002  0.1829  0.0882
11244TIP3    H155147   0.888   2.347   1.567  0.5306  0.1516 -1.9115
11244TIP3    H255148   0.824   2.453   1.655  0.9977 -1.5669  0.6166
11245TIP3   OH255149   4.680   3.075  11.495 -0.7058 -0.3587  0.0873
11245TIP3    H155150   4.649   3.044  11.580  1.6910 -3.7605 -0.0708
11245TIP3    H255151   4.619   3.038  11.431 -0.4906 -0.8850  0.1774
11246TIP3   OH255152   6.040   4.698  16.363 -0.1540  0.3807  0.2469
11246TIP3    H155153   6.000   4.665  16.282  1.0417 -1.4984  0.3812
11246TIP3    H255154   6.083   4.622  16.401  1.0236  1.6934  1.6278
11247TIP3   OH255155   5.923   3.817   2.632 -0.2656  0.0600 -0.3234
11247TIP3    H155156   5.846   3.774   2.669  0.7443 -1.0752  0.5626
11247TIP3    H255157   5.994   3.794   2.692  0.8326  0.7966 -1.2942
11248TIP3   OH255158   4.397   2.604   3.114 -0.0075 -0.6580 -0.3018
11248TIP3    H155159   4.351   2.657   3.049  0.3951  0.5739  0.3773
11248TIP3    H255160   4.419   2.523   3.068 -1.0783 -0.4467 -1.2230
11249TIP3   OH255161   4.974   4.922  13.641 -0.4554  0.4207  0.8027
11249TIP3    H155162   5.035   4.849  13.655  0.0762  0.9963  1.5681
11249TIP3    H255163   4.895   4.897  13.688 -1.2465 -0.8175 -1.0751
11250TIP3   OH255164   5.482   0.219  10.644  0.3417  0.1474  0.2345
11250TIP3    H155165   5.485   0.168  10.725 -0.9473 -0.9121 -0.3313
11250TIP3    H255166   5.567   0.261  10.639  1.4976 -1.9820  0.7363
11251TIP3   OH255167   3.601   0.131  11.230  0.1576 -0.1230  0.2839
11251TIP3    H155168   3.508   0.156  11.223  0.3143  0.5391  0.4969
11251TIP3    H255169   3.610   0.058  11.169 -0.3922  0.1450 -0.1310
11252TIP3   OH255170   2.405   4.702   2.826  0.5556  0.0665  0.1716
11252TIP3    H155171   2.343   4.676   2.894 -1.4264  1.2125 -1.1012
11252TIP3    H255172   2.467   4.629   2.820 -0.7594 -1.1952  1.3979
11253TIP3   OH255173   3.909   3.988   4.712  0.6145  0.0408  0.1180
11253TIP3    H155174   3.892   3.908   4.763 -0.0310  0.2063  0.1620
11253TIP3    H255175   3.985   4.027   4.755  1.1998 -0.7665 -0.1560
11254TIP3   OH255176   1.320   1.539  14.571 -0.5389  0.0272 -0.0044
11254TIP3    H155177   1.346   1.524  14.662 -0.9198  1.7858  0.4330
11254TIP3    H255178   1.313   1.635  14.563  0.3810 -0.0211 -2.1417
11255TIP3   OH255179   5.397   2.025  17.031 -0.5310 -0.1043  0.0783
11255TIP3    H155180   5.308   2.046  17.060 -0.4687 -0.5770  0.6292
11255TIP3    H255181   5.385   1.975  16.950 -0.7150  1.0090 -0.6013
11256TIP3   OH255182   2.448   0.205   1.150  0.2671 -0.2098  0.2554
11256TIP3    H155183   2.459   0.185   1.058  0.5902  0.3577  0.1650
11256TIP3    H255184   2.416   0.295   1.151  4.1281  1.3477  0.7749
11257TIP3   OH255185   1.061   0.469   0.379 -0.6737 -0.2335  0.0199
11257TIP3    H155186   0.994   0.421   0.428  1.8129 -2.2900  1.6836
11257TIP3    H255187   1.077   0.548   0.431  0.3754 -1.3315  1.4857
11258TIP3   OH255188   3.433   5.049   3.514  0.1220  0.7692 -0.3020
11258TIP3    H155189   3.357   4.994   3.494  0.1054  0.9959 -0.8783
11258TIP3    H255190   3.447   5.037   3.608 -0.0865  0.0395 -0.3557
11259TIP3   OH255191   3.861   5.074  12.563  0.0471 -0.1708  0.3130
11259TIP3    H155192   3.836   5.018  12.490  1.0048 -0.3971  0.1464
11259TIP3    H255193   3.957   5.074  12.562  0.1793  3.3023 -1.0961
11260TIP3   OH255194   4.379   1.690   4.803 -0.3636 -0.8102 -0.5515
11260TIP3    H155195   4.423   1.615   4.764 -1.3841 -1.4979 -0.4204
11260TIP3    H255196   4.449   1.743   4.840  0.5744 -0.5857 -2.5134
11261TIP3   OH255197   1.780   0.852   1.332  0.0319  0.1940  0.2967
11261TIP3    H155198   1.811   0.789   1.266  2.0069  3.3731 -2.0979
11261TIP3    H255199   1.734   0.918   1.281  1.3118  2.6045  2.0815
11262TIP3   OH255200   6.022   6.568  12.988 -0.1649  0.0773  0.7806
11262TIP3    H155201   6.046   6.505  13.056 -2.1640 -1.3051  0.3066
11262TIP3    H255202   5.963   6.629  13.033 -0.9724 -0.4599  0.4846
11263TIP3   OH255203   1.241   6.494  12.693 -0.3366 -0.2165 -0.3395
11263TIP3    H155204   1.198   6.413  12.664 -0.2028  0.4742 -2.7220
11263TIP3    H255205   1.210   6.560  12.631  2.0929  0.8753 -0.4931
11264TIP3   OH255206   3.510   3.460  14.019 -0.2070  0.5505  0.0523
11264TIP3    H155207   3.530   3.415  14.101 -2.5943  0.2675  0.5440
11264TIP3    H255208   3.415   3.460  14.014 -0.1507  1.0108 -2.4881
11265TIP3   OH255209   4.498   4.452   0.382 -0.1055  0.4200  0.2139
11265TIP3    H155210   4.521   4.385   0.447  3.7395  2.5847  1.3965
11265TIP3    H255211   4.440   4.511   0.429 -1.0347 -0.4293  0.1572
11266TIP3   OH255212   4.952   4.566   2.174 -0.4368 -0.3857 -0.6161
11266TIP3    H155213   5.039   4.550   2.210  0.0899 -0.3473 -1.8067
11266TIP3    H255214   4.932   4.487   2.125 -0.5759  0.0454 -1.2683
11267TIP3   OH255215   1.665   4.740   0.795  0.6127 -0.3958 -0.0534
11267TIP3    H155216   1.741   4.711   0.745  1.4234 -1.2164  1.5700
11267TIP3    H255217   1.640   4.823   0.754  0.4947 -1.5530 -2.5168
11268TIP3   OH255218   2.089   2.214   3.687 -0.0860 -0.2148  0.0387
11268TIP3    H155219   2.021   2.151   3.662 -2.1639  0.9322  2.3180
11268TIP3    H255220   2.040   2.291   3.717  2.2416  0.8243  1.4353
11269TIP3   OH255221   4.743   2.599  16.696 -0.1189 -0.4546  0.1469
11269TIP3    H155222   4.661   2.552  16.685 -0.9658  0.8176  0.7822
11269TIP3    H255223   4.767   2.585  16.787 -0.3404  0.2709  0.3217
11270TIP3   OH255224   4.607   6.775  13.968  0.2051  0.2576  0.0285
11270TIP3    H155225   4.678   6.731  14.016  0.7702  0.1838 -0.8443
11270TIP3    H255226   4.629   6.868  13.974 -0.0445  0.2964  0.3962
11271TIP3   OH255227   4.087   4.089   1.716  0.7855 -0.1569 -0.0894
11271TIP3    H155228   4.146   4.164   1.712  0.1131  0.3151 -1.8212
11271TIP3    H255229   4.061   4.073   1.626 -1.2948 -0.7289  0.5422
11272TIP3   OH255230   4.871   2.917   1.948  0.6614  0.3553 -0.3324
11272TIP3    H155231   4.823   2.895   1.868  0.9298 -1.0970 -0.1190
11272TIP3    H255232   4.958   2.881   1.935  0.5793 -0.2982  0.7778
11273TIP3   OH255233   6.273   3.529   0.837 -0.4322  0.2603  0.3347
11273TIP3    H155234   6.301   3.482   0.758  0.6305  1.3552  0.0337
11273TIP3    H255235   6.210   3.593   0.806  0.1829  0.8688  0.3149
11274TIP3   OH255236   2.928   2.740  12.690 -0.3799 -0.4723 -0.8493
11274TIP3    H155237   2.908   2.727  12.597 -1.2178 -1.4244 -0.5537
11274TIP3    H255238   2.983   2.665  12.713  0.1471 -0.0370 -0.6525
11275TIP3   OH255239   5.175   4.720  13.713  0.2890  0.6756 -0.0641
11275TIP3    H155240   5.251   4.675  13.675  1.8753  1.0518  2.4312
11275TIP3    H255241   5.114   4.649  13.734 -0.1450  0.3705 -2.1066
11276TIP3   OH255242   0.872   0.608   4.086  0.1414 -0.1994 -0.4106
11276TIP3    H155243   0.776   0.603   4.086  0.1931 -2.9825 -1.0253
11276TIP3    H255244   0.899   0.542   4.022  2.4944 -0.7248  1.0166
11277TIP3   OH255245   3.993   3.626   4.652 -0.0806 -0.0345 -0.0628
11277TIP3    H155246   4.056   3.672   4.707 -0.8604 -0.5404  1.3174
11277TIP3    H255247   3.970   3.548   4.703 -1.4106 -0.1243 -0.7624
11278TIP3   OH255248   0.581   1.577   0.523 -0.0231  0.3592 -0.4622
11278TIP3    H155249   0.527   1.508   0.561  1.0209  0.7272  1.8967
11278TIP3    H255250   0.519   1.636   0.481 -1.0550 -1.2085 -1.2330
11279TIP3   OH255251   2.769   1.098   3.286  0.2275  0.3905  0.1096
11279TIP3    H155252   2.708   1.150   3.234  1.1750  1.1188 -0.2992
11279TIP3    H255253   2.819   1.163   3.336 -0.4893 -0.2715  1.7720
11280TIP3   OH255254   1.126   3.850   1.655 -0.0732  0.7809 -0.2744
11280TIP3    H155255   1.139   3.757   1.635 -0.4134  0.9277 -1.1887
11280TIP3    H255256   1.191   3.869   1.723 -0.7271 -0.3932  0.7321
11281TIP3   OH255257   3.562   0.512   2.251 -0.7745  0.8095  0.0856
11281TIP3    H155258   3.523   0.439   2.298 -2.5763  0.7423 -1.3975
11281TIP3    H255259   3.488   0.558   2.212  0.4741  2.1680 -0.7977
11282TIP3   OH255260   0.268   0.747  14.363  0.0221  0.0200 -0.2188
11282TIP3    H155261   0.184   0.703  14.375  0.1137 -0.4701 -1.2974
11282TIP3    H255262   0.273   0.809  14.436 -0.4551 -1.2204  0.9025
11283TIP3   OH255263   0.631   2.049   4.964 -0.1957  0.1126  0.2690
11283TIP3    H155264   0.649   2.097   5.044 -1.5206  1.0084  0.0624
11283TIP3    H255265   0.668   2.103   4.894  2.2795 -1.3705  0.3124
11284TIP3   OH255266   2.246   1.722   4.374 -0.1095  0.3125  0.5411
11284TIP3    H155267   2.312   1.680   4.318 -0.5966  0.9106 -0.5264
11284TIP3    H255268   2.198   1.649   4.413  1.2536 -0.1325  1.4477
11285TIP3   OH255269   4.467   5.129   3.207  0.2875 -0.3848  0.2845
11285TIP3    H155270   4.536   5.174   3.256 -0.7590 -0.3339  1.7944
11285TIP3    H255271   4.514   5.072   3.146  1.7087 -0.8835  1.7542
11286TIP3   OH255272   4.193   3.123   5.205 -0.0981  0.5711  0.6639
11286TIP3    H155273   4.264   3.085   5.258 -0.6565 -1.3226  0.1599
11286TIP3    H255274   4.204   3.082   5.120 -0.0036  2.5869 -0.3461
11287TIP3   OH255275   0.185   2.262   3.481 -0.1901 -0.6406 -0.1820
11287TIP3    H155276   0.234   2.208   3.543 -0.9786 -0.1527  0.8948
11287TIP3    H255277   0.106   2.213   3.462 -0.4895 -0.2681  0.0964
11288TIP3   OH255278   1.173   2.730   2.798  0.6846 -0.1935  0.4091
11288TIP3    H155279   1.173   2.732   2.702  2.1489 -2.6258  0.2628
11288TIP3    H255280   1.084   2.753   2.822  0.5674  1.6293 -1.4485
11289TIP3   OH255281   0.127   6.636   2.884  0.1793  0.3268  0.4333
11289TIP3    H155282   0.059   6.571   2.903  0.3510 -0.0508 -0.2088
11289TIP3    H255283   0.118   6.653   2.790  0.1493  1.2222  0.5852
11290TIP3   OH255284   0.888   5.552   1.506 -0.0260 -0.2878 -0.4025
11290TIP3    H155285   0.965   5.565   1.451 -0.7100  2.0033 -0.9327
11290TIP3    H255286   0.922   5.517   1.588  1.2715 -1.6419 -1.4719
11291TIP3   OH255287   1.328   5.997  12.148  0.1094 -0.2961  0.0430
11291TIP3    H155288   1.399   5.952  12.195 -0.2663 -0.1016  0.8123
11291TIP3    H255289   1.373   6.058  12.090  0.5766 -0.3058  0.3893
11292TIP3   OH255290   2.466   2.559   2.610  0.5055 -0.0483 -0.4575
11292TIP3    H155291   2.448   2.597   2.696  1.2350 -0.8104  0.0468
11292TIP3    H255292   2.467   2.465   2.625  0.3845 -0.2021 -1.3600
11293TIP3   OH255293   5.562   3.258   0.476  0.2164  0.0151  0.0902
11293TIP3    H155294   5.620   3.205   0.532  0.2546 -0.2426 -0.1895
11293TIP3    H255295   5.508   3.194   0.430 -1.0861  0.2719  1.1728
11294TIP3   OH255296   4.128   4.589  14.555 -0.1770  0.5558  0.1897
11294TIP3    H155297   4.160   4.591  14.464 -0.9243  0.3873 -0.0792
11294TIP3    H255298   4.074   4.667  14.564 -1.5267 -0.3289 -0.0458
11295TIP3   OH255299   3.030   4.498  10.652 -0.4016 -0.4656 -0.2171
11295TIP3    H155300   3.057   4.527  10.738 -1.2545  1.4042 -0.5272
11295TIP3    H255301   2.988   4.574  10.613 -1.0430 -1.5937 -1.8601
11296TIP3   OH255302   1.582   6.058   2.916 -0.3548  0.1488 -0.3955
11296TIP3    H155303   1.509   6.086   2.861  0.0782  1.4092 -0.3730
11296TIP3    H255304   1.551   5.978   2.959 -0.6349 -0.9785 -2.5763
11297TIP3   OH255305   1.344   2.134   2.128 -0.0701 -0.2014 -0.1300
11297TIP3    H155306   1.374   2.095   2.209 -1.2763 -0.1688  0.3537
11297TIP3    H255307   1.280   2.200   2.155 -0.0340  0.2463 -1.0754
11298TIP3   OH255308   4.971   4.674   1.929 -0.3721  0.0821  0.6347
11298TIP3    H155309   5.039   4.738   1.908 -0.2140 -0.1369  0.4729
11298TIP3    H255310   4.990   4.646   2.019 -0.8030  0.7146  0.9258
11299TIP3   OH255311   1.144   1.820   4.029 -0.4866 -0.4873  0.1298
11299TIP3    H155312   1.062   1.782   4.062  0.3454 -1.1406  1.5262
11299TIP3    H255313   1.120   1.909   4.005 -1.3213 -0.1525  1.9739
11300TIP3   OH255314   1.209   5.822  15.584 -0.0388  0.8071 -0.0810
11300TIP3    H155315   1.164   5.821  15.500 -0.9116  0.0107  0.3752
11300TIP3    H255316   1.209   5.731  15.612 -0.9231  1.2303  1.3831
11301TIP3   OH255317   3.234   3.460   2.557 -0.0170 -0.5777 -0.2463
11301TIP3    H155318   3.225   3.547   2.596 -1.5628 -1.4667  1.5320
11301TIP3    H255319   3.328   3.445   2.553  0.2632  1.0113 -0.2125
11302TIP3   OH255320   3.834   0.915   4.641  0.2636 -0.3503 -0.7127
11302TIP3    H155321   3.742   0.904   4.617 -0.2827  3.8503 -1.3341
11302TIP3    H255322   3.831   0.946   4.732  1.2165 -1.3066 -0.3345
11303TIP3   OH255323   6.516   6.187  11.698  0.2952 -0.6892  0.2103
11303TIP3    H155324   6.498   6.189  11.792  0.5662 -0.0056  0.2520
11303TIP3    H255325   6.588   6.249  11.685 -0.4866  0.0968 -0.5961
11304TIP3   OH255326   6.100   6.434   0.695  0.0709  0.0086  0.3733
11304TIP3    H155327   6.069   6.524   0.708  1.9091  1.0027 -1.4161
11304TIP3    H255328   6.026   6.387   0.658 -0.6635  1.0339  0.5146
11305TIP3   OH255329   1.787   0.545   3.049 -0.4094  0.2679  0.3204
11305TIP3    H155330   1.746   0.482   2.990  1.4872 -0.6727 -0.1069
11305TIP3    H255331   1.801   0.496   3.131 -0.1918  0.5614  0.4619
11306TIP3   OH255332   1.516   2.905   5.188  0.2119  0.2042 -0.4250
11306TIP3    H155333   1.604   2.869   5.194  0.4169  0.8109  0.6491
11306TIP3    H255334   1.458   2.829   5.192  0.6784 -0.1715 -0.7713
11307TIP3   OH255335   0.372   5.236  14.032  0.5966  0.1463 -0.2585
11307TIP3    H155336   0.428   5.229  13.955 -0.0814 -1.5896 -0.6512
11307TIP3    H255337   0.430   5.263  14.103  1.7228 -0.5770 -0.8819
11308TIP3   OH255338   4.848   4.962  14.545  0.3243  0.4177 -0.5031
11308TIP3    H155339   4.899   4.898  14.595  0.3885 -0.5641 -1.7923
11308TIP3    H255340   4.758   4.930  14.550  0.4104 -0.0118 -1.4663
11309TIP3   OH255341   6.580   2.520  12.287  0.1926 -0.6009 -0.4990
11309TIP3    H155342   6.518   2.559  12.225  1.3032  0.7178 -0.8283
11309TIP3    H255343   6.583   2.582  12.360 -0.7201 -1.8926  0.6894
11310TIP3   OH255344   2.376   0.103   4.196  0.1147  0.5435 -0.3457
11310TIP3    H155345   2.412   0.086   4.283  0.0430 -2.4680 -0.8027
11310TIP3    H255346   2.453   0.114   4.140  0.1866  1.1695 -0.1248
11311TIP3   OH255347   1.045   1.460  10.739  0.3302  0.5780  0.1799
11311TIP3    H155348   1.098   1.539  10.729  0.0804  0.6904 -0.2742
11311TIP3    H255349   0.988   1.478  10.813 -0.5532  1.2925 -0.6578
11312TIP3   OH255350   1.821   4.543   6.754 -0.5468 -0.1619 -0.7092
11312TIP3    H155351   1.796   4.456   6.721  0.8043 -1.1997  0.8694
11312TIP3    H255352   1.916   4.542   6.755 -0.4991  1.5100 -1.0200
11313TIP3   OH255353   4.321   3.242   3.458  0.4407 -0.2632 -0.2901
11313TIP3    H155354   4.318   3.175   3.390  0.8072 -0.8966  0.3037
11313TIP3    H255355   4.414   3.266   3.465  0.1779  1.1577 -1.2993
11314TIP3   OH255356   2.813   4.480  15.307 -0.1638 -0.2740  0.2469
11314TIP3    H155357   2.728   4.503  15.268 -0.1334 -0.5515  0.0148
11314TIP3    H255358   2.829   4.391  15.278  0.3904 -0.0902 -0.0237
11315TIP3   OH255359   5.727   6.681   2.565  0.1251 -0.2589  0.5186
11315TIP3    H155360   5.695   6.757   2.614  0.2856  0.3135 -0.2438
11315TIP3    H255361   5.696   6.605   2.614 -0.0264  0.3050  1.2972
11316TIP3   OH255362   0.382   1.214   3.409  0.2501  0.4770 -0.0212
11316TIP3    H155363   0.310   1.175   3.459 -0.2270 -0.7009 -1.5536
11316TIP3    H255364   0.461   1.186   3.455 -0.1873 -0.2723  0.2902
11317TIP3   OH255365   0.323   3.620   5.177 -0.4628 -0.1933  0.5356
11317TIP3    H155366   0.308   3.526   5.189 -0.7797 -0.3307 -0.8592
11317TIP3    H255367   0.412   3.634   5.208  0.3703 -1.3564 -1.2475
11318TIP3   OH255368   0.652   0.110  15.421  0.2257  0.0335  0.1465
11318TIP3    H155369   0.739   0.082  15.393  0.3393  0.1538  0.3771
11318TIP3    H255370   0.663   0.135  15.512  0.0365  0.4314  0.0628
11319TIP3   OH255371   5.248   5.395   0.978 -0.1954  0.2673  0.9813
11319TIP3    H155372   5.299   5.353   1.047  0.4738 -1.5394 -0.5439
11319TIP3    H255373   5.265   5.343   0.900  0.7872  3.3946 -1.1248
11320TIP3   OH255374   0.007   6.210  14.348  0.0396 -0.0432 -0.4629
11320TIP3    H155375  -0.025   6.142  14.289 -0.1557 -1.4625  1.1996
11320TIP3    H255376  -0.036   6.290  14.318 -1.2813 -1.0201 -1.2722
11321TIP3   OH255377   6.306   0.772   0.775  0.7359  0.0240  0.2711
11321TIP3    H155378   6.308   0.731   0.689  0.0362 -0.0334  0.2772
11321TIP3    H255379   6.262   0.709   0.831 -1.0817  1.0610  0.1030
11322TIP3   OH255380   0.661   2.736   3.205 -0.5285 -0.2915 -0.1464
11322TIP3    H155381   0.691   2.692   3.284  2.2585 -0.4360 -1.1609
11322TIP3    H255382   0.678   2.829   3.221 -0.3141 -0.2837 -0.3975
11323TIP3   OH255383   1.572   6.082  13.835  0.9802  0.1614  0.2256
11323TIP3    H155384   1.588   6.023  13.761  0.3439  0.2336  0.0302
11323TIP3    H255385   1.540   6.024  13.905 -1.6249  0.4853 -0.5895
11324TIP3   OH255386   3.517   4.963   3.783 -0.4037  0.3227  0.0452
11324TIP3    H155387   3.556   4.876   3.780 -1.9630 -0.3736 -1.9429
11324TIP3    H255388   3.502   4.979   3.876  0.4135 -1.2822  0.4916
11325TIP3   OH255389   2.512   5.018   4.786 -0.0052  0.3740  0.2756
11325TIP3    H155390   2.420   5.022   4.758  1.2705  3.2275 -5.0580
11325TIP3    H255391   2.526   5.100   4.834  0.1671  1.2143 -1.1446
11326TIP3   OH255392   2.057   0.069   6.636  0.1206 -0.6573 -0.1419
11326TIP3    H155393   2.144   0.035   6.619 -0.3115 -0.8576 -2.2418
11326TIP3    H255394   1.999  -0.007   6.627 -0.4238 -0.2184 -0.4006
11327TIP3   OH255395   0.186   3.585   1.858  0.2862 -0.5430  0.0914
11327TIP3    H155396   0.173   3.633   1.940 -1.5009 -0.9725  0.1054
11327TIP3    H255397   0.218   3.499   1.886 -2.9079 -1.7009  0.6774
11328TIP3   OH255398   2.383   0.524  12.921 -0.3148  0.0136 -0.5999
11328TIP3    H155399   2.298   0.521  12.965  0.4646  0.3657  0.9818
11328TIP3    H255400   2.447   0.501  12.988  0.7799 -1.3301 -2.0202
11329TIP3   OH255401   1.618   0.795   4.591 -0.0612  0.2896 -0.1667
11329TIP3    H155402   1.625   0.887   4.618 -0.4449  0.0547  0.8069
11329TIP3    H255403   1.702   0.757   4.615 -0.6250 -0.0634  1.3588
11330TIP3   OH255404   6.326   4.625   0.796  0.1344 -0.7957 -0.2668
11330TIP3    H155405   6.355   4.708   0.835  0.2616 -1.0551  0.1912
11330TIP3    H255406   6.407   4.577   0.779  0.0040 -1.2499  0.4076
11331TIP3   OH255407   2.232   0.263   0.898  0.1623 -0.2514 -0.1251
11331TIP3    H155408   2.163   0.200   0.875  0.1654 -0.0807 -0.6008
11331TIP3    H255409   2.312   0.211   0.902  0.0287 -0.4314  0.3268
11332TIP3   OH255410   4.146   2.551  14.813 -0.4848  0.1279 -0.2341
11332TIP3    H155411   4.095   2.593  14.881  0.6062 -0.2255  0.8564
11332TIP3    H255412   4.178   2.470  14.854  0.7640  0.2427 -0.9187
11333TIP3   OH255413   0.143   2.298  13.206  0.4754 -0.0644 -0.3358
11333TIP3    H155414   0.057   2.266  13.176  0.3595  0.1309 -0.2168
11333TIP3    H255415   0.168   2.362  13.140  0.9224 -0.7309 -0.8220
11334TIP3   OH255416   1.469   3.148   2.159 -0.0144 -1.0515 -0.0497
11334TIP3    H155417   1.560   3.120   2.163  0.2273 -0.3338 -0.4376
11334TIP3    H255418   1.473   3.240   2.131 -0.8577 -1.0438 -0.1667
11335TIP3   OH255419   1.965   5.341   1.374 -0.0638  1.1938 -0.3970
11335TIP3    H155420   1.954   5.254   1.335 -1.3350  0.9526  0.4265
11335TIP3    H255421   1.884   5.388   1.350  0.0250  1.7049  0.2688
11336TIP3   OH255422   5.665   0.069   0.171 -0.1451  0.7131  0.5483
11336TIP3    H155423   5.671   0.145   0.227  2.0377  0.6745  0.4383
11336TIP3    H255424   5.611   0.007   0.220  1.6901  0.6690  2.6407
11337TIP3   OH255425   5.973   5.665   4.509  0.0775 -0.0246  0.6621
11337TIP3    H155426   6.005   5.680   4.598  0.8254 -0.0251  0.3971
11337TIP3    H255427   5.878   5.658   4.519  0.0827  0.7665  1.3477
11338TIP3   OH255428   5.925   3.210   5.488  0.2755 -0.1543  0.7048
11338TIP3    H155429   5.955   3.298   5.463 -0.6953  0.2834  1.0308
11338TIP3    H255430   5.872   3.225   5.566  0.4644 -1.0965  1.0212
11339TIP3   OH255431   5.149   5.701  12.987 -0.0873 -0.1946 -0.1533
11339TIP3    H155432   5.187   5.786  13.010 -0.5642  0.6232 -2.1724
11339TIP3    H255433   5.220   5.654  12.942 -0.2336 -0.3072 -0.2680
11340TIP3   OH255434   5.947   2.416  11.298 -0.2087 -0.0354 -0.2974
11340TIP3    H155435   5.861   2.378  11.321  0.9121 -1.7824  1.3502
11340TIP3    H255436   5.938   2.509  11.317 -1.8710 -0.1125 -0.5586
11341TIP3   OH255437   1.336   5.260   5.588 -0.5188 -0.8211  0.6412
11341TIP3    H155438   1.301   5.244   5.676 -0.9293 -1.0904  0.4359
11341TIP3    H255439   1.290   5.196   5.533  1.6914 -2.5392  0.6659
11342TIP3   OH255440   3.815   1.943  12.729  0.3033 -0.2193  0.8984
11342TIP3    H155441   3.782   2.033  12.726 -0.3199 -0.4273  1.4408
11342TIP3    H255442   3.857   1.936  12.814  1.5209 -0.0515  0.3369
11343TIP3   OH255443   3.939   6.081  15.932 -0.2486 -0.1104  0.1455
11343TIP3    H155444   3.906   6.134  16.005 -0.1711  0.0124  0.0912
11343TIP3    H255445   3.862   6.034  15.901 -0.0122 -1.2795  1.2337
11344TIP3   OH255446   0.818   0.762   6.031 -0.6500  0.1303  0.1076
11344TIP3    H155447   0.880   0.701   5.990 -2.7288 -0.9771 -1.5472
11344TIP3    H255448   0.855   0.777   6.118  1.7109 -0.7939 -0.6318
11345TIP3   OH255449   5.766   2.694  13.425  0.4500 -0.1118 -0.1119
11345TIP3    H155450   5.764   2.779  13.381 -0.6008 -0.1856 -0.2277
11345TIP3    H255451   5.826   2.707  13.499  0.9411  0.4871 -0.6007
11346TIP3   OH255452   5.585   5.704  16.056 -0.1280 -0.3618 -0.2639
11346TIP3    H155453   5.598   5.795  16.033 -1.0388  0.2861  1.5372
11346TIP3    H255454   5.499   5.703  16.100 -0.5164 -2.2277 -0.9714
11347TIP3   OH255455   0.098   4.311   3.869 -0.3329 -0.3527  0.5736
11347TIP3    H155456   0.090   4.252   3.944  0.7389 -0.3045  0.7416
11347TIP3    H255457   0.059   4.263   3.796 -1.3136 -0.4368  1.1216
11348TIP3   OH255458   5.241   0.942  13.544 -0.1879 -0.3467 -0.3042
11348TIP3    H155459   5.256   1.020  13.597 -0.9190 -1.7719  2.1627
11348TIP3    H255460   5.158   0.959  13.499  0.2807  0.7686 -0.7646
11349TIP3   OH255461   2.826   1.174   4.386 -0.4410  0.8306 -0.4587
11349TIP3    H155462   2.771   1.150   4.312 -2.2919 -1.0106  1.3743
11349TIP3    H255463   2.885   1.100   4.398  0.0634  1.2530 -0.2586
11350TIP3   OH255464   3.363   2.171   2.487  0.4397 -0.1666  0.2006
11350TIP3    H155465   3.350   2.130   2.572  0.3818  1.0804  0.8118
11350TIP3    H255466   3.436   2.123   2.448  1.4753  0.2217  1.5998
11351TIP3   OH255467   0.808   4.913  14.970 -0.3855  0.2794  0.4358
11351TIP3    H155468   0.865   4.941  14.898 -0.9797 -0.7435 -0.4730
11351TIP3    H255469   0.868   4.897  15.043  0.3472  0.4275 -0.1206
11352TIP3   OH255470   2.936   6.430   4.965  0.3242 -0.3203 -0.1138
11352TIP3    H155471   2.900   6.464   4.883 -0.1522  0.5384  0.4447
11352TIP3    H255472   2.895   6.344   4.975 -1.2276  0.4519  0.2795
11353TIP3   OH255473   1.650   6.028  11.745  0.3237  0.0560 -0.2750
11353TIP3    H155474   1.604   5.952  11.780  0.4663  0.4171  0.7296
11353TIP3    H255475   1.741   6.000  11.735  0.8206  0.6394  1.9953
11354TIP3   OH255476   2.470   4.899   0.455  1.2224  0.3213  0.0114
11354TIP3    H155477   2.496   4.907   0.547  1.3702 -0.3431  0.0355
11354TIP3    H255478   2.470   4.805   0.438  0.4711  0.4023 -0.4677
11355TIP3   OH255479   4.857   1.859  14.870  0.2600 -0.0579  0.2075
11355TIP3    H155480   4.833   1.903  14.788 -0.0764 -1.5787 -0.5434
11355TIP3    H255481   4.782   1.803  14.890  1.2958 -1.4554  0.2999
11356TIP3   OH255482   4.676   5.487   2.016  0.4955  0.0760  0.6548
11356TIP3    H155483   4.669   5.564   2.072  1.3485  1.3629 -0.9142
11356TIP3    H255484   4.605   5.498   1.952  1.0616 -0.0236 -0.0130
11357TIP3   OH255485   0.771   2.892   0.958 -0.1126  0.1594 -0.2116
11357TIP3    H155486   0.832   2.865   1.027 -1.5324 -2.0328  0.2474
11357TIP3    H255487   0.698   2.932   1.005 -0.5000 -0.1688 -0.5357
11358TIP3   OH255488   6.180   2.285  12.216 -0.7938  0.1142  0.6944
11358TIP3    H155489   6.151   2.247  12.133 -3.1990  0.4421  1.3098
11358TIP3    H255490   6.193   2.378  12.197 -2.3214  0.3921  0.8423
11359TIP3   OH255491   2.814   1.008  15.366  0.3510  0.6871  0.4959
11359TIP3    H155492   2.731   0.961  15.352 -0.1129  1.8022 -0.8094
11359TIP3    H255493   2.859   0.958  15.434 -0.1268 -1.5851 -0.7564
11360TIP3   OH255494   0.195   0.546  13.490  0.4947 -0.5677 -0.5015
11360TIP3    H155495   0.276   0.543  13.541 -0.3436  2.2863  1.2981
11360TIP3    H255496   0.218   0.594  13.411  0.4864  0.9541  0.3717
11361TIP3   OH255497   5.569   5.610  14.515  0.0689 -0.2040  0.1265
11361TIP3    H155498   5.641   5.556  14.482  0.0081 -0.3105  0.1685
11361TIP3    H255499   5.490   5.564  14.486 -0.0187 -1.2036  1.8510
11362TIP3   OH255500   0.823   0.666   5.121 -0.2500 -0.5725  0.0881
11362TIP3    H155501   0.908   0.699   5.151 -0.9676  0.7371  0.7734
11362TIP3    H255502   0.795   0.729   5.055 -0.4648 -1.2892 -0.5165
11363TIP3   OH255503   6.771   0.910   4.649  0.2274 -0.5652  0.5952
11363TIP3    H155504   6.689   0.936   4.607 -0.0581 -1.9062  0.2689
11363TIP3    H255505   6.768   0.950   4.736  0.1085  0.9587 -0.0829
11364TIP3   OH255506   5.305   2.443   3.286 -0.0830  0.0489 -0.7488
11364TIP3    H155507   5.274   2.369   3.337  0.8156 -0.8247 -1.4140
11364TIP3    H255508   5.279   2.521   3.336  0.2341 -0.7529  0.7010
11365TIP3   OH255509   2.865   0.223  15.654  0.2145  0.3073 -0.4257
11365TIP3    H155510   2.883   0.304  15.702 -0.5160  0.7580 -0.8956
11365TIP3    H255511   2.903   0.238  15.567  1.2559 -0.3826 -0.1060
11366TIP3   OH255512   1.280   4.971   5.759  0.3343 -0.4089  0.4059
11366TIP3    H155513   1.261   4.889   5.804 -0.8594 -0.9609 -1.0350
11366TIP3    H255514   1.235   5.038   5.811  1.1234 -0.6570  1.4555
11367TIP3   OH255515   1.046   0.210  13.361 -0.0736 -0.1244  0.4694
11367TIP3    H155516   0.952   0.230  13.365  0.1748  1.0098  1.2729
11367TIP3    H255517   1.088   0.296  13.369  1.0255 -0.4806 -1.1727
11368TIP3   OH255518   5.052   0.107   6.324  0.4385 -0.1903  0.5645
11368TIP3    H155519   5.135   0.070   6.293 -0.4730 -2.2865  0.4528
11368TIP3    H255520   5.042   0.072   6.412 -0.7690 -0.7229  0.2270
11369TIP3   OH255521   5.753   2.990  16.002  0.1432 -0.6569  0.1335
11369TIP3    H155522   5.764   3.018  15.911  0.2482 -0.7680  0.1124
11369TIP3    H255523   5.716   2.902  15.997  0.7370 -0.9161  0.1907
11370TIP3   OH255524   3.565   1.771   5.304 -0.2267 -0.2445 -0.5230
11370TIP3    H155525   3.564   1.728   5.219 -1.3873  0.0648 -0.6959
11370TIP3    H255526   3.479   1.751   5.341 -0.6198  1.4855 -0.4090
11371TIP3   OH255527   2.833   5.619   0.843 -0.0823  0.4782 -0.0782
11371TIP3    H155528   2.874   5.699   0.811 -0.3796  0.3171 -0.8748
11371TIP3    H255529   2.740   5.640   0.849 -0.5902 -0.5817 -2.8823
11372TIP3   OH255530   3.026   6.688   5.566  0.3735 -0.2508  0.0157
11372TIP3    H155531   3.113   6.657   5.543  1.8023  0.9432  3.2096
11372TIP3    H255532   3.003   6.639   5.644 -0.7072  1.2083  0.6537
11373TIP3   OH255533   3.828   3.760  10.450  0.1137 -0.8136  0.0072
11373TIP3    H155534   3.885   3.702  10.400 -0.5336 -2.6656  1.3405
11373TIP3    H255535   3.744   3.714  10.454 -0.3608  0.1042  1.2953
11374TIP3   OH255536   5.852   2.664  16.593  0.4872 -0.2361 -0.3345
11374TIP3    H155537   5.869   2.752  16.561  0.9831 -0.2728 -0.1842
11374TIP3    H255538   5.757   2.653  16.586  0.0019  1.3472  2.2429
11375TIP3   OH255539   4.611   2.534  15.819 -0.1898  0.1487  0.0386
11375TIP3    H155540   4.633   2.449  15.858  0.3941  0.2070 -0.1532
11375TIP3    H255541   4.556   2.577  15.885  0.2808 -0.0050  0.5361
11376TIP3   OH255542   5.785   1.966   2.362  0.2151 -0.0001 -0.3407
11376TIP3    H155543   5.878   1.967   2.339 -0.1588  0.7457 -1.9491
11376TIP3    H255544   5.776   2.036   2.428  0.4901  1.3425 -1.6598
11377TIP3   OH255545   1.517   0.596  14.855  0.2752  0.2441 -0.7826
11377TIP3    H155546   1.555   0.530  14.797  0.6633  0.2872 -0.5804
11377TIP3    H255547   1.591   0.629  14.906  0.4465  2.0899 -2.1014
11378TIP3   OH255548   2.292   3.528  14.336 -0.3218  0.0895  0.3450
11378TIP3    H155549   2.363   3.485  14.383 -0.1083  1.5581  1.4109
11378TIP3    H255550   2.332   3.559  14.255 -0.3241 -1.0758 -0.1320
11379TIP3   OH255551   4.434   2.853  14.418  0.5744 -0.3264 -0.2148
11379TIP3    H155552   4.371   2.814  14.478  0.8019  0.7832  0.7723
11379TIP3    H255553   4.388   2.928  14.380  0.9300 -0.1449 -0.2996
11380TIP3   OH255554   1.644   2.264  15.703  0.0424  0.8790 -0.3781
11380TIP3    H155555   1.554   2.294  15.717  0.1618  0.5059  1.4741
11380TIP3    H255556   1.644   2.173  15.733  0.6765  0.3269 -1.9517
11381TIP3   OH255557   2.862   3.197   1.640  0.1575 -0.2187 -0.2855
11381TIP3    H155558   2.778   3.210   1.595  0.4147 -1.0225 -1.0328
11381TIP3    H255559   2.837   3.166   1.727 -0.3994  2.9862  0.8252
11382TIP3   OH255560   0.939   3.395   5.131  0.0909  0.1671  0.4812
11382TIP3    H155561   0.922   3.328   5.198  2.2363  0.3873  1.3520
11382TIP3    H255562   0.917   3.353   5.048 -1.8615 -0.3971  1.2420
11383TIP3   OH255563   2.463   1.160   1.468  0.2054 -0.2894  0.1475
11383TIP3    H155564   2.443   1.074   1.429 -2.6680  0.0811  0.5885
11383TIP3    H255565   2.461   1.221   1.394  0.5286 -0.3613  0.0780
11384TIP3   OH255566   6.395   4.374   3.614 -0.2897 -0.0164 -0.1809
11384TIP3    H155567   6.399   4.285   3.647 -1.0670  0.2986  0.8274
11384TIP3    H255568   6.411   4.366   3.520  2.0798 -0.9372  0.2320
11385TIP3   OH255569   4.938   3.734  16.592 -0.2464  0.9051  0.3702
11385TIP3    H155570   4.928   3.667  16.660  0.8359 -1.0717 -1.3033
11385TIP3    H255571   4.971   3.686  16.516  0.2608  3.3179 -1.0267
11386TIP3   OH255572   0.955   1.994  13.095 -0.0801  0.0204  0.1033
11386TIP3    H155573   0.943   2.036  13.010  2.1019  0.0877 -0.2416
11386TIP3    H255574   0.867   1.980  13.128 -1.0312 -0.8989 -2.5958
11387TIP3   OH255575   6.280   3.633   4.161  0.7006  0.2712 -0.0649
11387TIP3    H155576   6.261   3.726   4.153  1.2755  0.3345 -0.8178
11387TIP3    H255577   6.330   3.612   4.082 -1.5492 -1.2296 -1.2083
11388TIP3   OH255578   5.254   2.191   0.455  0.0929 -0.4396 -0.1413
11388TIP3    H155579   5.237   2.285   0.447  0.2683 -0.3096  0.9038
11388TIP3    H255580   5.214   2.153   0.377 -0.2812  0.4630 -0.4037
11389TIP3   OH255581   3.953   6.520   2.581  0.6672  0.1438 -0.8359
11389TIP3    H155582   4.037   6.476   2.592  0.6646  0.7903  3.0836
11389TIP3    H255583   3.973   6.613   2.584 -0.1245  0.3106 -0.3899
11390TIP3   OH255584   1.725   0.523  17.235 -0.1157  0.1913 -0.8870
11390TIP3    H155585   1.651   0.489  17.186 -0.3925 -0.6940  0.1075
11390TIP3    H255586   1.754   0.450  17.289  0.1351  1.1365  0.3152
11391TIP3   OH255587   6.372   1.382   4.583  0.4476 -0.1238 -0.1903
11391TIP3    H155588   6.397   1.462   4.630 -0.9236  0.8227 -0.9926
11391TIP3    H255589   6.454   1.344   4.554  1.3461 -0.5130  2.5193
11392TIP3   OH255590   0.384   6.521  11.974  0.5456 -0.3753  0.3007
11392TIP3    H155591   0.420   6.585  12.035  0.7279  0.8757 -1.0675
11392TIP3    H255592   0.292   6.512  12.000  0.0446  1.8169 -0.5535
11393TIP3   OH255593   2.896   3.117   5.324  0.1967 -0.0662 -0.3475
11393TIP3    H155594   2.986   3.099   5.350  0.3392  1.4690  0.2763
11393TIP3    H255595   2.843   3.093   5.400  0.1753  0.0144 -0.3368
11394TIP3   OH255596   4.750   2.626  11.032 -0.5384 -0.6086  0.0552
11394TIP3    H155597   4.842   2.606  11.015 -1.1713 -2.0022 -2.2273
11394TIP3    H255598   4.718   2.551  11.083 -0.5028 -0.2999  0.5361
11395TIP3   OH255599   0.660   4.815   4.249  0.2162 -0.2095  1.2924
11395TIP3    H155600   0.591   4.879   4.269  0.5910  0.6260  0.0263
11395TIP3    H255601   0.613   4.736   4.225 -0.3664  0.6125 -0.4321
11396TIP3   OH255602   0.169   6.551   1.907 -0.5883 -0.0935  0.9118
11396TIP3    H155603   0.137   6.469   1.946 -0.6893  0.2158  1.4935
11396TIP3    H255604   0.095   6.584   1.857 -0.5590 -0.3404  0.7025
11397TIP3   OH255605   1.437   1.370   4.883 -0.5481  0.4772  0.3421
11397TIP3    H155606   1.471   1.306   4.946  1.5739  0.5408 -0.6448
11397TIP3    H255607   1.446   1.455   4.927 -0.4415  0.3938  0.4812
11398TIP3   OH255608   1.403   6.480   4.186  0.4569  0.5220 -0.2030
11398TIP3    H155609   1.465   6.551   4.201 -0.0883  0.4916  3.1223
11398TIP3    H255610   1.451   6.401   4.211 -0.1853  0.2303  0.1337
11399TIP3   OH255611   2.317   4.503   1.788 -0.1669  0.2506  0.2389
11399TIP3    H155612   2.394   4.494   1.844 -1.2091 -1.0999  1.5581
11399TIP3    H255613   2.303   4.597   1.781 -0.1433  0.4896  2.5499
11400TIP3   OH255614   3.319   0.346  12.807  0.0568 -0.0066  0.8653
11400TIP3    H155615   3.236   0.314  12.773 -0.3716  1.9760 -0.1256
11400TIP3    H255616   3.295   0.415  12.869  0.9065  1.0108  0.1165
11401TIP3   OH255617   3.430   0.615   5.925  0.1051 -0.3198  0.0049
11401TIP3    H155618   3.492   0.685   5.946 -0.8605  0.2508  1.0586
11401TIP3    H255619   3.483   0.535   5.926  0.8738  0.1770  0.7004
11402TIP3   OH255620   3.170   1.405   6.409  0.0979  0.3780  0.7659
11402TIP3    H155621   3.213   1.422   6.493  1.4805  0.4520  0.0759
11402TIP3    H255622   3.184   1.486   6.359  0.9983 -0.3727 -0.2215
11403TIP3   OH255623   0.610   3.304   4.644  0.1888  0.2827  0.1286
11403TIP3    H155624   0.527   3.295   4.598 -0.7283 -0.4875  1.8193
11403TIP3    H255625   0.672   3.330   4.577 -1.0056 -1.0354 -1.5789
11404TIP3   OH255626   0.043   6.736  11.704 -0.7462  0.5335  0.2318
11404TIP3    H155627   0.044   6.686  11.622  0.0893  0.7435  0.1075
11404TIP3    H255628   0.127   6.781  11.706 -0.7035  0.4434  1.2591
11405TIP3   OH255629   3.865   6.380  11.050  0.1620  0.2504  0.1497
11405TIP3    H155630   3.957   6.381  11.075 -0.2150 -0.7698  1.8059
11405TIP3    H255631   3.865   6.359  10.957  1.6331  2.3459 -0.4156
11406TIP3   OH255632   3.759   4.125  16.183  0.5826 -0.1697  0.3906
11406TIP3    H155633   3.761   4.080  16.267  0.8841  0.3922  0.6874
11406TIP3    H255634   3.819   4.198  16.193  0.7759 -0.2108 -0.3825
11407TIP3   OH255635   5.351   2.618  12.941  0.0807  0.1015  0.0766
11407TIP3    H155636   5.296   2.600  12.864 -1.0387 -1.0538  1.1056
11407TIP3    H255637   5.304   2.687  12.987  0.6365  0.6364 -0.1582
11408TIP3   OH255638   5.610   1.810   0.428 -0.4021 -0.0234  0.2473
11408TIP3    H155639   5.684   1.819   0.368 -2.1253  2.5907 -1.7151
11408TIP3    H255640   5.582   1.900   0.445 -1.9453 -0.8351  2.5343
11409TIP3   OH255641   5.749   1.497   4.897  0.0396 -0.5394  0.4770
11409TIP3    H155642   5.830   1.513   4.946  0.9639  0.4163 -1.2724
11409TIP3    H255643   5.688   1.564   4.928  1.1726  1.1838 -0.8299
11410TIP3   OH255644   2.723   5.515   3.866  0.1514 -0.5207  0.6559
11410TIP3    H155645   2.718   5.595   3.918  2.7902 -0.3231  0.7843
11410TIP3    H255646   2.677   5.536   3.785  0.6958  1.1061  0.7360
11411TIP3   OH255647   2.827   6.216  14.979  0.2170 -0.0338  0.1301
11411TIP3    H155648   2.875   6.139  14.946  1.1106  1.2206 -1.6774
11411TIP3    H255649   2.877   6.244  15.056  0.4062 -0.7400  0.2710
11412TIP3   OH255650   0.373   1.277  17.255 -0.5350  0.1271  0.2997
11412TIP3    H155651   0.372   1.370  17.233  0.5166 -0.0544 -0.5971
11412TIP3    H255652   0.335   1.272  17.343  0.1888  1.5000  0.7058
11413TIP3   OH255653   3.281   1.583   4.765 -0.0792 -0.4947 -0.1394
11413TIP3    H155654   3.185   1.588   4.762 -0.0083  0.4982 -1.5943
11413TIP3    H255655   3.302   1.497   4.728 -0.4059 -0.8968  0.5812
11414TIP3   OH255656   5.926   6.634   0.697  0.6317  0.0028 -0.8883
11414TIP3    H155657   5.914   6.588   0.614  1.6192  0.1029 -1.0997
11414TIP3    H255658   5.893   6.723   0.680  3.1962  0.8322 -2.0357
11415TIP3   OH255659   3.559   2.671   5.035 -0.1279  0.2048  0.0554
11415TIP3    H155660   3.574   2.747   5.091  0.1510 -0.2215  0.5681
11415TIP3    H255661   3.569   2.705   4.946  1.1865  0.5327  0.2962
11416TIP3   OH255662   3.408   6.460   6.306 -0.3814  0.2058 -0.1638
11416TIP3    H155663   3.391   6.550   6.335 -0.5053  0.2635 -0.4136
11416TIP3    H255664   3.481   6.431   6.361 -2.2054 -0.5900  1.9960
11417TIP3   OH255665   3.549   1.194  14.293  0.0196 -0.0987  0.3245
11417TIP3    H155666   3.453   1.192  14.288 -0.0292  0.7346  0.7626
11417TIP3    H255667   3.569   1.274  14.341  0.8983 -0.7821  1.1616
11418TIP3   OH255668   5.173   0.625  17.218  0.5888 -0.1319  0.1638
11418TIP3    H155669   5.218   0.708  17.203  1.0325 -0.0382  1.8591
11418TIP3    H255670   5.081   0.648  17.226  0.4505 -0.0726 -1.2636
11419TIP3   OH255671   4.054   4.913  11.713 -0.0401  0.2453 -0.5887
11419TIP3    H155672   3.984   4.861  11.674  0.7219 -1.0214 -0.3095
11419TIP3    H255673   4.052   4.890  11.806 -1.4131  2.7389  0.0962
11420TIP3   OH255674   3.073   4.868   1.748 -0.1457 -0.0170  0.6539
11420TIP3    H155675   2.986   4.872   1.788 -0.0834 -2.5954  1.2047
11420TIP3    H255676   3.061   4.813   1.671  0.5921  1.4896 -0.5830
11421TIP3   OH255677   1.697   3.764  12.813  0.0357  0.0361  0.0543
11421TIP3    H155678   1.758   3.706  12.859  0.1743  0.9337  1.0432
11421TIP3    H255679   1.749   3.842  12.793  0.0647 -0.4226 -1.9273
11422TIP3   OH255680   2.758   6.035  13.849 -0.0338  0.2639 -0.3096
11422TIP3    H155681   2.785   6.044  13.940  1.2804 -0.3697 -0.6162
11422TIP3    H255682   2.696   6.107  13.835  1.4540  1.7843  0.4669
11423TIP3   OH255683   4.432   4.597   3.832 -0.3757  0.4236  0.0449
11423TIP3    H155684   4.352   4.559   3.868 -0.9751  0.7597 -0.8708
11423TIP3    H255685   4.428   4.577   3.738  0.3795  0.8560 -0.0908
11424TIP3   OH255686   2.369   2.217  13.717  0.1241  0.9384  0.1577
11424TIP3    H155687   2.465   2.208  13.710  0.0399  0.2666 -0.2647
11424TIP3    H255688   2.351   2.205  13.810  0.6962  3.8854  0.7291
11425TIP3   OH255689   5.344   3.967  12.976  0.3429 -0.6540 -0.1452
11425TIP3    H155690   5.418   3.918  13.010  0.7068 -0.2926 -0.4086
11425TIP3    H255691   5.319   3.921  12.897  0.7321 -0.3792 -0.4331
11426TIP3   OH255692   0.948   6.758   3.405  0.1592  0.6945 -0.0329
11426TIP3    H155693   0.982   6.712   3.329  0.4120 -0.6101  0.8469
11426TIP3    H255694   0.875   6.810   3.371 -1.0753 -1.4649 -0.8283
11427TIP3   OH255695   2.269   5.289   1.421  0.0054  0.1048  0.3058
11427TIP3    H155696   2.283   5.248   1.335  0.9055  0.9392  0.0275
11427TIP3    H255697   2.353   5.276   1.467  0.3852  1.7688  0.1342
11428TIP3   OH255698   0.948   4.804  14.109 -0.1595 -0.4431  0.6055
11428TIP3    H155699   0.955   4.738  14.177 -2.3337 -1.7130 -0.2892
11428TIP3    H255700   0.953   4.888  14.156 -1.1422 -1.2780  2.2952
11429TIP3   OH255701   2.403   6.224   0.662 -0.0407 -0.2240  1.0701
11429TIP3    H155702   2.327   6.166   0.659  0.2744 -0.6107  0.3059
11429TIP3    H255703   2.402   6.269   0.578  1.3272 -1.2192  0.4877
11430TIP3   OH255704   0.995   2.224   1.679 -0.6398 -0.3755 -0.0108
11430TIP3    H155705   0.935   2.172   1.732 -0.4546  0.1322  0.7180
11430TIP3    H255706   1.032   2.288   1.740 -0.8734  0.6168 -0.8711
11431TIP3   OH255707   5.778   1.498  11.080 -0.1310 -0.1826 -0.9482
11431TIP3    H155708   5.790   1.568  11.016  0.7709  0.2524 -0.3186
11431TIP3    H255709   5.791   1.417  11.031  0.5926  0.1481 -1.3058
11432TIP3   OH255710   3.300   4.026   5.510  0.4575  0.0248 -0.0229
11432TIP3    H155711   3.283   4.120   5.517 -0.1975 -0.0716 -0.2223
11432TIP3    H255712   3.226   3.992   5.460  1.0447 -0.4954 -0.5556
11433TIP3   OH255713   5.921   5.295   4.443 -0.2400  0.1137  0.1451
11433TIP3    H155714   5.896   5.212   4.401 -0.2170 -0.2042  0.7401
11433TIP3    H255715   5.841   5.325   4.486  0.2542 -0.7079  1.7298
11434TIP3   OH255716   3.366   6.464  13.951 -0.2019  0.7844 -0.4428
11434TIP3    H155717   3.383   6.525  13.880 -0.6598  0.6354 -0.6808
11434TIP3    H255718   3.271   6.457  13.955 -0.3081  2.2884  1.4403
11435TIP3   OH255719   6.436   2.851   5.313 -0.5722  0.6039 -0.3018
11435TIP3    H155720   6.364   2.788   5.315  1.1092 -1.4326 -0.2787
11435TIP3    H255721   6.446   2.873   5.221 -2.1969  2.1857 -0.1634
11436TIP3   OH255722   4.733   2.962   3.186  0.4142  0.4515  0.2838
11436TIP3    H155723   4.665   2.958   3.253 -0.0899 -3.1515 -0.1996
11436TIP3    H255724   4.686   2.981   3.105  0.4652  1.0088  0.3809
11437TIP3   OH255725   5.015   6.479   0.441  0.6053  0.1799  0.0593
11437TIP3    H155726   4.928   6.497   0.405  0.2576  1.8116  1.5469
11437TIP3    H255727   5.054   6.415   0.381 -0.6895  1.2191 -1.9956
11438TIP3   OH255728   3.107   6.493   5.764 -0.1105  0.1215  0.2725
11438TIP3    H155729   3.117   6.443   5.683 -2.0882 -0.8668  0.5790
11438TIP3    H255730   3.157   6.443   5.830 -0.9492 -0.7175  0.2836
11439TIP3   OH255731   4.950   2.078   3.436 -0.5298 -0.6455  0.2692
11439TIP3    H155732   4.896   2.082   3.515  0.2199  1.0673  0.7184
11439TIP3    H255733   4.888   2.057   3.366 -1.8859  1.6165  0.7151
11440TIP3   OH255734   4.113   5.845   3.481  0.3625 -0.1456 -0.5329
11440TIP3    H155735   4.076   5.880   3.562  1.9953  1.4823 -0.4326
11440TIP3    H255736   4.159   5.765   3.508  0.2609 -0.0198  0.0226
11441TIP3   OH255737   5.049   1.403  12.915 -0.2744 -0.0194  0.4381
11441TIP3    H155738   5.057   1.488  12.871 -1.1911  0.1297  0.5387
11441TIP3    H255739   5.134   1.360  12.900 -0.0806  0.5916 -0.2835
11442TIP3   OH255740   2.138   0.540  10.830  0.4531  0.0123  0.6108
11442TIP3    H155741   2.058   0.488  10.831  1.4547 -1.6127  0.7826
11442TIP3    H255742   2.120   0.612  10.891 -1.0828  0.0520  0.1567
11443TIP3   OH255743   5.842   0.963   4.402 -0.0795  0.2383 -0.1341
11443TIP3    H155744   5.815   0.997   4.487 -0.6255 -1.4509  0.4276
11443TIP3    H255745   5.935   0.985   4.396 -0.1564  0.8433  0.6661
11444TIP3   OH255746   5.536   6.680   0.794 -0.2009 -1.1987  0.1331
11444TIP3    H155747   5.486   6.609   0.755  0.6188 -0.7522 -1.8165
11444TIP3    H255748   5.576   6.641   0.872 -2.0611 -2.0442  0.7124
11445TIP3   OH255749   1.574   6.296  14.818  0.4391 -0.0129 -0.1940
11445TIP3    H155750   1.659   6.337  14.836  1.4473 -1.4897 -1.3291
11445TIP3    H255751   1.514   6.337  14.880  1.6857  2.0356 -0.2395
11446TIP3   OH255752   5.667   2.105  13.302 -0.2213  0.3578 -0.6427
11446TIP3    H155753   5.640   2.021  13.339 -1.7369  0.4016 -1.5781
11446TIP3    H255754   5.655   2.167  13.374  1.4273 -0.2704  0.2243
11447TIP3   OH255755   4.050   5.369  14.977  0.0955 -0.4468 -0.6339
11447TIP3    H155756   4.024   5.440  15.036 -0.7059 -1.8267  0.7554
11447TIP3    H255757   4.110   5.410  14.914  1.1109  1.0615  1.2250
11448TIP3   OH255758   6.724   0.856   2.599 -0.1638  0.2387  0.1914
11448TIP3    H155759   6.713   0.765   2.571 -0.1501  0.5711 -0.9404
11448TIP3    H255760   6.737   0.851   2.693  0.1200 -0.9586  0.0999
11449TIP3   OH255761   5.349   3.612   2.630  1.1203  0.8003 -0.0034
11449TIP3    H155762   5.265   3.603   2.585  1.0948  1.0163 -0.0014
11449TIP3    H255763   5.348   3.701   2.666  1.1270  0.6237  0.4484
11450TIP3   OH255764   6.590   2.688  14.746 -0.5466 -0.4361  0.2768
11450TIP3    H155765   6.677   2.675  14.708 -0.4384  0.9940 -0.0490
11450TIP3    H255766   6.578   2.614  14.805  0.3274 -1.3681 -0.6731
11451TIP3   OH255767   1.556   3.575  11.400 -0.2630 -0.5912 -0.0703
11451TIP3    H155768   1.604   3.503  11.441  0.4867 -0.5641 -0.8803
11451TIP3    H255769   1.588   3.577  11.310 -0.9929  0.1329 -0.3249
11452TIP3   OH255770   5.159   1.721   6.443 -0.1349 -0.4430 -0.6752
11452TIP3    H155771   5.116   1.664   6.379 -0.1983  0.1486 -1.1671
11452TIP3    H255772   5.124   1.809   6.425  1.2023  0.0398 -1.0244
11453TIP3   OH255773   1.061   1.512   0.790  0.2255 -0.2188 -0.2948
11453TIP3    H155774   1.066   1.425   0.752  0.4294 -0.4711  0.2962
11453TIP3    H255775   0.992   1.506   0.856 -0.8066  0.4742 -1.2762
11454TIP3   OH255776   0.772   0.513   2.842  0.2304  0.3992 -0.4046
11454TIP3    H155777   0.859   0.491   2.874  0.8104  1.3503 -1.2498
11454TIP3    H255778   0.712   0.460   2.895  1.3150 -0.2576  0.1958
11455TIP3   OH255779   1.703   4.374  13.270  0.0015  0.1334  0.2349
11455TIP3    H155780   1.730   4.361  13.179  0.0181 -4.0091  0.6258
11455TIP3    H255781   1.621   4.325  13.277 -2.7237  4.3460  1.4507
11456TIP3   OH255782   0.270   2.312   1.808  0.8941 -0.7153  0.0727
11456TIP3    H155783   0.294   2.342   1.720  3.6583 -1.1848  0.5645
11456TIP3    H255784   0.227   2.228   1.794 -1.0074  0.3724 -0.9355
11457TIP3   OH255785   0.688   3.143  14.589 -0.1423 -0.0547 -0.4986
11457TIP3    H155786   0.616   3.207  14.596  0.1847  0.4428 -1.5307
11457TIP3    H255787   0.712   3.144  14.497 -0.1249 -1.6946 -0.5402
11458TIP3   OH255788   2.230   3.644   1.990 -0.2773 -0.4124 -0.0766
11458TIP3    H155789   2.239   3.682   1.903 -0.3510 -1.8976 -0.7502
11458TIP3    H255790   2.174   3.706   2.037 -0.9213 -0.0051 -1.3402
11459TIP3   OH255791   0.285   1.554  16.447  0.2627 -0.3346 -0.1416
11459TIP3    H155792   0.266   1.584  16.536 -1.2748 -1.7456  0.0561
11459TIP3    H255793   0.284   1.634  16.395  2.2574  0.6710  1.2204
11460TIP3   OH255794   5.608   5.985   3.561  0.1276  0.1144  0.1626
11460TIP3    H155795   5.643   5.898   3.584 -1.7247 -0.4509  1.1309
11460TIP3    H255796   5.639   6.001   3.473 -0.1641 -1.9587 -0.3811
11461TIP3   OH255797   4.500   4.861  12.296  0.0026  0.0774  0.0063
11461TIP3    H155798   4.431   4.798  12.317  1.1708 -1.4451 -0.5884
11461TIP3    H255799   4.523   4.901  12.380  0.0064 -1.1053  0.5806
11462TIP3   OH255800   1.920   1.292  17.126  0.4408 -0.5241  0.2709
11462TIP3    H155801   1.854   1.237  17.167  2.1327 -1.8321  1.3328
11462TIP3    H255802   1.876   1.329  17.049 -1.4418 -1.4978  0.8374
11463TIP3   OH255803   2.480   4.124   2.107 -0.4756  0.7685 -0.1886
11463TIP3    H155804   2.515   4.069   2.177  0.8718  0.1607 -1.3093
11463TIP3    H255805   2.385   4.117   2.117 -0.3203  0.2446  1.2159
11464TIP3   OH255806   5.860   6.259   1.593  0.2796  0.8344  0.4339
11464TIP3    H155807   5.855   6.331   1.656 -0.1116  0.9222  0.3003
11464TIP3    H255808   5.886   6.183   1.645 -0.3364  0.8391  0.7551
11465TIP3   OH255809   5.337   0.340   0.122 -0.2782  0.2231  0.3253
11465TIP3    H155810   5.244   0.328   0.105 -0.3625 -1.2651  1.5500
11465TIP3    H255811   5.346   0.328   0.217  1.4763 -2.5331 -0.0611
11466TIP3   OH255812   0.873   0.375  12.150  0.3008 -0.0891 -0.2186
11466TIP3    H155813   0.821   0.372  12.071 -1.9257 -0.3698  1.1780
11466TIP3    H255814   0.823   0.325  12.215  2.9023 -1.4617  0.9246
11467TIP3   OH255815   0.812   6.712  16.816 -0.0798  0.2181  0.0002
11467TIP3    H155816   0.781   6.677  16.733  0.6985 -0.4756 -0.0203
11467TIP3    H255817   0.907   6.720  16.805 -0.0576  0.8471  0.5608
11468TIP3   OH255818   3.319   1.441   5.628 -0.0463 -0.4766  0.0638
11468TIP3    H155819   3.273   1.451   5.544 -0.0371  0.4615  0.1560
11468TIP3    H255820   3.399   1.493   5.617  0.8788 -1.8837 -0.0036
11469TIP3   OH255821   2.162   4.751   1.435  0.9004  0.7494  0.1396
11469TIP3    H155822   2.091   4.687   1.442  0.0112  1.7325  0.2787
11469TIP3    H255823   2.242   4.697   1.431  0.3699 -0.3466  2.4649
11470TIP3   OH255824   0.469   5.874   0.412 -0.0904 -0.3602 -0.4077
11470TIP3    H155825   0.416   5.834   0.481 -0.3137  0.1719 -0.2652
11470TIP3    H255826   0.500   5.956   0.450 -1.8583  0.9398 -1.6063
11471TIP3   OH255827   4.853   5.458   6.220 -1.0896 -0.2122  0.9500
11471TIP3    H155828   4.856   5.379   6.274  0.0161 -1.3362 -0.6612
11471TIP3    H255829   4.852   5.426   6.130  0.8154  1.5902  0.2068
11472TIP3   OH255830   2.542   3.485  13.373  0.2081 -0.1865 -0.1946
11472TIP3    H155831   2.448   3.504  13.364  0.4246  2.0179  1.4964
11472TIP3    H255832   2.545   3.406  13.426 -0.7330  0.2966  0.6318
11473TIP3   OH255833   1.415   0.397   5.329  0.1420  0.0029  0.4658
11473TIP3    H155834   1.441   0.376   5.240 -2.2142  0.1675 -0.3278
11473TIP3    H255835   1.385   0.314   5.366  0.8665 -0.0156  1.0542
11474TIP3   OH255836   5.627   5.083   2.706 -0.0313 -0.7843  0.8242
11474TIP3    H155837   5.714   5.122   2.707 -1.1238  1.8741  0.2053
11474TIP3    H255838   5.597   5.090   2.797  0.3390 -1.6410  1.0239
11475TIP3   OH255839   6.452   3.528   3.961 -0.1589  0.2295  0.3875
11475TIP3    H155840   6.477   3.496   3.874 -0.7970 -0.1013  0.3139
11475TIP3    H255841   6.533   3.528   4.011 -0.0097 -0.8269  0.1666
11476TIP3   OH255842   1.826   6.357  12.401  0.2072  0.5890 -0.1795
11476TIP3    H155843   1.758   6.403  12.450  0.5894  1.5258 -0.5001
11476TIP3    H255844   1.866   6.424  12.347  1.4190  0.0656  0.0275
11477TIP3   OH255845   6.187   4.508  15.058 -0.5768  0.1513 -0.2240
11477TIP3    H155846   6.182   4.603  15.055 -0.7026  0.1227 -2.2075
11477TIP3    H255847   6.280   4.488  15.043 -0.8996 -0.0581 -2.0852
11478TIP3   OH255848   1.151   3.123  12.250 -0.0945  0.1444 -0.6008
11478TIP3    H155849   1.206   3.051  12.280  2.3762  0.4445 -3.9118
11478TIP3    H255850   1.211   3.196  12.237 -1.6960  1.3148 -1.8810
11479TIP3   OH255851   5.001   6.484  12.091  0.1057 -0.0678  0.5083
11479TIP3    H155852   5.037   6.501  12.004  0.8849  0.8592  0.9979
11479TIP3    H255853   5.069   6.435  12.136  0.5626  1.2093  1.2558
11480TIP3   OH255854   2.305   5.002  13.834  0.2995  0.3543 -0.1885
11480TIP3    H155855   2.231   5.046  13.876 -0.5455  0.0725 -1.3475
11480TIP3    H255856   2.274   4.979  13.747  1.9672  0.7971 -0.9404
11481TIP3   OH255857   6.732   5.484  13.018  0.3033 -0.4283 -0.1811
11481TIP3    H155858   6.714   5.433  13.098  0.7974 -0.6053 -0.1809
11481TIP3    H255859   6.671   5.449  12.953  0.5440 -0.9341 -0.1413
11482TIP3   OH255860   4.183   2.860  13.830  0.6504 -0.3018  0.1737
11482TIP3    H155861   4.105   2.833  13.781  0.8805 -0.8087  0.0818
11482TIP3    H255862   4.185   2.955  13.821 -0.2201 -0.2311  0.5662
11483TIP3   OH255863   3.685   5.293   1.958  0.1344  0.5408  0.6250
11483TIP3    H155864   3.767   5.324   1.918 -0.4346  1.6419  0.2711
11483TIP3    H255865   3.714   5.232   2.026  1.2058  0.1767 -0.1287
11484TIP3   OH255866   0.685   1.622   1.155 -0.1095 -0.4085 -0.0742
11484TIP3    H155867   0.685   1.538   1.201 -0.3243 -0.0738  0.5670
11484TIP3    H255868   0.776   1.636   1.129  0.0838 -0.4715  0.5382
11485TIP3   OH255869   0.215   4.061  12.726  0.0097  0.5873  0.1925
11485TIP3    H155870   0.174   4.023  12.648 -0.1822  0.0471  0.5530
11485TIP3    H255871   0.244   4.148  12.697 -1.2962  0.9543 -0.1201
11486TIP3   OH255872   6.205   4.312   5.489 -0.2228 -0.5784  0.0804
11486TIP3    H155873   6.140   4.361   5.539  0.0865 -0.5219  0.4336
11486TIP3    H255874   6.235   4.243   5.548 -0.8174 -1.3464 -0.4932
11487TIP3   OH255875   0.415   6.699  12.590 -0.3612  0.0842 -0.2370
11487TIP3    H155876   0.471   6.717  12.666 -0.6141 -1.3087  0.3046
11487TIP3    H255877   0.476   6.697  12.516  0.3530 -1.4148  0.3425
11488TIP3   OH255878   0.290   2.075  13.611 -0.0891 -0.1128 -0.2368
11488TIP3    H155879   0.241   2.094  13.531  0.2873 -0.8062 -0.6393
11488TIP3    H255880   0.347   2.151  13.622 -2.4779  1.5932  1.2460
11489TIP3   OH255881   3.055   5.716  16.356 -0.2400 -0.2378  0.1016
11489TIP3    H155882   2.963   5.717  16.384 -0.4590  1.2448 -0.5889
11489TIP3    H255883   3.085   5.627  16.377 -1.6297 -0.5453  0.9497
11490TIP3   OH255884   0.138   4.561  11.741  0.1500 -0.0731  0.7621
11490TIP3    H155885   0.224   4.603  11.733 -0.2881  0.8662  0.8965
11490TIP3    H255886   0.101   4.564  11.653 -0.3516  0.8553  0.9977
11491TIP3   OH255887   0.472   5.463  11.546  0.1854 -0.1233  0.3559
11491TIP3    H155888   0.559   5.427  11.530  0.0675 -1.3994  2.2759
11491TIP3    H255889   0.489   5.553  11.575  0.6268  0.6660 -2.1442
11492TIP3   OH255890   2.835   4.673  11.631  0.3284  0.0940  0.0346
11492TIP3    H155891   2.784   4.622  11.695 -2.3998  0.2021 -1.8878
11492TIP3    H255892   2.882   4.607  11.580  1.7480 -0.0440  1.4481
11493TIP3   OH255893   1.511   3.715   1.137  0.0545  0.3451  0.9618
11493TIP3    H155894   1.514   3.799   1.093 -2.3514  0.0064  0.0120
11493TIP3    H255895   1.437   3.722   1.197  0.2924 -0.8390  1.4266
11494TIP3   OH255896   4.757   3.822  14.641  0.4205  0.0506  0.5889
11494TIP3    H155897   4.707   3.790  14.566  0.1136 -0.5126  1.0196
11494TIP3    H255898   4.702   3.889  14.680  0.1524 -0.3090  0.8442
11495TIP3   OH255899   0.884   2.335   0.621 -0.4940  0.0712 -0.5102
11495TIP3    H155900   0.808   2.277   0.627  0.4006 -1.2137 -1.2663
11495TIP3    H255901   0.954   2.280   0.586  1.2608  0.7763  1.6399
11496TIP3   OH255902   5.046   2.121  13.652 -0.8962 -0.5173  0.3519
11496TIP3    H155903   5.087   2.146  13.735  0.1990  0.8424 -0.5393
11496TIP3    H255904   5.115   2.136  13.586 -2.6388  1.4722 -1.1766
11497TIP3   OH255905   1.694   3.241  11.890 -0.0850 -0.2264 -0.2114
11497TIP3    H155906   1.709   3.169  11.951 -2.1147 -0.9812 -0.5284
11497TIP3    H255907   1.606   3.226  11.857  0.2573  1.2251 -1.9164
11498TIP3   OH255908   0.863   2.664   3.658 -0.3375  0.0229 -0.3141
11498TIP3    H155909   0.810   2.585   3.653 -1.1383  0.6040 -1.2588
11498TIP3    H255910   0.927   2.645   3.727  0.3853 -1.9863 -1.4509
11499TIP3   OH255911   5.840   3.514   2.775 -0.4015  0.0597  0.6378
11499TIP3    H155912   5.835   3.453   2.849 -1.0604 -0.6098  0.0573
11499TIP3    H255913   5.761   3.496   2.724  1.3125 -1.4362 -1.6964
11500TIP3   OH255914   1.725   4.789  13.004 -0.0347 -0.2375 -0.0075
11500TIP3    H155915   1.766   4.712  12.962  0.1255 -0.6449  0.8650
11500TIP3    H255916   1.645   4.803  12.955 -0.2887 -1.2468  0.0872
11501TIP3   OH255917   0.123   0.972  11.883 -0.2219 -0.0778 -0.2183
11501TIP3    H155918   0.075   0.968  11.966  0.5257  1.4112  0.3258
11501TIP3    H255919   0.172   0.890  11.880 -0.1048 -0.0670  0.9195
11502TIP3   OH255920   3.077   5.148   4.704  0.2028  0.2562 -0.0754
11502TIP3    H155921   3.032   5.136   4.621  0.6869 -0.6291 -0.2210
11502TIP3    H255922   3.104   5.240   4.704 -0.8791  0.5868 -0.3377
11503TIP3   OH255923   4.653   3.142   5.844  0.4816 -0.2827  0.4426
11503TIP3    H155924   4.678   3.052   5.863 -1.4328 -0.8037  0.6925
11503TIP3    H255925   4.617   3.174   5.926 -0.5191  0.0984 -0.1333
11504TIP3   OH255926   4.035   6.593  11.699  0.1909  0.3200  0.3216
11504TIP3    H155927   4.076   6.534  11.635 -1.7376 -0.0096 -0.6732
11504TIP3    H255928   4.031   6.677  11.654  1.1107  0.7416  0.9927
11505TIP3   OH255929   1.836   5.779  15.146 -0.3456  0.0166  0.4472
11505TIP3    H155930   1.813   5.697  15.101 -0.2321 -0.6112  1.5002
11505TIP3    H255931   1.807   5.848  15.086 -2.1953 -0.7649  0.3730
11506TIP3   OH255932   0.381   1.635   3.746 -0.6724 -0.0637  0.8186
11506TIP3    H155933   0.298   1.625   3.793 -1.4950 -0.3487 -0.6295
11506TIP3    H255934   0.358   1.684   3.667  0.9082  1.5603  1.3185
11507TIP3   OH255935   4.222   0.041  11.560  0.3930  0.3118 -0.7235
11507TIP3    H155936   4.155   0.004  11.502 -0.1892  0.7368 -0.3310
11507TIP3    H255937   4.178   0.112  11.607  0.9512  0.2150 -0.0210
11508TIP3   OH255938   2.455   2.423  12.007  0.1934  0.7379  0.3373
11508TIP3    H155939   2.471   2.384  11.921 -0.2302  1.1982  0.0419
11508TIP3    H255940   2.537   2.467  12.029  1.1797 -1.4469  1.3153
11509TIP3   OH255941   2.235   3.252   2.256 -0.2280 -0.1481  0.3704
11509TIP3    H155942   2.319   3.207   2.262 -0.7809 -1.3066 -0.3115
11509TIP3    H255943   2.194   3.239   2.342  0.3095  0.4907  0.7324
11510TIP3   OH255944   3.818   0.561   1.556 -0.3969 -0.0732  0.5562
11510TIP3    H155945   3.726   0.550   1.531 -1.1351  2.1119  2.0214
11510TIP3    H255946   3.864   0.490   1.511 -3.0396 -2.4116  1.3070
11511TIP3   OH255947   3.851   3.645  12.123  0.0199 -0.0979  0.4580
11511TIP3    H155948   3.886   3.704  12.190  0.9592  0.2038 -0.2804
11511TIP3    H255949   3.875   3.558  12.153 -1.9476 -0.2302  1.9008
11512TIP3   OH255950   3.558   5.414   3.082 -0.0889  0.6465 -0.4064
11512TIP3    H155951   3.595   5.495   3.117  1.8475 -0.4326  0.1853
11512TIP3    H255952   3.497   5.384   3.149  0.5394  0.7108  0.2015
11513TIP3   OH255953   1.229   5.070  13.815  0.1499 -0.0803 -0.5041
11513TIP3    H155954   1.284   5.114  13.750  0.0716 -1.0039 -1.2253
11513TIP3    H255955   1.141   5.105  13.800 -0.1954 -1.4929 -2.0665
11514TIP3   OH255956   4.551   2.812   4.851 -0.0479 -0.2840 -0.1473
11514TIP3    H155957   4.544   2.867   4.928 -0.4844 -0.1143 -0.3103
11514TIP3    H255958   4.519   2.726   4.880  0.9606 -0.5675  0.2071
11515TIP3   OH255959   6.092   0.135  12.415 -0.2493 -0.0158 -0.1561
11515TIP3    H155960   6.176   0.102  12.446 -0.5649 -1.0141 -0.3203
11515TIP3    H255961   6.039   0.057  12.402 -2.4503  0.6685  3.3724
11516TIP3   OH255962   6.400   4.102   0.533 -0.0166  0.0477  1.0546
11516TIP3    H155963   6.461   4.122   0.462  0.0927 -1.9414  0.5326
11516TIP3    H255964   6.330   4.167   0.522  1.4753  1.7317  1.0610
11517TIP3   OH255965   1.140   1.716  14.939  0.6539 -0.6835  0.4514
11517TIP3    H155966   1.080   1.682  14.872  0.7407 -0.3826  0.2217
11517TIP3    H255967   1.130   1.811  14.934 -0.3622 -0.6883  1.7983
11518TIP3   OH255968   0.789   2.167  12.758 -0.3311 -0.1610 -0.3825
11518TIP3    H155969   0.742   2.150  12.840 -0.8146 -0.3328 -0.6895
11518TIP3    H255970   0.762   2.097  12.700  0.0905 -0.0958 -0.6609
11519TIP3   OH255971   2.903   2.298   5.403  0.5924 -0.0796 -0.1259
11519TIP3    H155972   2.873   2.321   5.315  0.4752  0.5042  0.0600
11519TIP3    H255973   2.931   2.207   5.396 -1.3781 -0.7328 -0.2771
11520TIP3   OH255974   2.723   4.491  12.649 -0.1537  0.0600  0.2051
11520TIP3    H155975   2.679   4.444  12.578 -0.8409  0.5894  0.2710
11520TIP3    H255976   2.693   4.581  12.641  1.1914  0.5174  0.0469
11521TIP3   OH255977   5.713   4.758  10.609 -0.4975 -0.0747 -0.5494
11521TIP3    H155978   5.621   4.770  10.634  0.2722  0.0575  2.7254
11521TIP3    H255979   5.758   4.832  10.649  1.2628 -1.1095 -0.5246
11522TIP3   OH255980   0.446   0.172   1.909 -0.4230 -0.4976 -0.3082
11522TIP3    H155981   0.496   0.191   1.988 -2.3318  0.4744  0.7228
11522TIP3    H255982   0.401   0.090   1.928  0.5342 -1.2309 -1.1280
11523TIP3   OH255983   6.726   2.601  12.816  0.0331  0.3145 -0.2690
11523TIP3    H155984   6.679   2.648  12.884  0.1175  0.3772 -0.2539
11523TIP3    H255985   6.668   2.529  12.792 -0.2696  0.6562 -0.5696
11524TIP3   OH255986   5.726   0.371  11.623 -0.1661  0.0197  0.3569
11524TIP3    H155987   5.719   0.433  11.550  0.0533  0.3662  0.6289
11524TIP3    H255988   5.816   0.381  11.654  0.0367 -0.8305  0.0538
11525TIP3   OH255989   4.771   1.555   5.785 -0.5967 -0.0148 -0.4333
11525TIP3    H155990   4.765   1.642   5.744  0.5684  0.0296 -0.5387
11525TIP3    H255991   4.684   1.517   5.772 -0.8521  0.7782 -1.1912
11526TIP3   OH255992   2.332   6.574   1.664 -0.2621  0.3989  0.4286
11526TIP3    H155993   2.388   6.600   1.737 -0.1816 -1.3356  1.0227
11526TIP3    H255994   2.339   6.479   1.660 -1.8811  0.2742 -0.5368
11527TIP3   OH255995   2.733   2.026   4.149  0.1244  0.6661 -0.2962
11527TIP3    H155996   2.716   2.078   4.070 -0.1802  2.8053  1.1150
11527TIP3    H255997   2.743   2.090   4.219 -2.9890 -1.1665  2.1305
11528TIP3   OH255998   5.672   1.024  14.962  0.0834 -0.2479  0.2492
11528TIP3    H155999   5.605   1.093  14.958  1.1752  0.8458  0.0251
11528TIP3    H256000   5.684   1.007  15.056 -1.1129 -1.0888  0.2648
11529TIP3   OH256001   0.754   4.916   1.346  0.2871 -0.3603 -0.0517
11529TIP3    H156002   0.659   4.910   1.332  0.3460  0.7678 -1.1285
11529TIP3    H256003   0.791   4.906   1.258  1.1671 -0.6578  0.3494
11530TIP3   OH256004   2.436   6.481  16.426  0.0815 -0.1164 -0.3177
11530TIP3    H156005   2.474   6.463  16.340 -0.0715  1.4562 -0.7428
11530TIP3    H256006   2.458   6.404  16.479  1.9506 -0.2289 -1.1795
11531TIP3   OH256007   0.614   1.011  16.035 -0.2908  0.1492 -0.2091
11531TIP3    H156008   0.697   0.971  16.057 -0.9390 -0.9086  0.4055
11531TIP3    H256009   0.598   1.074  16.105  0.6638  1.4490 -1.1076
11532TIP3   OH256010   6.589   6.775   3.635  0.1845 -0.1189  0.1410
11532TIP3    H156011   6.544   6.839   3.580 -1.5630 -0.4443  1.1406
11532TIP3    H256012   6.522   6.711   3.658  1.0248 -0.3709  2.0551
11533TIP3   OH256013   2.136   2.298   2.686 -0.2095 -0.1530 -0.0159
11533TIP3    H156014   2.044   2.318   2.702 -0.0040  0.4698  0.4008
11533TIP3    H256015   2.174   2.287   2.773 -0.4207 -2.9768 -0.1820
11534TIP3   OH256016   5.378   0.386   6.404 -0.1712  0.4223 -0.1246
11534TIP3    H156017   5.356   0.301   6.442  0.9334  0.3091  0.2864
11534TIP3    H256018   5.355   0.449   6.473 -0.9712  0.4782 -0.4222
11535TIP3   OH256019   3.031   1.761  11.666 -0.3888  0.6986 -0.5218
11535TIP3    H156020   3.021   1.856  11.677  1.3933  1.0066 -1.1604
11535TIP3    H256021   3.126   1.748  11.661 -0.6307 -0.7936 -3.0160
11536TIP3   OH256022   5.284   5.842   1.670  0.7292  0.6910  0.8294
11536TIP3    H156023   5.314   5.771   1.614 -1.6257 -0.0980  0.4800
11536TIP3    H256024   5.295   5.808   1.759 -1.6023 -0.7318  0.6481
11537TIP3   OH256025   1.602   1.879  16.292 -0.1755  0.0565 -0.3512
11537TIP3    H156026   1.669   1.867  16.359  2.7752  1.0750 -2.8745
11537TIP3    H256027   1.613   1.969  16.263 -2.3307  0.0943 -1.2847
11538TIP3   OH256028   5.958   5.628  16.197  0.1108  0.1573  0.2126
11538TIP3    H156029   6.053   5.620  16.188  0.0028 -0.7554 -0.2046
11538TIP3    H256030   5.941   5.722  16.195  0.9976  0.3196  0.1934
11539TIP3   OH256031   0.407   3.221   2.195  0.3488 -0.7260  0.2955
11539TIP3    H156032   0.381   3.200   2.285  1.8143  0.2868  0.9878
11539TIP3    H256033   0.379   3.145   2.144 -1.8972 -0.6472  1.3244
11540TIP3   OH256034   0.623   2.879  12.758 -0.0752 -0.8164 -0.0945
11540TIP3    H156035   0.688   2.811  12.740 -2.0931 -2.5058 -1.5444
11540TIP3    H256036   0.547   2.831  12.792 -1.9469  0.5120 -2.1323
11541TIP3   OH256037   1.769   3.432   3.596 -0.0420 -0.2787  0.2912
11541TIP3    H156038   1.796   3.512   3.551  0.1101 -0.2718  0.3962
11541TIP3    H256039   1.848   3.400   3.640 -0.1133 -0.4602  0.2893
11542TIP3   OH256040   2.187   3.533   0.730 -0.4583  0.0308  0.1326
11542TIP3    H156041   2.096   3.526   0.759 -0.8533  1.1031 -0.7686
11542TIP3    H256042   2.226   3.596   0.791 -0.5424  0.1796  0.0344
11543TIP3   OH256043   0.920   4.392   0.317 -0.1477 -0.0844  0.6642
11543TIP3    H156044   0.827   4.416   0.316 -0.0858  0.1824 -1.1073
11543TIP3    H256045   0.959   4.454   0.379 -1.1092 -0.0754  1.2886
11544TIP3   OH256046   4.008   1.112  14.173 -0.0305  0.0838 -0.0873
11544TIP3    H156047   4.021   1.053  14.099  1.1673 -1.2423  1.1219
11544TIP3    H256048   3.927   1.159  14.152 -1.0841 -2.0208 -1.0949
11545TIP3   OH256049   2.851   5.366   0.225 -0.0901  0.1967  0.1151
11545TIP3    H156050   2.906   5.395   0.297  1.4068 -1.1613 -0.4317
11545TIP3    H256051   2.765   5.406   0.243  0.0006 -0.6895  3.0365
11546TIP3   OH256052   5.950   1.123   1.721 -0.3645 -0.4274 -0.1639
11546TIP3    H156053   6.031   1.097   1.678  0.5460 -0.0973  1.2678
11546TIP3    H256054   5.902   1.172   1.654  1.9362  1.9480 -0.2712
11547TIP3   OH256055   3.952   4.834   6.698  0.7595 -0.1227 -0.0525
11547TIP3    H156056   4.026   4.801   6.750 -0.5806 -1.5589  1.0106
11547TIP3    H256057   3.931   4.763   6.639 -2.1480 -1.3785  2.2397
11548TIP3   OH256058   3.035   3.764  16.208  0.5185 -0.1981  0.2594
11548TIP3    H156059   2.982   3.843  16.201  0.1153 -0.4553  0.3422
11548TIP3    H256060   3.125   3.793  16.191  0.9810  0.9945  3.9488
11549TIP3   OH256061   3.857   5.407  11.109  0.1896  0.2021  0.2980
11549TIP3    H156062   3.941   5.386  11.149 -0.2715  0.0017  1.1757
11549TIP3    H256063   3.806   5.326  11.114  0.4209 -0.0962 -1.5142
11550TIP3   OH256064   5.204   3.968  16.113 -0.0946  0.0266 -0.0962
11550TIP3    H156065   5.284   3.918  16.128  0.0077 -0.4791 -2.0593
11550TIP3    H256066   5.209   4.041  16.175  2.8906  1.1422 -1.4658
11551TIP3   OH256067   0.051   2.814   0.981  0.3475  0.0308  0.1516
11551TIP3    H156068   0.029   2.841   1.070 -2.5926 -3.4292  0.7144
11551TIP3    H256069   0.133   2.766   0.989  0.3665  0.1914  0.9357
11552TIP3   OH256070   6.049   3.523   4.610  0.2252  0.6429  0.5445
11552TIP3    H156071   6.075   3.586   4.543 -1.3940  0.6263 -0.1506
11552TIP3    H256072   6.073   3.437   4.574  1.3217  0.7552  0.9620
11553TIP3   OH256073   5.480   5.575  14.909 -0.3497  0.3946 -0.3848
11553TIP3    H156074   5.478   5.518  14.987 -0.7500 -0.5547 -1.0708
11553TIP3    H256075   5.388   5.597  14.894 -0.4347 -0.5665 -1.3876
11554TIP3   OH256076   5.511   6.477  13.556 -0.4493  0.0226 -0.3128
11554TIP3    H156077   5.539   6.547  13.498  0.0346 -0.0816 -0.2073
11554TIP3    H256078   5.441   6.432  13.507 -0.3611  0.2161 -0.6174
11555TIP3   OH256079   1.688   1.584  13.652 -1.3406 -0.0428 -0.2760
11555TIP3    H156080   1.710   1.530  13.728  1.0161  0.6901 -0.3580
11555TIP3    H256081   1.616   1.537  13.610 -0.2642 -2.4279  0.3735
11556TIP3   OH256082   4.743   1.396   0.676  0.2087 -0.4099  0.7081
11556TIP3    H156083   4.683   1.356   0.739 -2.8313  1.2545 -0.8479
11556TIP3    H256084   4.707   1.373   0.590  0.5834  2.2771 -0.2822
11557TIP3   OH256085   3.626   1.414   4.905  0.3712 -0.5234 -0.1795
11557TIP3    H156086   3.566   1.469   4.955 -0.1686 -1.5390  0.3377
11557TIP3    H256087   3.692   1.388   4.969  1.6334  0.9074 -0.8366
11558TIP3   OH256088   5.879   4.020  15.846 -0.2186  0.1312  0.8802
11558TIP3    H156089   5.944   3.954  15.824 -0.4290  0.2236 -0.0450
11558TIP3    H256090   5.903   4.049  15.934  0.9933  0.1731  0.5514
11559TIP3   OH256091   1.037   3.543  15.768 -0.2015 -0.1875  0.7011
11559TIP3    H156092   1.053   3.610  15.702 -2.0403  0.0955  0.5073
11559TIP3    H256093   0.985   3.587  15.835 -0.7661 -1.2208  0.9581
11560TIP3   OH256094   0.307   1.511   4.328  0.3769 -0.2705 -0.3419
11560TIP3    H156095   0.334   1.578   4.390  1.0949 -0.2568 -0.6536
11560TIP3    H256096   0.300   1.431   4.381 -0.9079  0.1185  0.1117
11561TIP3   OH256097   3.669   4.676   1.463 -0.0816 -0.3472  0.6956
11561TIP3    H156098   3.591   4.729   1.447 -0.9339 -1.0580  2.3350
11561TIP3    H256099   3.735   4.712   1.403 -1.1373  1.4246  0.5398
11562TIP3   OH256100   0.641   3.508  16.321  0.4887  0.1351  0.2523
11562TIP3    H156101   0.708   3.546  16.264  0.5372  1.8924  1.4264
11562TIP3    H256102   0.559   3.550  16.292  0.4166  0.5424  1.0417
11563TIP3   OH256103   1.745   2.860  13.590  0.2245  0.1500 -0.3229
11563TIP3    H156104   1.723   2.789  13.650 -2.7536  0.5092 -0.8311
11563TIP3    H256105   1.722   2.940  13.638 -1.0592  0.4924 -1.4402
11564TIP3   OH256106   5.398   0.049  13.243 -0.2108 -0.8192 -0.5135
11564TIP3    H156107   5.305   0.023  13.238 -0.5251 -0.1548  1.2430
11564TIP3    H256108   5.395   0.143  13.260  0.8047 -0.7258 -0.8408
11565TIP3   OH256109   3.805   3.341   3.328  0.1488  0.0920  0.2942
11565TIP3    H156110   3.768   3.399   3.395  0.3781  2.6140 -1.6109
11565TIP3    H256111   3.875   3.393   3.288  0.6412 -1.6812 -1.2701
11566TIP3   OH256112   1.452   4.000   4.203 -0.1495  0.4413  0.3365
11566TIP3    H156113   1.456   3.938   4.275  0.2037  1.4571  1.2270
11566TIP3    H256114   1.457   4.086   4.245  1.6856  1.0431 -0.9881
11567TIP3   OH256115   0.636   3.556   4.773 -0.9796  0.2973 -0.0390
11567TIP3    H156116   0.571   3.585   4.837 -0.9795 -0.1920  0.1914
11567TIP3    H256117   0.615   3.463   4.760 -1.2221  0.4791 -1.0323
11568TIP3   OH256118   5.911   1.586   3.610 -0.3608 -0.3018 -0.0625
11568TIP3    H156119   5.821   1.568   3.583 -0.5746 -0.3158  0.6525
11568TIP3    H256120   5.903   1.650   3.680  0.1359 -0.9313  0.5787
11569TIP3   OH256121   1.573   0.032  14.216  0.1730  0.0508  0.1991
11569TIP3    H156122   1.571  -0.001  14.126  0.4411 -1.8073  0.8397
11569TIP3    H256123   1.607  -0.041  14.268 -1.1565  0.6193  1.9865
11570TIP3   OH256124   2.322   6.277  15.863  0.3247 -0.0652 -0.1441
11570TIP3    H156125   2.303   6.210  15.797 -0.2141  0.3854 -0.4553
11570TIP3    H256126   2.395   6.241  15.913  1.5144  0.0431 -1.6969
11571TIP3   OH256127   5.919   0.792  17.270 -0.1912 -0.6803 -0.3404
11571TIP3    H156128   5.860   0.741  17.326 -0.8583  1.3149  0.8885
11571TIP3    H256129   5.998   0.804  17.324  0.3432 -1.1749 -0.9913
11572TIP3   OH256130   5.591   6.427   1.949 -0.0054  0.2182  0.5403
11572TIP3    H156131   5.658   6.484   1.911  3.1189 -3.1021  0.4983
11572TIP3    H256132   5.547   6.388   1.874 -0.8498  1.1293  0.5477
11573TIP3   OH256133   5.095   1.350  12.175 -0.7041 -0.3889 -0.2265
11573TIP3    H156134   5.160   1.399  12.123 -0.3186 -0.1205  0.4953
11573TIP3    H256135   5.018   1.345  12.118  0.5875 -2.4678 -1.9331
11574TIP3   OH256136   6.085   4.656  12.550 -0.3806 -0.1227 -0.0340
11574TIP3    H156137   6.115   4.736  12.591 -0.7965  0.2322 -0.4138
11574TIP3    H256138   6.029   4.614  12.616 -1.3047  0.6020 -0.3333
11575TIP3   OH256139   4.906   4.129   0.016  0.4707 -0.0430  0.1300
11575TIP3    H156140   4.945   4.184   0.084  1.0930  0.0262 -0.2729
11575TIP3    H256141   4.946   4.043   0.028 -0.0396 -0.2564  0.3676
11576TIP3   OH256142   6.501   1.922  12.868 -0.0455  0.1432 -0.5824
11576TIP3    H156143   6.543   1.835  12.868 -0.1910  0.0606  0.4608
11576TIP3    H256144   6.470   1.933  12.778 -0.3285 -1.0404 -0.6500
11577TIP3   OH256145   1.259   0.497   2.206  0.0959 -0.2101 -0.1752
11577TIP3    H156146   1.183   0.445   2.178  0.3502 -0.5880 -0.1744
11577TIP3    H256147   1.251   0.580   2.158  0.6098 -0.8955 -1.5061
11578TIP3   OH256148   6.295   3.832  15.959  0.2154 -0.1993  0.5912
11578TIP3    H156149   6.370   3.870  16.005  0.7494  0.8845 -1.0664
11578TIP3    H256150   6.270   3.899  15.896 -1.6159 -0.9150  0.5148
11579TIP3   OH256151   5.756   3.614  11.484 -0.0527 -0.4136 -0.9222
11579TIP3    H156152   5.669   3.618  11.445 -1.1098  2.8643  1.3098
11579TIP3    H256153   5.801   3.692  11.450  1.9065 -1.7558 -1.6184
11580TIP3   OH256154   5.312   4.288   0.800  0.0558  0.1055 -0.4060
11580TIP3    H156155   5.401   4.258   0.782 -0.2400 -0.7945 -0.4105
11580TIP3    H256156   5.256   4.215   0.775 -0.6252  0.3143  0.4538
11581TIP3   OH256157   6.104   1.019  14.168  0.3752 -0.2160 -0.6365
11581TIP3    H156158   6.185   1.046  14.212 -0.1598 -1.8815  1.5572
11581TIP3    H256159   6.128   0.940  14.120  0.1652 -0.4491 -0.3599
11582TIP3   OH256160   3.741   1.680   3.391 -0.1543 -0.1781 -0.3410
11582TIP3    H156161   3.823   1.660   3.346  1.0474  1.2768  1.0965
11582TIP3    H256162   3.731   1.609   3.455  0.9130  0.5488  0.6518
11583TIP3   OH256163   4.914   2.527  12.956  0.5205 -0.0046 -0.5092
11583TIP3    H156164   4.993   2.527  13.009  0.6557  0.0127 -0.7086
11583TIP3    H256165   4.852   2.471  13.004  0.8526 -0.4976 -0.6522
11584TIP3   OH256166   0.288   2.928  16.101 -1.0855  0.0555  0.3220
11584TIP3    H156167   0.202   2.965  16.123 -1.3611  0.3410 -1.1255
11584TIP3    H256168   0.350   2.993  16.132 -1.3383 -0.4765  2.0152
11585TIP3   OH256169   4.370   4.443  13.159  0.5439  0.1706 -0.0137
11585TIP3    H156170   4.454   4.461  13.117 -0.1335 -0.6150 -1.8340
11585TIP3    H256171   4.387   4.368  13.216  1.1978  0.3544  0.0379
11586TIP3   OH256172   6.694   5.826   5.956 -0.4351 -0.6901 -0.5222
11586TIP3    H156173   6.675   5.832   6.050  2.6667  2.5151  0.1234
11586TIP3    H256174   6.608   5.824   5.914 -1.9466 -0.2289  2.3068
11587TIP3   OH256175   3.276   4.874  16.857  0.1731  0.1700  0.0711
11587TIP3    H156176   3.267   4.863  16.763 -1.4811  2.3238 -0.1046
11587TIP3    H256177   3.360   4.920  16.868 -0.3066  1.2313 -0.5271
11588TIP3   OH256178   1.328   3.670   5.246 -0.0880  0.4940 -0.1042
11588TIP3    H156179   1.279   3.634   5.172  1.2336 -2.9903  0.5209
11588TIP3    H256180   1.261   3.709   5.303 -1.6243 -0.5144 -1.1498
11589TIP3   OH256181   2.216   1.873   2.269 -0.2991  0.1594 -0.1782
11589TIP3    H156182   2.216   1.948   2.329  0.5693 -0.3165  0.4384
11589TIP3    H256183   2.185   1.909   2.186 -1.0605  0.9368  0.4234
11590TIP3   OH256184   5.685   0.796   5.124 -0.1110 -0.2151  0.7371
11590TIP3    H156185   5.607   0.756   5.164 -1.3626  2.3816  1.1531
11590TIP3    H256186   5.650   0.845   5.049  1.5411 -1.0446 -0.6290
11591TIP3   OH256187   5.643   3.023   3.275 -0.4146  0.3385 -0.1606
11591TIP3    H156188   5.630   2.988   3.363 -1.2717 -0.5784 -0.6349
11591TIP3    H256189   5.570   3.084   3.262 -1.9064 -1.5625 -1.2108
11592TIP3   OH256190   6.695   2.945  15.342  0.3809 -0.1731 -0.1614
11592TIP3    H156191   6.678   2.867  15.395  0.8636 -0.7402 -0.8240
11592TIP3    H256192   6.621   2.950  15.281 -0.0980  0.3947  0.4488
11593TIP3   OH256193   1.548   3.339   0.685 -0.1499 -0.4155 -0.0666
11593TIP3    H156194   1.478   3.295   0.733  1.4539 -2.5271  0.4977
11593TIP3    H256195   1.525   3.328   0.593  0.0653 -2.2663  0.0723
11594TIP3   OH256196   4.329   0.185  15.076  0.3427  0.5240 -0.1380
11594TIP3    H156197   4.330   0.177  14.980  0.3074  0.3311 -0.1242
11594TIP3    H256198   4.414   0.151  15.103  0.8806  1.7857 -0.1807
11595TIP3   OH256199   3.069   1.347   5.925 -0.5654 -0.0935  0.2529
11595TIP3    H156200   3.020   1.302   5.856 -1.3915  0.4780  0.4564
11595TIP3    H256201   3.161   1.328   5.905 -0.7816  0.1856 -1.0783
11596TIP3   OH256202   2.841   5.786  11.347  0.5492 -0.2844  1.2128
11596TIP3    H156203   2.927   5.752  11.321  0.2646 -0.8329  0.9763
11596TIP3    H256204   2.829   5.865  11.294 -0.4312 -1.8677 -1.0735
11597TIP3   OH256205   0.187   0.402  12.482 -0.9008  0.5817  0.0790
11597TIP3    H156206   0.188   0.311  12.511  1.2371  0.8959  1.2041
11597TIP3    H256207   0.166   0.452  12.560 -0.0142  1.1468 -0.0317
11598TIP3   OH256208   3.700   6.638   2.425  0.6056 -0.1368 -0.3245
11598TIP3    H156209   3.617   6.661   2.383 -0.5900 -1.5873  1.1197
11598TIP3    H256210   3.725   6.554   2.386  0.3765 -0.6447  0.5833
11599TIP3   OH256211   3.808   0.003   4.285 -0.0600 -0.2886  0.1033
11599TIP3    H156212   3.792  -0.055   4.359  1.5991  0.7032  1.2758
11599TIP3    H256213   3.875  -0.042   4.233 -2.0551 -1.5650 -1.5551
11600TIP3   OH256214   2.950   1.340   4.220 -0.1147 -0.0004  0.2671
11600TIP3    H156215   2.919   1.289   4.294 -0.1481 -0.2054  0.1112
11600TIP3    H256216   3.032   1.380   4.251  0.2251 -0.6224  0.1914
11601TIP3   OH256217   6.737   1.265   0.879  0.0589 -0.3313  0.0849
11601TIP3    H156218   6.826   1.249   0.848  0.5661  1.6017  0.4103
11601TIP3    H256219   6.747   1.277   0.974 -0.3268  1.1856 -0.0444
11602TIP3   OH256220   5.858   3.923   2.144  0.0908  0.4771 -0.4522
11602TIP3    H156221   5.934   3.962   2.185 -0.2759  2.7443 -1.7836
11602TIP3    H256222   5.784   3.976   2.175 -0.5397  0.3279 -1.6397
11603TIP3   OH256223   0.705   1.075  11.975  0.3308 -0.0667 -0.0723
11603TIP3    H156224   0.783   1.126  11.954 -0.1198  1.0748  0.8735
11603TIP3    H256225   0.636   1.114  11.921  0.4139 -1.1468 -0.9922
11604TIP3   OH256226   1.340   1.282   0.840 -0.1162 -0.0345  0.6418
11604TIP3    H156227   1.324   1.363   0.792 -1.2965 -0.9748 -0.6275
11604TIP3    H256228   1.330   1.306   0.932 -3.5557  0.6820  0.2033
11605TIP3   OH256229   4.647   3.091   4.810  0.1485 -0.1143  0.4801
11605TIP3    H156230   4.707   3.067   4.880  2.5163  0.0153 -1.3597
11605TIP3    H256231   4.599   3.010   4.790  1.2148 -0.8020  0.6380
11606TIP3   OH256232   1.512   0.239   4.400 -0.3444  0.1217  1.2914
11606TIP3    H156233   1.521   0.334   4.409 -0.9717  0.3704 -0.3483
11606TIP3    H256234   1.430   0.227   4.352 -0.0473 -1.2251  1.0829
11607TIP3   OH256235   4.068   3.329  12.637  0.0693  0.2884  0.1705
11607TIP3    H156236   4.089   3.361  12.550 -1.0141 -0.5782 -0.4333
11607TIP3    H256237   4.052   3.408  12.689  0.6059  0.8017 -0.4356
11608TIP3   OH256238   6.613   5.731   1.624  0.4532  0.0984 -0.1328
11608TIP3    H156239   6.697   5.732   1.576 -0.5567  1.2111 -1.9941
11608TIP3    H256240   6.566   5.655   1.588  0.0966  0.3208 -0.1365
11609TIP3   OH256241   0.627   3.840  14.047 -0.4712 -0.2615 -0.0405
11609TIP3    H156242   0.592   3.751  14.041  0.4133 -0.6620  0.4612
11609TIP3    H256243   0.618   3.863  14.140  0.4216 -0.3133  0.0657
11610TIP3   OH256244   4.051   2.513  11.036 -0.1954  0.1044  0.1405
11610TIP3    H156245   4.045   2.608  11.037 -0.4574  0.1131 -1.0195
11610TIP3    H256246   4.140   2.494  11.065  0.0178  0.7244 -0.0968
11611TIP3   OH256247   5.575   1.475  12.472  0.4399 -0.0307  0.5013
11611TIP3    H156248   5.638   1.537  12.507  1.6779 -0.1915 -1.3023
11611TIP3    H256249   5.625   1.395  12.458 -1.1623 -1.5544  2.9110
11612TIP3   OH256250   0.215   4.613   4.034  0.3453 -0.5427 -0.2736
11612TIP3    H156251   0.225   4.706   4.056  0.1568 -0.4911 -0.4011
11612TIP3    H256252   0.254   4.566   4.108 -1.1132 -0.3872  0.6145
11613TIP3   OH256253   4.678   5.324   5.524  0.6252  0.1644  0.1846
11613TIP3    H156254   4.740   5.329   5.452 -1.6550  1.4495 -1.8518
11613TIP3    H256255   4.653   5.231   5.528  0.0477  0.2143 -1.4241
11614TIP3   OH256256   3.830   1.972  15.264  0.1858 -0.2404 -0.1450
11614TIP3    H156257   3.819   1.953  15.170  1.7551 -0.4106 -0.3179
11614TIP3    H256258   3.822   1.887  15.307  0.2804 -0.2789 -0.2038
11615TIP3   OH256259   5.302   0.981  11.990  0.2515  1.0975  0.1628
11615TIP3    H156260   5.241   0.935  11.933  1.7124 -2.6540  1.2937
11615TIP3    H256261   5.249   1.010  12.064 -0.7127  0.8013 -0.4017
11616TIP3   OH256262   6.779   3.848  14.192  0.2743 -0.1218 -0.8154
11616TIP3    H156263   6.735   3.803  14.120  0.0540  0.1751 -0.8708
11616TIP3    H256264   6.852   3.791  14.216 -1.3056 -1.6513  0.6231
11617TIP3   OH256265   2.476   2.450  17.118 -0.3738 -0.2489 -0.7258
11617TIP3    H156266   2.486   2.355  17.113  0.7821 -0.2057  0.1938
11617TIP3    H256267   2.468   2.478  17.027 -0.7683 -1.2176 -1.0082
11618TIP3   OH256268   2.942   3.459   1.019 -0.0334  0.0262 -0.4883
11618TIP3    H156269   2.850   3.469   0.993 -0.1149 -1.2073 -0.7513
11618TIP3    H256270   2.986   3.430   0.939  0.8494  1.8114 -0.6933
11619TIP3   OH256271   5.283   0.990   5.826 -0.2476  0.2263 -0.7628
11619TIP3    H156272   5.217   1.019   5.889  0.5090  0.9506 -0.2746
11619TIP3    H256273   5.363   0.981   5.877 -0.0139 -0.9099 -1.2921
11620TIP3   OH256274   2.743   6.121  12.411  0.1255 -0.1428  0.1897
11620TIP3    H156275   2.749   6.186  12.341  1.4121 -0.1572  0.2643
11620TIP3    H256276   2.800   6.050  12.382  1.2513  0.1719  1.5808
11621TIP3   OH256277   4.639   1.073  12.998 -0.1156  0.5676 -0.1088
11621TIP3    H156278   4.692   0.993  12.993 -2.4613 -1.1908  0.9449
11621TIP3    H256279   4.550   1.041  13.013 -1.1530  3.4256  0.4085
11622TIP3   OH256280   4.458   6.367  17.035  0.2479  0.1538  0.8028
11622TIP3    H156281   4.444   6.452  17.077  0.5237  0.5645  0.0896
11622TIP3    H256282   4.477   6.389  16.943  0.2692 -0.6813  0.6013
11623TIP3   OH256283   6.504   3.262  14.712  0.1237  0.0492  0.2679
11623TIP3    H156284   6.425   3.231  14.668 -0.1030  0.0885  0.6434
11623TIP3    H256285   6.573   3.253  14.647 -0.8112  3.5992 -1.4505
11624TIP3   OH256286   6.042   0.973  12.220 -0.4525 -0.3337 -0.2292
11624TIP3    H156287   6.031   0.904  12.286 -0.5278 -0.4436 -0.3570
11624TIP3    H256288   6.137   0.980  12.207 -0.3718  0.3374  0.5781
11625TIP3   OH256289   1.203   5.960  17.328  0.5762  0.0903  0.3225
11625TIP3    H156290   1.223   6.037  17.274  1.4749  0.2659  0.8929
11625TIP3    H256291   1.248   5.888  17.285 -2.3700 -0.7210 -1.7390
11626TIP3   OH256292   1.329   5.191  13.229 -0.0021 -0.0720 -0.4036
11626TIP3    H156293   1.261   5.175  13.164 -1.3930  1.6417  0.5379
11626TIP3    H256294   1.338   5.287  13.232  1.6796 -0.1994  0.2938
11627TIP3   OH256295   1.745   5.308   3.485 -0.2529 -0.2069  0.0614
11627TIP3    H156296   1.709   5.386   3.526  0.3993  0.0397  0.1807
11627TIP3    H256297   1.718   5.314   3.394 -1.3051 -0.5140  0.3403
11628TIP3   OH256298   2.079   5.398   0.521  0.1385  0.2148 -0.7931
11628TIP3    H156299   2.010   5.412   0.456  0.3239  0.5989 -0.9110
11628TIP3    H256300   2.034   5.357   0.595 -0.0969 -0.1136 -1.1123
11629TIP3   OH256301   6.321   1.595  12.551 -0.1411 -0.0608 -0.2515
11629TIP3    H156302   6.365   1.575  12.468  1.7553  0.3459  0.6019
11629TIP3    H256303   6.248   1.533  12.555  2.1013 -2.8725 -0.3777
11630TIP3   OH256304   2.899   6.617   4.555 -0.0455  0.1834  0.0388
11630TIP3    H156305   2.941   6.658   4.631 -0.3017  0.7565 -0.1280
11630TIP3    H256306   2.960   6.632   4.483 -0.4144  0.7902 -0.1490
11631TIP3   OH256307   2.068   6.140   5.862 -0.4234 -0.4492  0.2331
11631TIP3    H156308   2.132   6.158   5.932 -0.2357  0.4971 -0.1573
11631TIP3    H256309   1.997   6.203   5.879 -1.2929 -1.5274  0.6944
11632TIP3   OH256310   2.150   3.003  11.407  0.5739 -0.0769 -0.3860
11632TIP3    H156311   2.162   3.054  11.487 -0.2473 -0.8419  0.2500
11632TIP3    H256312   2.221   2.939  11.407  0.6585  0.0174 -0.3391
11633TIP3   OH256313   4.012   0.563  10.482  0.0480 -0.3358  0.1097
11633TIP3    H156314   3.993   0.489  10.423 -0.7624 -2.0870  2.4030
11633TIP3    H256315   4.100   0.545  10.515  1.1374  1.4653 -1.6228
11634TIP3   OH256316   2.434   1.107   4.085 -0.2253 -0.1612  0.3534
11634TIP3    H156317   2.517   1.100   4.131 -1.0286  0.2590  1.9236
11634TIP3    H256318   2.373   1.055   4.138 -1.4699  1.3878  0.5107
11635TIP3   OH256319   3.865   5.497  15.397  0.0256 -0.5048  0.1546
11635TIP3    H156320   3.885   5.446  15.475  1.7084 -1.3933 -0.8012
11635TIP3    H256321   3.844   5.432  15.330 -1.8299  0.2583 -0.0683
11636TIP3   OH256322   2.966   6.743   2.417  0.0351  0.1236  0.8148
11636TIP3    H156323   3.020   6.813   2.454 -0.3604  0.1077  1.4394
11636TIP3    H256324   2.876   6.764   2.444 -0.7066  1.5727 -2.3565
11637TIP3   OH256325   0.021   5.295  15.806  0.0786 -0.4705 -0.5911
11637TIP3    H156326  -0.045   5.364  15.816  1.9680  1.3113  0.1484
11637TIP3    H256327   0.009   5.239  15.882 -0.5356 -0.1201 -0.4238
11638TIP3   OH256328   5.346   6.078   3.363 -0.6351 -0.3244  1.3736
11638TIP3    H156329   5.317   6.161   3.326  0.4467  0.0679  1.3602
11638TIP3    H256330   5.442   6.082   3.358 -0.4924 -0.7734  3.0920
11639TIP3   OH256331   4.003   1.072   6.156  0.0568  0.2880 -0.3103
11639TIP3    H156332   3.986   1.016   6.232  3.0071 -0.6648 -0.2173
11639TIP3    H256333   4.019   1.159   6.194  1.9164 -0.2606  0.3100
11640TIP3   OH256334   1.194   2.201   5.252 -0.3310 -0.4783 -0.1502
11640TIP3    H156335   1.279   2.168   5.283  1.3277  3.5008  0.2715
11640TIP3    H256336   1.158   2.131   5.198  0.7475 -4.3772  3.6783
11641TIP3   OH256337   0.631   1.276  14.338 -0.2802  0.1958  0.2044
11641TIP3    H156338   0.617   1.365  14.306  1.7410  0.6416  0.4300
11641TIP3    H256339   0.706   1.283  14.396  0.6425 -1.8422 -0.6424
11642TIP3   OH256340   6.451   3.419  15.282 -0.1840 -0.4365  0.1443
11642TIP3    H156341   6.370   3.408  15.332  0.6296 -2.0851  1.1944
11642TIP3    H256342   6.474   3.330  15.254  2.1431 -0.2912  1.3515
11643TIP3   OH256343   2.198   6.121   5.297  0.4068 -0.5693 -0.1833
11643TIP3    H156344   2.110   6.156   5.311  0.9008  0.8476 -0.4814
11643TIP3    H256345   2.223   6.085   5.382 -0.5498 -1.2249 -0.1652
11644TIP3   OH256346   4.199   3.522  10.664 -0.0545 -0.1774  0.1501
11644TIP3    H156347   4.291   3.547  10.674 -0.2608  0.5796  0.1880
11644TIP3    H256348   4.177   3.481  10.748  0.0827  0.1856  0.3667
11645TIP3   OH256349   5.169   6.295  17.228 -0.7049  0.1494 -0.8521
11645TIP3    H156350   5.182   6.242  17.150 -1.4480 -0.5290 -0.5242
11645TIP3    H256351   5.085   6.267  17.263 -0.3913  0.4535  0.1869
11646TIP3   OH256352   3.910   2.386  14.994 -0.0143 -0.0211 -0.3696
11646TIP3    H156353   3.869   2.453  14.940  0.2826 -0.6375 -1.3801
11646TIP3    H256354   3.896   2.304  14.946 -1.9388 -1.0177  1.6651
11647TIP3   OH256355   6.125   5.848  11.318 -0.4230 -0.2630 -0.0206
11647TIP3    H156356   6.102   5.833  11.409  1.0297 -1.1966  0.2258
11647TIP3    H256357   6.162   5.765  11.288  1.0845  0.6472 -0.8251
11648TIP3   OH256358   4.296   5.851  11.369 -0.3950  0.1695 -0.0029
11648TIP3    H156359   4.363   5.906  11.411  0.7429 -1.2681  0.1243
11648TIP3    H256360   4.235   5.830  11.439  0.7754 -1.1256  0.6601
11649TIP3   OH256361   2.465   1.917   3.731  0.1593  0.1390  0.1901
11649TIP3    H156362   2.514   1.837   3.749  0.0860 -0.4769 -2.0332
11649TIP3    H256363   2.375   1.896   3.757  0.5122  0.2626  1.5677
11650TIP3   OH256364   5.832   2.672  14.057  0.4731  0.4022  0.1626
11650TIP3    H156365   5.836   2.753  14.007 -0.8682 -1.2211 -2.8476
11650TIP3    H256366   5.743   2.670  14.093  0.9738  0.8841  1.4971
11651TIP3   OH256367   4.301   2.788  16.199  0.7828  0.0655 -0.2346
11651TIP3    H156368   4.350   2.851  16.252  0.9386 -1.1086  1.0926
11651TIP3    H256369   4.228   2.838  16.164 -0.8607  0.3983  3.2670
11652TIP3   OH256370   2.195   2.755  14.660  0.3529  0.0712 -0.0174
11652TIP3    H156371   2.269   2.696  14.643  1.2004  0.8481  0.8222
11652TIP3    H256372   2.168   2.733  14.750  1.0902  1.3511  0.5478
11653TIP3   OH256373   0.472   0.617   5.406 -0.2997 -0.2001 -0.1333
11653TIP3    H156374   0.459   0.664   5.324  1.7415  0.4255 -0.1546
11653TIP3    H256375   0.556   0.572   5.395  0.8505  1.2111  2.1587
11654TIP3   OH256376   4.129   6.092   5.935 -0.0176 -0.0715  0.1177
11654TIP3    H156377   4.098   6.130   5.852  1.8575  1.1689 -0.0758
11654TIP3    H256378   4.154   6.168   5.988 -0.3374 -0.8964  1.4656
11655TIP3   OH256379   6.492   1.980   0.465  0.8396  0.1287  0.1808
11655TIP3    H156380   6.460   1.914   0.527 -2.8504  1.4567 -0.0767
11655TIP3    H256381   6.522   2.052   0.520 -0.3780  0.4191  0.4972
11656TIP3   OH256382   4.785   3.942  12.527 -0.3757  0.5773 -0.4385
11656TIP3    H156383   4.765   3.965  12.618  0.2373 -2.0923  0.4617
11656TIP3    H256384   4.704   3.958  12.480 -0.7277  1.9481  0.5757
11657TIP3   OH256385   4.810   3.391  15.979 -0.0724  0.2613  0.3022
11657TIP3    H156386   4.761   3.431  16.051 -2.2459  1.0653 -1.5186
11657TIP3    H256387   4.756   3.405  15.902  1.8962 -1.0696 -1.4406
11658TIP3   OH256388   3.971   4.927   1.092 -0.0519 -0.3467 -0.9363
11658TIP3    H156389   4.060   4.962   1.088  0.1894 -0.5938  1.0266
11658TIP3    H256390   3.920   4.983   1.033  1.1284  0.7007 -0.9977
11659TIP3   OH256391   2.481   4.407  15.387  0.3589  0.2856 -0.0393
11659TIP3    H156392   2.420   4.427  15.459 -0.9094  1.3864 -1.3541
11659TIP3    H256393   2.539   4.339  15.423 -2.5915 -1.9990  0.8228
11660TIP3   OH256394   0.795   4.452  15.788  0.2304 -0.1185  0.2253
11660TIP3    H156395   0.785   4.522  15.852  2.2938  1.2734 -0.8404
11660TIP3    H256396   0.749   4.483  15.710 -0.0525 -0.6033  0.1940
11661TIP3   OH256397   1.267   3.339  16.676 -0.0344  0.5703 -0.1269
11661TIP3    H156398   1.299   3.366  16.763 -2.9103  0.3090  1.1140
11661TIP3    H256399   1.272   3.243  16.678 -1.4172  0.4931  0.3369
11662TIP3   OH256400   5.802   2.229   3.654  0.0390 -0.1765  0.3748
11662TIP3    H156401   5.763   2.154   3.609 -2.4121  2.0935 -1.6080
11662TIP3    H256402   5.891   2.235   3.619 -0.8666 -0.1818 -2.0707
11663TIP3   OH256403   6.245   5.858   1.620  0.1209 -0.5420  0.2669
11663TIP3    H156404   6.329   5.892   1.588 -0.8948 -0.3091 -2.3991
11663TIP3    H256405   6.269   5.788   1.680  2.2509 -1.1714 -1.2070
11664TIP3   OH256406   3.713   0.293  13.761  0.4921 -0.6031 -0.3012
11664TIP3    H156407   3.755   0.208  13.746 -0.1334 -1.0918  0.6384
11664TIP3    H256408   3.732   0.343  13.681 -0.7105 -2.2786 -1.7296
11665TIP3   OH256409   0.284   5.671   4.398  0.4028  0.1307  0.1302
11665TIP3    H156410   0.227   5.724   4.341 -0.9766 -1.0617  0.3233
11665TIP3    H256411   0.285   5.584   4.356  1.1574 -0.1733  0.7598
11666TIP3   OH256412   6.464   4.402   5.540 -0.3513  0.1596  0.3518
11666TIP3    H156413   6.424   4.321   5.507 -0.8934  0.6155 -0.1470
11666TIP3    H256414   6.538   4.417   5.482 -1.5890  1.2233 -1.0607
11667TIP3   OH256415   4.523   0.132  17.314 -0.5703  0.5050 -0.0286
11667TIP3    H156416   4.477   0.049  17.297 -1.2327  0.8331  0.1121
11667TIP3    H256417   4.458   0.199  17.293 -0.3307  0.9665  0.6838
11668TIP3   OH256418   5.781   3.585  11.783 -0.7105 -0.0095 -0.4010
11668TIP3    H156419   5.784   3.492  11.803 -0.7341 -0.2221 -1.3466
11668TIP3    H256420   5.763   3.589  11.689  0.2587  0.9338 -0.5690
11669TIP3   OH256421   2.357   0.658   2.582 -0.2874 -0.6097  0.2838
11669TIP3    H156422   2.356   0.701   2.496 -1.4015 -0.7294  0.2241
11669TIP3    H256423   2.289   0.591   2.576  0.9785 -1.9660  0.5919
11670TIP3   OH256424   1.383   6.577  15.709 -0.3439 -0.8278  0.3315
11670TIP3    H156425   1.474   6.589  15.739 -0.3678  0.5284 -0.0677
11670TIP3    H256426   1.346   6.514  15.770  0.3866 -0.1325  1.5428
11671TIP3   OH256427   1.369   0.819  14.932 -0.2149 -0.5083  0.5781
11671TIP3    H156428   1.399   0.730  14.915 -0.4177 -0.7024  1.2203
11671TIP3    H256429   1.403   0.839  15.019 -0.3723 -0.0424  0.5356
11672TIP3   OH256430   2.625   2.936  14.988 -0.0677  0.3724  0.1974
11672TIP3    H156431   2.693   2.885  14.945 -0.8269 -0.9080  0.4627
11672TIP3    H256432   2.671   2.986  15.056  0.6597 -0.1767  0.1142
11673TIP3   OH256433   3.031   3.015  13.237 -0.2929  0.0355 -0.2304
11673TIP3    H156434   2.963   2.948  13.228 -0.5025 -0.2033  2.3726
11673TIP3    H256435   3.092   2.998  13.166  0.1202 -3.4950  0.8172
11674TIP3   OH256436   5.323   4.007   5.175 -0.0847 -0.1984  0.3891
11674TIP3    H156437   5.368   3.932   5.215  2.6479  1.6891  1.1513
11674TIP3    H256438   5.313   3.982   5.083 -2.2518 -2.7356  1.1731
11675TIP3   OH256439   2.647   5.611  13.201  0.3674  0.5231  0.4240
11675TIP3    H156440   2.579   5.587  13.264  0.8303 -0.1948  0.6634
11675TIP3    H256441   2.646   5.707  13.199 -2.1517  0.5623 -1.2259
11676TIP3   OH256442   2.124   3.192  13.940 -0.1167 -0.1191 -0.1328
11676TIP3    H156443   2.157   3.236  14.018 -1.6958  1.3718 -0.2345
11676TIP3    H256444   2.052   3.137  13.972 -2.4422  2.3719 -0.7115
11677TIP3   OH256445   2.566   4.108  16.944  1.0552 -0.1160  0.1157
11677TIP3    H156446   2.549   4.050  16.870 -0.7076  0.4835  0.0179
11677TIP3    H256447   2.536   4.058  17.020  1.7200 -0.2389  0.3063
11678TIP3   OH256448   4.003   5.253  16.127 -0.0378 -0.5328 -0.5609
11678TIP3    H156449   4.011   5.318  16.197  1.7380 -1.6854  0.4068
11678TIP3    H256450   3.909   5.237  16.120 -0.2652 -0.6047  1.8251
11679TIP3   OH256451   2.614   1.979  11.812 -0.4654  0.7150  0.1227
11679TIP3    H156452   2.638   1.949  11.724  0.3163  0.8642  0.2789
11679TIP3    H256453   2.674   1.934  11.870 -0.0680  1.6594  0.4641
11680TIP3   OH256454   6.137   3.981   1.384 -0.3391 -0.0583  0.0484
11680TIP3    H156455   6.045   3.956   1.377 -0.0348 -0.9838 -0.8747
11680TIP3    H256456   6.185   3.909   1.344  0.6630  1.2957 -1.3492
11681TIP3   OH256457   5.435   2.064  12.076 -0.2780 -0.2985  0.0528
11681TIP3    H156458   5.428   2.145  12.127 -0.1722  0.8887 -1.7354
11681TIP3    H256459   5.380   2.002  12.124  0.6832  0.4005  2.1987
11682TIP3   OH256460   2.841   0.942   4.632  0.0160  0.2141  0.6694
11682TIP3    H156461   2.817   0.923   4.542 -0.9819 -0.5678  1.0822
11682TIP3    H256462   2.925   0.988   4.625 -1.1279  2.2029 -0.7694
11683TIP3   OH256463   4.419   0.449   3.282 -0.4406 -0.2059 -0.6817
11683TIP3    H156464   4.340   0.473   3.232 -0.2555  1.4223 -0.2526
11683TIP3    H256465   4.426   0.354   3.271 -3.6919 -0.7862  1.0444
11684TIP3   OH256466   5.310   3.686  16.017  0.3576  0.1440  0.4218
11684TIP3    H156467   5.224   3.650  16.042 -0.1694  0.5727 -0.7260
11684TIP3    H256468   5.292   3.740  15.940  1.8886 -0.9433 -0.7582
11685TIP3   OH256469   2.688   0.389   3.575  0.6099 -0.0659 -0.0463
11685TIP3    H156470   2.612   0.447   3.577  0.4477 -0.2226 -1.0175
11685TIP3    H256471   2.742   0.417   3.649 -0.4135  0.0115  0.6915
11686TIP3   OH256472   2.557   1.957  16.381  0.1835  0.4587 -0.4025
11686TIP3    H156473   2.604   1.930  16.461 -1.1492 -0.0738  0.2292
11686TIP3    H256474   2.487   2.014  16.412  0.9380  2.0128 -1.4302
11687TIP3   OH256475   5.906   0.393   2.083  0.5411  0.2853 -0.0332
11687TIP3    H156476   5.976   0.358   2.137  0.9578 -0.7991 -1.2219
11687TIP3    H256477   5.937   0.382   1.993 -1.0609 -0.0708 -0.5819
11688TIP3   OH256478   5.645   6.704  16.284  0.1848  0.2350 -0.3903
11688TIP3    H156479   5.578   6.650  16.242  0.8805 -0.4812 -0.6118
11688TIP3    H256480   5.708   6.723  16.214  0.0188  1.2353 -0.2820
11689TIP3   OH256481   3.948   6.375   1.888  0.3827 -0.8101 -0.6133
11689TIP3    H156482   3.937   6.298   1.943  1.4286 -1.6094 -1.4883
11689TIP3    H256483   3.869   6.428   1.904 -0.2615 -1.9664  0.1331
11690TIP3   OH256484   0.406   1.040   4.729 -0.3108  0.6460  0.2543
11690TIP3    H156485   0.414   1.135   4.736  1.9944  0.7507 -2.2972
11690TIP3    H256486   0.354   1.026   4.650 -1.0821 -0.2474  0.8969
11691TIP3   OH256487   0.829   4.011  10.903  0.1034 -0.6238  0.1040
11691TIP3    H156488   0.822   4.057  10.986  0.7488 -1.5852  0.7188
11691TIP3    H256489   0.828   3.918  10.927 -0.7730 -0.9335 -1.0549
11692TIP3   OH256490   4.368   1.159  13.001 -0.2983  0.1849  0.0656
11692TIP3    H156491   4.302   1.191  13.063 -0.6822 -0.4158 -0.0231
11692TIP3    H256492   4.319   1.133  12.924 -0.0270 -0.7663  0.1968
11693TIP3   OH256493   0.460   0.662   0.327 -0.3324 -0.2592  0.7096
11693TIP3    H156494   0.389   0.726   0.321 -0.8414 -0.6644  2.0060
11693TIP3    H256495   0.451   0.609   0.249  0.4277  1.5551 -0.6802
11694TIP3   OH256496   5.354   4.946   5.189  0.0622  0.0272  0.2373
11694TIP3    H156497   5.322   4.863   5.153  0.0922 -0.4025  1.1553
11694TIP3    H256498   5.446   4.949   5.164  0.1635 -0.4203  0.5429
11695TIP3   OH256499   0.292   2.063   5.197  0.1084  0.4176  0.1175
11695TIP3    H156500   0.223   2.081   5.261  1.7416  0.6346  1.9074
11695TIP3    H256501   0.306   2.147   5.153 -0.4159  0.4969  0.0947
11696TIP3   OH256502   1.451   3.951  12.595 -0.6254 -0.2146 -0.5144
11696TIP3    H156503   1.494   3.896  12.530 -1.9939 -0.3577 -1.3391
11696TIP3    H256504   1.506   4.029  12.600  0.5033 -0.9938 -0.4542
11697TIP3   OH256505   5.372   1.919   2.821  0.2448 -0.5706 -0.0957
11697TIP3    H156506   5.298   1.862   2.842  0.3960 -0.7197  0.0451
11697TIP3    H256507   5.410   1.941   2.906  0.9425 -1.2819 -0.2117
11698TIP3   OH256508   3.759   6.004  16.800  0.2972  0.0509  0.4937
11698TIP3    H156509   3.782   5.919  16.837 -0.0257 -0.3086 -0.1053
11698TIP3    H256510   3.816   6.012  16.723 -2.6240 -1.6253 -2.0286
11699TIP3   OH256511   2.119   3.712   5.619  0.5538 -0.4657  0.5759
11699TIP3    H156512   2.054   3.709   5.549 -0.3928 -0.6998  1.4371
11699TIP3    H256513   2.185   3.774   5.588 -0.3630  0.2039 -0.0969
11700TIP3   OH256514   3.769   6.720  13.929 -0.2501 -0.4419  0.4112
11700TIP3    H156515   3.786   6.758  14.015  1.0165 -0.5433  0.2192
11700TIP3    H256516   3.793   6.628  13.938 -1.0550 -0.6767  0.2172
11701TIP3   OH256517   0.783   5.782   0.822  0.0123 -0.0780 -0.3518
11701TIP3    H156518   0.757   5.734   0.744  0.5367 -1.0400  0.0518
11701TIP3    H256519   0.712   5.765   0.885  0.1073 -0.1766 -0.2706
11702TIP3   OH256520   3.174   6.283  14.881  0.0822 -0.5731  0.2644
11702TIP3    H156521   3.233   6.211  14.858  2.7835  2.0443 -1.7403
11702TIP3    H256522   3.204   6.313  14.966 -0.0871 -0.8848  0.4351
11703TIP3   OH256523   0.597   2.782  15.868  0.9087 -0.0999 -0.0214
11703TIP3    H156524   0.620   2.707  15.923 -0.7699 -0.3318  0.4169
11703TIP3    H256525   0.632   2.858  15.916 -0.5547 -0.2934  1.4460
11704TIP3   OH256526   5.165   2.863   3.985  0.5184  0.4756 -0.5233
11704TIP3    H156527   5.137   2.885   4.073  0.5963 -1.0639 -0.0874
11704TIP3    H256528   5.254   2.899   3.978  1.0483 -0.5746  0.5361
11705TIP3   OH256529   1.757   3.884   1.511  0.3994 -0.5094 -0.8072
11705TIP3    H156530   1.827   3.852   1.454 -0.2115 -1.8675 -0.8300
11705TIP3    H256531   1.802   3.915   1.590  1.0506 -1.0245 -0.9719
11706TIP3   OH256532   2.792   1.626   4.153 -0.0487  0.5818  0.0310
11706TIP3    H156533   2.839   1.543   4.145 -1.9143 -0.4202 -1.2291
11706TIP3    H256534   2.834   1.670   4.227  2.3041 -0.5659 -0.5219
11707TIP3   OH256535   2.962   0.736   3.178  0.9191  0.2396  0.2123
11707TIP3    H156536   3.020   0.804   3.212  0.1617  0.5077  1.0105
11707TIP3    H256537   2.969   0.665   3.242  0.6820  0.1106  0.0946
11708TIP3   OH256538   4.460   1.189   4.750  0.6605 -0.1463 -0.7186
11708TIP3    H156539   4.417   1.260   4.703 -0.9694 -1.0611 -0.6682
11708TIP3    H256540   4.453   1.213   4.842  0.1707 -0.3385 -0.7057
11709TIP3   OH256541   3.602   5.704   0.103 -0.1687  0.0123 -0.4020
11709TIP3    H156542   3.653   5.723   0.025  0.1949  0.5640 -0.0367
11709TIP3    H256543   3.531   5.648   0.072  0.9196 -1.1756 -0.8382
11710TIP3   OH256544   2.165   1.033   5.455  0.2523 -0.2611  0.0536
11710TIP3    H156545   2.251   0.999   5.481  0.0972  0.6108  1.7611
11710TIP3    H256546   2.182   1.080   5.373  1.0772 -1.4968 -0.5218
11711TIP3   OH256547   0.929   5.841   4.673  0.5922 -0.6143  0.0698
11711TIP3    H156548   0.860   5.871   4.615  0.3411 -3.7111 -1.4441
11711TIP3    H256549   0.885   5.823   4.756  0.2019  0.2943  0.0620
11712TIP3   OH256550   4.795   3.487  12.929 -0.0726  0.3055 -0.5916
11712TIP3    H156551   4.750   3.568  12.905 -1.1332 -0.5946 -1.7117
11712TIP3    H256552   4.857   3.472  12.858  1.8807  1.3685  0.7853
11713TIP3   OH256553   1.536   0.207  14.956 -0.2615  0.0257 -0.1240
11713TIP3    H156554   1.591   0.162  14.892 -0.1011  2.0369 -1.4741
11713TIP3    H256555   1.461   0.238  14.906 -1.3994 -0.4881  1.1958
11714TIP3   OH256556   0.789   5.876  16.506  0.2913  0.2149 -0.3531
11714TIP3    H156557   0.741   5.958  16.504  0.8611  0.6485  1.8575
11714TIP3    H256558   0.793   5.851  16.598  0.7081 -1.9757 -0.8871
11715TIP3   OH256559   3.895   5.236   4.654 -0.1333  0.3279  0.3844
11715TIP3    H156560   3.843   5.227   4.574  0.0751  2.0433  0.0196
11715TIP3    H256561   3.831   5.234   4.724 -0.4762  0.3285  0.0764
11716TIP3   OH256562   5.525   1.945  14.977 -0.0090  0.7630  0.4178
11716TIP3    H156563   5.515   2.010  15.047  0.1061  0.6887  0.5044
11716TIP3    H256564   5.563   1.994  14.904 -1.0994  1.0700  0.0495
11717TIP3   OH256565   4.039   5.111   3.869 -0.2516 -0.1750  0.0804
11717TIP3    H156566   4.044   5.207   3.866 -1.6278 -0.0938 -0.7499
11717TIP3    H256567   4.057   5.084   3.779 -4.5430 -0.3312 -0.9385
11718TIP3   OH256568   5.623   5.423   5.098  0.6721  0.2992 -0.5024
11718TIP3    H156569   5.644   5.514   5.075  0.3002  0.2208 -1.1928
11718TIP3    H256570   5.537   5.408   5.058  0.2961 -0.0602  0.4275
11719TIP3   OH256571   0.053   1.000  15.857 -0.4320  0.3613 -0.1864
11719TIP3    H156572  -0.008   0.951  15.803 -0.4171  0.4215 -0.2568
11719TIP3    H256573  -0.002   1.046  15.921 -0.3961 -0.3901  0.4001
11720TIP3   OH256574   2.102   5.287  16.679  0.5900 -0.1740 -0.1083
11720TIP3    H156575   2.091   5.212  16.620  0.3611 -1.8414  1.9104
11720TIP3    H256576   2.022   5.338  16.668  0.0355 -1.0770 -0.4246
11721TIP3   OH256577   6.165   4.833  15.071  0.2273 -0.2114  0.8966
11721TIP3    H156578   6.102   4.905  15.066 -1.8299 -1.9936 -0.5506
11721TIP3    H256579   6.199   4.838  15.161 -1.4824  1.2129  1.5249
11722TIP3   OH256580   1.388   4.987  12.568  0.0211  0.4759 -0.1589
11722TIP3    H156581   1.352   5.010  12.482  1.0429 -0.9603 -1.0124
11722TIP3    H256582   1.481   5.007  12.561  0.2996 -0.6270  0.2413
11723TIP3   OH256583   3.312   6.554  16.736 -0.2286  0.5634  0.0483
11723TIP3    H156584   3.322   6.459  16.744 -0.6019  0.4922 -0.2625
11723TIP3    H256585   3.397   6.584  16.703 -0.0909  0.3428  0.1976
11724TIP3   OH256586   5.167   1.800  12.278 -0.1308  0.0868  0.0352
11724TIP3    H156587   5.248   1.774  12.232  0.2395 -0.0678  0.7523
11724TIP3    H256588   5.130   1.717  12.308 -0.7067  0.1345 -0.5084
11725TIP3   OH256589   6.290   4.915   6.269  0.6710  0.4092 -0.1703
11725TIP3    H156590   6.317   4.823   6.264 -1.7983 -0.3547 -0.7779
11725TIP3    H256591   6.285   4.934   6.362 -0.3527 -0.6129  0.0063
11726TIP3   OH256592   5.688   2.457   4.516  0.1660  0.9975 -0.0367
11726TIP3    H156593   5.640   2.473   4.435 -0.1297  0.5137  0.0397
11726TIP3    H256594   5.623   2.418   4.575 -0.1116  3.0074  1.0631
11727TIP3   OH256595   5.958   1.006  11.937 -0.2737  0.3714  0.1857
11727TIP3    H156596   5.953   0.961  12.021 -0.9575  1.0929  0.5421
11727TIP3    H256597   5.875   0.988  11.894 -1.1260  2.3460  0.8991
11728TIP3   OH256598   1.700   5.583   4.966 -0.6233 -0.8503  0.0472
11728TIP3    H156599   1.786   5.542   4.973 -0.9651 -1.5743  0.0506
11728TIP3    H256600   1.656   5.561   5.047 -1.6456 -2.4499 -0.8821
11729TIP3   OH256601   3.401   4.666   0.585  0.2445 -0.1266  0.0932
11729TIP3    H156602   3.473   4.691   0.527  3.2931 -2.2902  2.6161
11729TIP3    H256603   3.404   4.571   0.587  0.6108 -0.1647  4.0095
11730TIP3   OH256604   4.006   6.213  12.176  0.3262  0.6757  0.1782
11730TIP3    H156605   4.067   6.220  12.102 -0.4030 -1.8146 -0.7624
11730TIP3    H256606   3.940   6.280  12.158  1.7068  2.1079  0.1944
11731TIP3   OH256607   2.740   4.308   4.405 -0.4016 -0.0536  0.2045
11731TIP3    H156608   2.767   4.326   4.496  2.0310  0.0025 -0.4517
11731TIP3    H256609   2.765   4.387   4.357 -2.1311  0.1213 -0.4759
11732TIP3   OH256610   0.048   4.208   1.545 -0.3629  0.0280  0.3175
11732TIP3    H156611   0.047   4.252   1.460  0.5529  0.1487  0.3570
11732TIP3    H256612   0.096   4.126   1.529 -1.5891 -0.7236  0.3646
11733TIP3   OH256613   2.270   1.648   3.774 -0.5936  0.3794  0.0033
11733TIP3    H156614   2.218   1.641   3.694 -1.4595 -0.9472  0.6414
11733TIP3    H256615   2.241   1.575   3.828  0.1676  1.0783  1.4276
11734TIP3   OH256616   5.616   1.773  14.775  0.0345  0.8262  0.0864
11734TIP3    H156617   5.572   1.820  14.846  0.3334 -0.9809  1.5578
11734TIP3    H256618   5.709   1.796  14.784  0.0427  0.7702  0.1441
11735TIP3   OH256619   5.601   0.588  14.529  0.0089 -0.0343  0.2135
11735TIP3    H156620   5.509   0.583  14.503  0.0149 -0.5383  0.2650
11735TIP3    H256621   5.650   0.570  14.448  0.0240 -1.8337  0.5765
11736TIP3   OH256622   2.808   2.432  15.275  0.3090  0.3835  0.6777
11736TIP3    H156623   2.802   2.339  15.252  0.6020  0.3113  0.8931
11736TIP3    H256624   2.815   2.477  15.190  1.0232  0.1431  0.5997
11737TIP3   OH256625   5.763   5.950   4.644  0.2625 -0.4457  0.2914
11737TIP3    H156626   5.707   6.026   4.633 -0.1918 -0.3609  2.6530
11737TIP3    H256627   5.851   5.987   4.653  0.5049 -0.4613 -1.6795
11738TIP3   OH256628   5.315   2.004  11.308  0.5114  0.8094  0.1664
11738TIP3    H156629   5.297   2.091  11.343  1.3600  0.0226  2.8257
11738TIP3    H256630   5.233   1.957  11.316 -0.5076  1.7687 -3.0406
11739TIP3   OH256631   2.868   0.052  11.298 -0.2783 -0.0608 -0.4481
11739TIP3    H156632   2.863  -0.029  11.247 -0.0991  0.9555 -2.1773
11739TIP3    H256633   2.960   0.057  11.325 -0.4542 -0.7928  0.3131
11740TIP3   OH256634   1.816   4.357   4.831 -0.1073 -0.0883  0.4591
11740TIP3    H156635   1.903   4.323   4.848 -0.1435  0.3173  1.5522
11740TIP3    H256636   1.792   4.322   4.745  1.3350  0.2320 -0.0861
11741TIP3   OH256637   5.646   3.267   4.901 -0.0808 -0.4031 -0.3540
11741TIP3    H156638   5.629   3.179   4.934 -0.7792 -0.2310 -0.2571
11741TIP3    H256639   5.691   3.253   4.817 -1.6042 -0.8776 -1.1237
11742TIP3   OH256640   6.585   1.552   1.068  0.4930 -0.1216 -0.0999
11742TIP3    H156641   6.515   1.539   1.004  0.1152  1.5116 -0.0446
11742TIP3    H256642   6.661   1.579   1.016  0.6360 -0.3453 -0.0086
11743TIP3   OH256643   3.211   0.885   0.851  0.1123 -0.3903 -0.1978
11743TIP3    H156644   3.169   0.946   0.791 -1.3246 -1.3317 -0.1996
11743TIP3    H256645   3.273   0.836   0.795  0.0804 -0.0494 -0.5359
11744TIP3   OH256646   2.478   5.984  13.366 -0.2994  0.5665 -0.2624
11744TIP3    H156647   2.464   5.936  13.284 -0.5220  0.8454 -0.3882
11744TIP3    H256648   2.389   6.008  13.395 -0.2685 -0.0715  0.3839
11745TIP3   OH256649   0.389   4.152  16.156  0.2088  0.4022  0.4007
11745TIP3    H156650   0.425   4.237  16.130 -1.1495  1.5074  1.9160
11745TIP3    H256651   0.316   4.138  16.095  1.2492 -0.3539 -0.7034
11746TIP3   OH256652   0.601   2.578  10.804 -0.1414 -0.1236 -0.1460
11746TIP3    H156653   0.515   2.577  10.762 -0.4197 -0.4265  0.4127
11746TIP3    H256654   0.661   2.546  10.738 -0.7239 -1.6416  0.0212
11747TIP3   OH256655   6.566   1.066   0.730  0.6472 -0.4570  0.0603
11747TIP3    H156656   6.605   1.142   0.773 -0.2057  0.4093 -0.6722
11747TIP3    H256657   6.494   1.040   0.788  0.2106  0.0108 -0.2698
11748TIP3   OH256658   4.204   0.437   5.704 -0.4753 -0.5792  0.5443
11748TIP3    H156659   4.146   0.472   5.636 -1.0140 -0.4439  1.0596
11748TIP3    H256660   4.239   0.515   5.747  2.5553 -0.5414 -1.7247
11749TIP3   OH256661   0.598   1.589  10.770  0.1133  0.1393 -0.2800
11749TIP3    H156662   0.605   1.675  10.811  0.6869  0.9163 -1.9253
11749TIP3    H256663   0.526   1.546  10.817  1.1382  0.6956  1.9345
11750TIP3   OH256664   1.904   3.264  11.700  0.0357 -0.3445  0.5805
11750TIP3    H156665   1.817   3.244  11.735  0.1834 -0.5900  0.8127
11750TIP3    H256666   1.895   3.352  11.663 -0.4510 -0.5811  0.1225
11751TIP3   OH256667   3.013   6.528   1.361  0.3000  0.1206 -0.1310
11751TIP3    H156668   3.098   6.487   1.346  0.7889  0.8911  0.4733
11751TIP3    H256669   3.004   6.532   1.456  0.2509  1.3286 -0.1615
11752TIP3   OH256670   2.215   1.564   6.372 -0.0048  0.5105 -0.4957
11752TIP3    H156671   2.306   1.553   6.346  1.6566  3.9375  2.8962
11752TIP3    H256672   2.189   1.647   6.332 -1.6047 -0.2531 -1.1322
11753TIP3   OH256673   4.428   2.650  16.002  0.1457  0.1417  0.2416
11753TIP3    H156674   4.382   2.710  15.943 -1.0780 -0.8134  0.1650
11753TIP3    H256675   4.381   2.659  16.085 -0.5942 -1.2468  0.0174
11754TIP3   OH256676   5.547   4.965  15.692  0.6867 -0.4007  0.0842
11754TIP3    H156677   5.500   4.908  15.631 -0.3724  1.1099 -0.5646
11754TIP3    H256678   5.639   4.952  15.670  0.3659 -0.5096 -1.2794
11755TIP3   OH256679   0.958   6.195  12.864 -0.1177 -0.8828 -0.1288
11755TIP3    H156680   0.948   6.280  12.820  1.9461 -0.3869  0.2564
11755TIP3    H256681   0.960   6.217  12.958  1.2251 -1.2258 -0.0555
11756TIP3   OH256682   5.183   3.504   5.259 -0.3826 -0.2517 -0.4576
11756TIP3    H156683   5.252   3.479   5.197 -0.4644 -0.3574 -0.5071
11756TIP3    H256684   5.160   3.422   5.303  1.8998  0.3054  2.0114
11757TIP3   OH256685   5.699   1.532   2.188 -0.1322  0.2369  0.6163
11757TIP3    H156686   5.670   1.616   2.153  1.1000 -0.1481 -1.5480
11757TIP3    H256687   5.620   1.478   2.188 -0.1034  0.0043 -2.6051
11758TIP3   OH256688   4.019   3.507   3.248  0.4200 -0.2913 -0.1615
11758TIP3    H156689   4.070   3.479   3.172  1.2175 -0.9379  0.5839
11758TIP3    H256690   4.047   3.597   3.264  0.2300 -0.1450 -0.6437
11759TIP3   OH256691   3.796   2.117   0.802 -0.6973 -0.3772 -0.0007
11759TIP3    H156692   3.732   2.091   0.736 -1.6332  0.9184  0.3413
11759TIP3    H256693   3.752   2.187   0.852  0.3279 -0.6700  1.3896
11760TIP3   OH256694   0.741   1.958  15.071  0.5305 -0.4795  0.1757
11760TIP3    H156695   0.681   1.977  14.999 -1.0424 -1.3865  1.1846
11760TIP3    H256696   0.827   1.983  15.038 -0.0818 -1.2212 -2.1497
11761TIP3   OH256697   3.037   0.804   5.501 -0.1398  0.0913 -0.0677
11761TIP3    H156698   3.116   0.781   5.452 -0.4544  2.2789 -1.7553
11761TIP3    H256699   3.062   0.879   5.554 -1.0141  0.7188 -0.5081
11762TIP3   OH256700   4.876   5.987   1.103 -0.2272 -0.3269  0.1565
11762TIP3    H156701   4.916   6.073   1.088  0.4390 -0.9499 -2.0196
11762TIP3    H256702   4.808   5.980   1.036 -0.7378 -1.2331  0.7500
11763TIP3   OH256703   0.711   3.053   0.099 -0.4057  0.0120 -0.1107
11763TIP3    H156704   0.798   3.028   0.070 -0.4824 -1.6542  0.9642
11763TIP3    H256705   0.717   3.057   0.194 -1.8573 -1.7301  0.1057
11764TIP3   OH256706   2.330   4.693  16.547  0.1713 -0.3599 -0.1772
11764TIP3    H156707   2.416   4.701  16.505  0.2391  0.9123  0.1896
11764TIP3    H256708   2.329   4.760  16.615 -1.9115  1.1702 -1.5659
11765TIP3   OH256709   5.879   1.405   5.503  0.0661  0.2959  0.1069
11765TIP3    H156710   5.959   1.377   5.547 -0.6986 -2.6919 -0.2181
11765TIP3    H256711   5.848   1.327   5.456 -2.8263  1.4482 -0.1188
11766TIP3   OH256712   0.948   3.713   4.999  0.4740  0.5861 -0.3129
11766TIP3    H156713   0.875   3.775   4.992 -1.3073 -1.3764 -0.3511
11766TIP3    H256714   0.933   3.668   5.082  0.4992 -1.1611 -1.2083
11767TIP3   OH256715   5.712   1.146   2.985  0.0044 -0.6311 -0.0043
11767TIP3    H156716   5.707   1.222   2.927  1.8427 -1.3108 -1.1685
11767TIP3    H256717   5.624   1.108   2.984 -0.7319  1.0262 -0.0095
11768TIP3   OH256718   3.573   2.054   5.200 -0.0377 -0.4761  0.3022
11768TIP3    H156719   3.600   1.963   5.216 -0.3917 -0.2448  2.5528
11768TIP3    H256720   3.592   2.099   5.282 -2.3653  0.8763  0.1837
11769TIP3   OH256721   5.270   4.475   1.568 -0.4849 -0.3439 -0.2569
11769TIP3    H156722   5.297   4.459   1.659 -1.7739  1.3773  0.4901
11769TIP3    H256723   5.175   4.479   1.572 -0.5574 -0.3394 -1.7164
11770TIP3   OH256724   0.963   5.797  12.082 -0.0827 -0.2098  0.0996
11770TIP3    H156725   0.990   5.751  12.162 -1.3456 -0.5545  0.3596
11770TIP3    H256726   0.981   5.889  12.100  0.3095 -0.3583  0.4963
11771TIP3   OH256727   0.463   0.319   0.748 -0.4567  0.0784 -0.4692
11771TIP3    H156728   0.439   0.396   0.696 -0.4586 -0.3123 -1.0527
11771TIP3    H256729   0.460   0.246   0.686 -0.6791 -0.4314  0.1317
11772TIP3   OH256730   5.150   3.294   4.216  0.3266 -0.1235  0.1485
11772TIP3    H156731   5.114   3.284   4.304  1.4870  0.0096  0.6536
11772TIP3    H256732   5.226   3.236   4.215 -0.0470 -0.6174 -0.9902
11773TIP3   OH256733   3.350   4.135  15.852  0.1422  0.0075 -0.0099
11773TIP3    H156734   3.402   4.170  15.924  0.0573 -2.2088  1.2477
11773TIP3    H256735   3.410   4.078  15.804  0.0715  1.1072 -1.4596
11774TIP3   OH256736   5.939   5.079  12.571  0.4094 -0.6599  0.0691
11774TIP3    H156737   5.942   5.108  12.662 -1.4914  3.8566 -0.9960
11774TIP3    H256738   6.031   5.081  12.542  0.7578  0.8966  1.1678
11775TIP3   OH256739   6.416   2.220   6.068 -0.6065  0.2289 -0.5344
11775TIP3    H156740   6.508   2.247   6.065 -0.8055  1.2148  1.2590
11775TIP3    H256741   6.419   2.125   6.081  0.1990  0.4463  1.0459
11776TIP3   OH256742   2.379   2.975  16.252 -0.2675  0.2196  0.2264
11776TIP3    H156743   2.283   2.973  16.245 -0.4849  0.1288  2.5884
11776TIP3    H256744   2.400   3.068  16.261 -0.1898  0.1794  0.4513
11777TIP3   OH256745   6.074   5.978  16.351  0.4990  0.2614 -0.5199
11777TIP3    H156746   6.017   6.055  16.345  0.7843  0.3785 -2.1794
11777TIP3    H256747   6.123   5.978  16.269  1.6113 -0.8490  0.1125
11778TIP3   OH256748   4.128   2.836  11.700  0.4668  0.1017 -0.0506
11778TIP3    H156749   4.167   2.807  11.783  1.4144  0.4975 -0.3538
11778TIP3    H256750   4.033   2.829  11.716  0.6122  0.7303  1.2777
11779TIP3   OH256751   3.056   4.229   4.541  0.5495  0.2368 -0.1345
11779TIP3    H156752   3.079   4.144   4.578  2.6185  1.1490  0.8825
11779TIP3    H256753   2.982   4.259   4.593  0.3660 -0.5700  0.0763
11780TIP3   OH256754   0.551   5.262  13.832  0.2453  0.4997  0.2766
11780TIP3    H156755   0.633   5.286  13.789  1.2150  0.2494  1.9019
11780TIP3    H256756   0.500   5.343  13.833  0.4074  0.6240 -0.8606
11781TIP3   OH256757   3.398   5.896  11.280  0.5115 -0.7474 -0.0114
11781TIP3    H156758   3.314   5.912  11.237  0.7621  5.3115  0.8088
11781TIP3    H256759   3.462   5.895  11.208  0.0856 -2.1879 -0.4018
11782TIP3   OH256760   4.231   6.527  13.495  0.0524 -0.0277  0.0727
11782TIP3    H156761   4.158   6.561  13.442 -0.0352 -1.0653 -0.4850
11782TIP3    H256762   4.219   6.432  13.495  0.4356 -0.0969  1.4195
11783TIP3   OH256763   0.351   2.108  16.954 -0.1123 -0.1216  0.0685
11783TIP3    H156764   0.390   2.024  16.931  1.2646  0.1404  1.2906
11783TIP3    H256765   0.369   2.119  17.047 -0.1971  1.5554 -0.0669
11784TIP3   OH256766   6.054   5.853   0.804  0.2642  0.1651  0.8282
11784TIP3    H156767   6.136   5.808   0.825  0.2906  1.0280  2.8706
11784TIP3    H256768   6.013   5.870   0.890 -1.7713  0.2834 -0.0927
11785TIP3   OH256769   0.403   6.269   4.151  0.4943  0.1099 -0.5201
11785TIP3    H156770   0.351   6.349   4.141 -0.7212 -0.6417 -0.3959
11785TIP3    H256771   0.372   6.231   4.234 -1.8603 -2.5040 -2.4078
11786TIP3   OH256772   5.392   4.476  14.513  0.7009  0.3282  0.2362
11786TIP3    H156773   5.437   4.559  14.531 -0.6634  1.0170  0.6366
11786TIP3    H256774   5.353   4.489  14.427 -0.5409  0.6088  0.8105
11787TIP3   OH256775   5.072   0.523  13.442  0.2750 -0.0668  0.2640
11787TIP3    H156776   4.997   0.473  13.473  0.7897 -0.6926  0.5418
11787TIP3    H256777   5.091   0.486  13.356 -0.2072  0.6211 -0.1455
11788TIP3   OH256778   1.617   0.872  17.243 -0.3072  0.9257  0.5992
11788TIP3    H156779   1.549   0.807  17.258 -0.6455  1.1884  0.2295
11788TIP3    H256780   1.696   0.834  17.283 -0.0457 -0.5667 -1.1517
11789TIP3   OH256781   2.377   3.809   5.864  0.1286 -0.3915 -1.4059
11789TIP3    H156782   2.368   3.800   5.959  1.1732  0.9268 -1.1441
11789TIP3    H256783   2.359   3.722   5.830  1.5739 -1.3759  0.1551
11790TIP3   OH256784   2.780   5.085  14.968  0.0578  0.0244 -0.5831
11790TIP3    H156785   2.719   5.018  14.937 -0.4160 -0.8008  1.8342
11790TIP3    H256786   2.723   5.153  15.005  0.5677  0.1266  0.0292
11791TIP3   OH256787   2.153   0.484  13.595 -0.1416 -0.1930 -0.4689
11791TIP3    H156788   2.198   0.408  13.633  2.0779 -0.0500 -2.5504
11791TIP3    H256789   2.204   0.559  13.625 -0.2271  0.1640 -1.1862
11792TIP3   OH256790   0.406   5.543   1.513 -0.2652  0.0122 -0.0078
11792TIP3    H156791   0.468   5.524   1.583 -1.0921  2.0806  1.4237
11792TIP3    H256792   0.448   5.612   1.462 -0.5097 -0.0672 -0.3178
11793TIP3   OH256793   5.098   2.236   2.199  0.1474  0.2964  0.1774
11793TIP3    H156794   5.056   2.191   2.272 -1.7053  0.3767 -0.7794
11793TIP3    H256795   5.033   2.234   2.129  2.1848 -0.5847 -1.8179
11794TIP3   OH256796   1.379   0.443  16.409 -0.4220  0.3068  0.0973
11794TIP3    H156797   1.352   0.420  16.320  1.1372  0.1375 -0.3602
11794TIP3    H256798   1.423   0.528  16.399  0.4891 -0.0974  0.5554
11795TIP3   OH256799   0.127   3.943   1.538  0.2868 -0.0205 -0.3310
11795TIP3    H156800   0.067   3.876   1.506  0.8479  0.6595 -3.0141
11795TIP3    H256801   0.192   3.895   1.589 -1.0504 -1.0778  0.4336
11796TIP3   OH256802   3.378   0.119  15.485 -0.0400  0.0756  0.0774
11796TIP3    H156803   3.414   0.127  15.573  0.9295  0.8485 -0.3750
11796TIP3    H256804   3.342   0.206  15.466  0.9080  0.2953 -0.7688
11797TIP3   OH256805   3.902   4.968  17.021 -0.5225  0.4242 -0.1860
11797TIP3    H156806   3.820   5.005  16.989 -0.8948 -0.9119 -0.8220
11797TIP3    H256807   3.876   4.899  17.081  0.1165 -0.2411 -0.6530
11798TIP3   OH256808   1.985   2.134   5.733 -0.3043 -0.3531  0.1480
11798TIP3    H156809   1.945   2.093   5.810  1.2464 -0.5913  0.8809
11798TIP3    H256810   1.957   2.225   5.736  0.4327 -0.1339  1.5471
11799TIP3   OH256811   1.041   2.779   3.481  0.1917  0.6861  0.2095
11799TIP3    H156812   1.018   2.747   3.568 -0.2780 -2.1411 -0.8741
11799TIP3    H256813   1.127   2.741   3.463 -1.0625 -1.4351 -1.7464
11800TIP3   OH256814   5.772   3.974   3.942  0.2635 -0.5456  0.5776
11800TIP3    H156815   5.770   3.904   3.877 -0.2607 -1.5293  1.6250
11800TIP3    H256816   5.728   4.047   3.899  1.1299 -0.7232 -0.6644
11801TIP3   OH256817   6.224   3.061  13.140  0.1832 -0.3755 -0.0310
11801TIP3    H156818   6.225   3.048  13.045  0.5999 -1.2952  0.0808
11801TIP3    H256819   6.306   3.021  13.170  0.3392  0.4225  0.6593
11802TIP3   OH256820   2.751   1.577  10.711  0.0553  0.4954  0.0317
11802TIP3    H156821   2.713   1.507  10.657 -0.1657  0.9957 -0.4706
11802TIP3    H256822   2.682   1.599  10.774  0.2965 -0.0583  0.4950
11803TIP3   OH256823   0.585   2.661   4.264 -0.0690  0.1494 -0.0694
11803TIP3    H156824   0.556   2.752   4.265  1.8099  0.8566 -2.1162
11803TIP3    H256825   0.509   2.611   4.294 -1.4828  2.2892  0.1140
11804TIP3   OH256826   4.643   4.995   3.715  0.0526  0.0252 -0.3177
11804TIP3    H156827   4.616   4.992   3.623 -0.5459 -0.5565 -0.1318
11804TIP3    H256828   4.676   5.084   3.727 -0.4216  0.2940 -0.9386
11805TIP3   OH256829   0.022   0.450  12.249  0.6477  0.2260 -0.2956
11805TIP3    H156830   0.003   0.544  12.246  0.0276  0.1185  0.0627
11805TIP3    H256831   0.035   0.432  12.343 -1.7904 -0.5179 -0.0362
11806TIP3   OH256832   0.193   5.698   2.706  0.1971  0.0144  0.2459
11806TIP3    H156833   0.243   5.721   2.784  2.5876 -1.9914 -0.5812
11806TIP3    H256834   0.245   5.732   2.633 -2.6322  3.0362 -0.6136
11807TIP3   OH256835   4.110   5.012  16.218  0.1568  0.3435 -0.3849
11807TIP3    H156836   4.122   5.107  16.214  1.3828  0.1693 -1.4282
11807TIP3    H256837   4.017   4.999  16.197 -0.2266  1.3453  0.6168
11808TIP3   OH256838   1.772   1.155  11.876 -0.0949  0.4115 -0.2323
11808TIP3    H156839   1.839   1.191  11.819  0.4357 -0.0227  0.1133
11808TIP3    H256840   1.716   1.104  11.818  1.2069 -1.1290 -0.1965
11809TIP3   OH256841   4.484   2.847   0.046  0.1294 -0.0841  0.2733
11809TIP3    H156842   4.537   2.919   0.080 -0.2483  0.9140 -1.1752
11809TIP3    H256843   4.480   2.862  -0.048 -0.9757 -1.3215  0.0890
11810TIP3   OH256844   0.261   6.050  12.234 -0.2248 -0.4724 -0.0285
11810TIP3    H156845   0.237   5.973  12.183 -1.7517  0.4086 -0.7185
11810TIP3    H256846   0.341   6.083  12.193 -0.3408 -0.9052 -0.6053
11811TIP3   OH256847   6.393   5.751   0.593 -0.5011 -0.2501  0.4024
11811TIP3    H156848   6.373   5.658   0.581 -2.3725  0.0301  0.9058
11811TIP3    H256849   6.382   5.766   0.687 -0.9899  0.6205  0.2203
11812TIP3   OH256850   6.731   5.667   1.989  0.1817 -0.0555  0.0593
11812TIP3    H156851   6.651   5.714   1.964 -0.0421 -0.2724  0.3595
11812TIP3    H256852   6.724   5.658   2.084  1.3915  1.4479  0.3291
11813TIP3   OH256853   5.608   0.449  12.725 -0.5743  0.0904  0.9339
11813TIP3    H156854   5.531   0.431  12.778  0.7470 -2.1410  2.2347
11813TIP3    H256855   5.595   0.398  12.645 -0.3508 -0.5208  1.2778
11814TIP3   OH256856   3.852   4.149   6.232 -0.0999  0.0939 -0.7994
11814TIP3    H156857   3.806   4.121   6.311  0.6513 -1.8769 -1.0169
11814TIP3    H256858   3.916   4.213   6.263  0.7146 -1.2206  0.3512
11815TIP3   OH256859   5.313   1.537  13.445  0.5454 -0.3840 -0.0150
11815TIP3    H156860   5.358   1.586  13.513  1.7385 -0.5717 -0.6350
11815TIP3    H256861   5.371   1.463  13.427 -0.9578 -1.7620  0.5351
11816TIP3   OH256862   4.030   3.877   0.275  0.2269  0.2957  0.7886
11816TIP3    H156863   4.108   3.873   0.331 -0.8812 -1.5360  2.3213
11816TIP3    H256864   4.011   3.970   0.267  2.2251  0.7620  0.8377
11817TIP3   OH256865   3.960   5.478  16.308  0.2880 -0.2306  0.1573
11817TIP3    H156866   4.007   5.421  16.369 -0.2325  0.0745  0.8604
11817TIP3    H256867   3.871   5.482  16.342  0.3541  1.1304  0.2331
11818TIP3   OH256868   6.302   4.253  16.822 -0.3028 -0.6699  0.1181
11818TIP3    H156869   6.271   4.329  16.870  0.7013 -0.6177  0.7087
11818TIP3    H256870   6.330   4.191  16.890  2.8019  0.0893 -0.2950
11819TIP3   OH256871   6.270   4.535   4.153 -0.5626  0.7697  0.2339
11819TIP3    H156872   6.248   4.545   4.060 -0.1443 -1.0537 -0.0940
11819TIP3    H256873   6.189   4.559   4.199 -1.0237  0.9149 -0.6315
11820TIP3   OH256874   2.664   3.376  11.248 -0.4345  0.0616  0.3188
11820TIP3    H156875   2.602   3.327  11.195  0.0406 -0.8623  0.5911
11820TIP3    H256876   2.629   3.370  11.337  0.0491 -0.4926  0.4784
11821TIP3   OH256877   2.288   3.696  11.045 -0.2172 -0.0937  0.9939
11821TIP3    H156878   2.371   3.657  11.019  0.3755 -0.2712  2.9974
11821TIP3    H256879   2.222   3.630  11.022  0.1259  0.1167 -0.7459
11822TIP3   OH256880   1.840   0.792  12.859 -0.0828  0.0277  0.2109
11822TIP3    H156881   1.860   0.794  12.952  2.2277 -0.4692 -0.2240
11822TIP3    H256882   1.887   0.867  12.822 -0.7124  0.0387 -0.6048
11823TIP3   OH256883   1.976   0.098   2.486 -0.3331 -0.1863 -0.0146
11823TIP3    H156884   1.916   0.023   2.479  0.3033 -0.8595  1.4021
11823TIP3    H256885   1.925   0.173   2.455 -1.8918 -0.7394  1.1095
11824TIP3   OH256886   5.877   3.661   4.868  0.0520 -0.3500  1.5407
11824TIP3    H156887   5.917   3.748   4.859  1.6643 -1.2320 -0.2419
11824TIP3    H256888   5.840   3.642   4.782 -2.5763 -0.4376  2.5822
11825TIP3   OH256889   3.016   6.468   0.990  0.2186 -0.3122  0.1303
11825TIP3    H156890   3.103   6.428   0.979  0.4373  0.2335 -0.1883
11825TIP3    H256891   2.957   6.409   0.943  0.7099  0.3456 -1.3882
11826TIP3   OH256892   4.029   5.587  16.049  0.2071  0.1288 -0.2540
11826TIP3    H156893   3.989   5.550  15.971 -0.0161  0.9818 -0.5524
11826TIP3    H256894   3.996   5.533  16.121 -0.0899 -0.2592 -0.6786
11827TIP3   OH256895   0.024   5.481  16.087 -0.0513  0.4488 -0.0406
11827TIP3    H156896   0.088   5.553  16.086 -0.7519  1.1174  1.2062
11827TIP3    H256897  -0.044   5.510  16.025  0.2962  0.2489 -0.5231
11828TIP3   OH256898   2.372   3.332  15.052  0.1462  0.3269 -0.0646
11828TIP3    H156899   2.465   3.355  15.052  0.5990 -1.3410 -0.9991
11828TIP3    H256900   2.363   3.267  14.982 -1.2800 -1.2170  1.4428
11829TIP3   OH256901   5.038   4.086  11.208  0.0875  0.0303  0.0215
11829TIP3    H156902   5.112   4.147  11.210  1.4936 -1.6345  0.7247
11829TIP3    H256903   5.007   4.090  11.117 -0.8856  2.8859  0.3733
11830TIP3   OH256904   6.278   5.281   3.762  0.0757  0.1892 -0.1617
11830TIP3    H156905   6.259   5.359   3.709  0.5013 -0.0878 -0.7364
11830TIP3    H256906   6.192   5.249   3.790 -0.2710 -0.4311 -1.8246
11831TIP3   OH256907   4.590   0.560   4.938  0.2930  0.2694  0.2561
11831TIP3    H156908   4.584   0.469   4.964 -0.1103 -0.3542 -1.8127
11831TIP3    H256909   4.500   0.586   4.917  0.6802  0.3189 -1.5545
11832TIP3   OH256910   0.596   4.021   1.924 -0.2619  0.0256  0.0690
11832TIP3    H156911   0.592   4.076   1.846 -0.8803  0.1232  0.1600
11832TIP3    H256912   0.587   3.932   1.891 -0.2468  0.0480  0.0047
11833TIP3   OH256913   1.135   1.611   1.207 -0.2097  0.2154 -0.4249
11833TIP3    H156914   1.171   1.535   1.253 -1.2103 -1.0565 -1.6820
11833TIP3    H256915   1.040   1.603   1.218 -0.4134  0.3804 -1.9427
11834TIP3   OH256916   0.360   2.622  15.271  0.5364 -0.1938  0.0318
11834TIP3    H156917   0.294   2.555  15.255  1.3324 -0.9029 -0.3417
11834TIP3    H256918   0.315   2.688  15.324  0.6826 -2.7539  3.7088
11835TIP3   OH256919   3.833   1.952   2.068  0.2561 -0.0172  0.1701
11835TIP3    H156920   3.856   1.862   2.091  1.8590  0.8547  2.2392
11835TIP3    H256921   3.871   1.965   1.981  1.3931 -0.8746  0.5143
11836TIP3   OH256922   6.093   0.964  13.627 -0.0602  0.0652 -0.1446
11836TIP3    H156923   6.098   0.923  13.540 -1.4115  0.0546 -0.2325
11836TIP3    H256924   6.169   0.929  13.674  1.3522  0.9194 -1.6616
11837TIP3   OH256925   6.425   2.496  13.288 -0.3943 -0.1905 -0.3505
11837TIP3    H156926   6.387   2.409  13.302  0.2708 -0.4474 -0.0710
11837TIP3    H256927   6.421   2.538  13.373  0.0559 -0.2711 -0.2844
11838TIP3   OH256928   0.779   1.186   4.642  0.2912  0.1444 -0.6816
11838TIP3    H156929   0.849   1.250   4.630  0.9768 -0.8171 -2.0501
11838TIP3    H256930   0.699   1.234   4.622  0.6189  1.0300  0.0710
11839TIP3   OH256931   1.904   6.763  11.849 -0.0178 -0.0470  0.3776
11839TIP3    H156932   1.925   6.741  11.758  1.3165  0.1486  0.6188
11839TIP3    H256933   1.882   6.679  11.889 -1.4420 -0.0317 -0.3114
11840TIP3   OH256934   0.442   5.339  13.194  0.1894  0.8730 -0.4301
11840TIP3    H156935   0.423   5.386  13.113  0.4463 -0.4208 -1.2793
11840TIP3    H256936   0.356   5.319  13.231  0.0724  1.5638 -0.3274
11841TIP3   OH256937   4.744   4.872  13.820 -0.3924  0.3198 -0.6081
11841TIP3    H156938   4.715   4.959  13.791 -2.1056 -0.4628 -1.3724
11841TIP3    H256939   4.787   4.889  13.904  0.6032  2.0713 -1.4046
11842TIP3   OH256940   1.812   4.810  17.284 -0.5243 -0.5094 -0.4453
11842TIP3    H156941   1.862   4.729  17.284 -2.4994 -1.8561  1.3853
11842TIP3    H256942   1.740   4.793  17.345 -1.6458  2.2477 -0.8647
11843TIP3   OH256943   5.024   5.934   4.559 -0.4623 -0.1143  0.1662
11843TIP3    H156944   5.057   5.898   4.477 -0.8940  0.2385 -0.1641
11843TIP3    H256945   5.065   5.880   4.627  0.2748 -0.0932 -0.2597
11844TIP3   OH256946   5.271   0.154  12.799 -0.0020 -0.4216 -0.2057
11844TIP3    H156947   5.215   0.139  12.723 -0.9823 -2.5128  0.8239
11844TIP3    H256948   5.283   0.067  12.837  2.4549  0.2336  0.6865
11845TIP3   OH256949   3.052   5.117  14.536  0.2085 -0.3846  0.1147
11845TIP3    H156950   3.136   5.122  14.582  1.7733  2.2207 -2.6550
11845TIP3    H256951   3.026   5.209  14.525 -1.4079 -1.0112 -1.8192
11846TIP3   OH256952   4.557   2.618   1.471 -0.6321 -0.0260  0.0755
11846TIP3    H156953   4.648   2.596   1.488  0.0379  2.6187  0.3368
11846TIP3    H256954   4.516   2.535   1.445  2.0500 -1.1043 -1.0456
11847TIP3   OH256955   4.857   0.131  16.516  0.3634  0.3796  0.3798
11847TIP3    H156956   4.881   0.175  16.598 -0.9239  1.6109  0.1336
11847TIP3    H256957   4.764   0.112  16.525  0.3116  0.1046 -0.6246
11848TIP3   OH256958   5.010   3.976   5.356 -0.4464 -0.1740 -0.2988
11848TIP3    H156959   5.101   3.988   5.385  0.2555 -1.3880 -1.8346
11848TIP3    H256960   5.017   3.952   5.264 -2.3742  0.1151 -0.5648
11849TIP3   OH256961   3.482   5.553   1.462  0.0480 -0.0722  0.0418
11849TIP3    H156962   3.459   5.487   1.528  1.7598 -0.2737  0.4674
11849TIP3    H256963   3.399   5.599   1.445 -1.3834 -2.6672 -0.7072
11850TIP3   OH256964   5.303   2.578   4.459  0.2948  0.3572  0.9189
11850TIP3    H156965   5.324   2.492   4.496  0.7632  0.3530  0.6514
11850TIP3    H256966   5.220   2.565   4.413  0.6020 -0.0735  0.4780
11851TIP3   OH256967   2.327   0.346  16.471  0.0663 -0.1094 -0.6610
11851TIP3    H156968   2.344   0.431  16.512 -0.5519  0.3068 -1.2490
11851TIP3    H256969   2.398   0.334  16.409 -1.1557  1.1546 -2.3770
11852TIP3   OH256970   5.771   1.970   3.019  0.2091  0.0822 -0.0539
11852TIP3    H156971   5.690   1.989   3.066  0.7461  1.3854  0.3898
11852TIP3    H256972   5.788   1.878   3.037  0.1582  0.4271  1.9649
11853TIP3   OH256973   4.439   0.247  11.634 -0.6086 -0.7025 -0.2178
11853TIP3    H156974   4.488   0.235  11.716  1.3478  2.2818 -0.8098
11853TIP3    H256975   4.374   0.314  11.655 -0.5228 -0.3906 -0.9505
11854TIP3   OH256976   2.572   1.736   0.601  0.2795  0.3330 -0.0495
11854TIP3    H156977   2.524   1.656   0.623 -0.2053  0.9182  1.1387
11854TIP3    H256978   2.531   1.804   0.656  0.9811  1.2991 -0.6897
11855TIP3   OH256979   5.646   6.548  14.957  0.4004  0.5888  0.0481
11855TIP3    H156980   5.673   6.634  14.927 -0.9725  1.5124  1.3200
11855TIP3    H256981   5.696   6.487  14.903  0.9544  2.1598 -1.2962
11856TIP3   OH256982   2.199   5.902  15.947  0.3067  0.0565  0.8852
11856TIP3    H156983   2.257   5.880  15.874 -2.1914  1.0545 -1.6002
11856TIP3    H256984   2.117   5.856  15.927 -1.1857  2.1174  1.8162
11857TIP3   OH256985   0.340   1.755  11.650 -0.3923 -0.2278  0.4937
11857TIP3    H156986   0.339   1.849  11.634 -0.7147 -0.1259  1.1080
11857TIP3    H256987   0.317   1.716  11.565 -0.0750  0.2335  0.1922
11858TIP3   OH256988   0.893   1.310  17.280  0.2537 -0.0459  0.3755
11858TIP3    H156989   0.921   1.304  17.189  0.4681  1.1909  0.3536
11858TIP3    H256990   0.799   1.288  17.277  0.1515  0.4489 -0.2081
11859TIP3   OH256991   1.503   6.241   4.283 -0.1575  0.7009  0.6596
11859TIP3    H156992   1.509   6.242   4.379 -1.9336 -1.1382  0.8795
11859TIP3    H256993   1.554   6.165   4.257  0.2766  1.1681  0.1409
11860TIP3   OH256994   2.978   6.778  15.996  0.3336  0.3294 -0.2807
11860TIP3    H156995   3.010   6.787  15.906  1.3587  0.4291  0.0797
11860TIP3    H256996   2.923   6.700  15.994 -1.3769  1.5029 -1.4515
11861TIP3   OH256997   4.386   4.872   4.996 -0.4763 -0.5428 -0.7953
11861TIP3    H156998   4.312   4.896   5.052  1.3050  1.3087  0.9502
11861TIP3    H256999   4.399   4.949   4.941  1.2560 -0.0499  0.2385
11862TIP3   OH257000   2.840   5.117   0.319  0.0227  0.1395 -0.2660
11862TIP3    H157001   2.753   5.127   0.359 -0.4864 -1.0922 -1.0048
11862TIP3    H257002   2.855   5.200   0.274 -0.4710  0.6211  0.4353
11863TIP3   OH257003   4.388   5.715  10.996  0.4147  0.2473 -0.0883
11863TIP3    H157004   4.372   5.758  10.912 -0.4731 -3.2863 -1.9243
11863TIP3    H257005   4.302   5.704  11.035  0.7678  1.3347  1.0834
11864TIP3   OH257006   0.230   5.357   3.157 -0.1497 -0.8518  0.7463
11864TIP3    H157007   0.257   5.430   3.212  0.1439 -0.0308 -0.4524
11864TIP3    H257008   0.134   5.360   3.157 -0.1359  0.5526 -0.5774
11865TIP3   OH257009   3.510   5.038   4.052 -0.1572 -0.5853  0.3735
11865TIP3    H157010   3.552   5.100   4.111 -0.4088  1.1507 -1.1922
11865TIP3    H257011   3.450   4.989   4.108 -0.5473  1.1317  1.5342
11866TIP3   OH257012   6.054   4.361  16.623  0.2780 -0.2365 -0.0518
11866TIP3    H157013   6.093   4.415  16.555 -0.3214  0.7612  0.3895
11866TIP3    H257014   6.077   4.271  16.598 -2.4292 -0.2438 -3.2701
11867TIP3   OH257015   6.568   4.008  15.583  0.0544 -0.1492 -0.4531
11867TIP3    H157016   6.649   3.991  15.631  0.0427 -1.7832 -0.9610
11867TIP3    H257017   6.597   4.034  15.495  0.0363  0.2527 -0.3426
11868TIP3   OH257018   2.390   5.432   5.688 -0.1364  0.4101 -0.1729
11868TIP3    H157019   2.461   5.369   5.699 -1.0901 -0.5094  0.8941
11868TIP3    H257020   2.358   5.416   5.599  0.6299  0.4744 -0.4706
11869TIP3   OH257021   3.814   3.870   1.643 -0.1323 -0.2849  0.1704
11869TIP3    H157022   3.745   3.921   1.685  0.2341 -0.4970  1.0349
11869TIP3    H257023   3.780   3.853   1.555 -0.3206  1.3112 -0.0948
11870TIP3   OH257024   1.902   3.860   5.428 -0.4286  0.7532 -0.3810
11870TIP3    H157025   1.810   3.884   5.415 -0.3404  0.7200 -1.0750
11870TIP3    H257026   1.938   3.852   5.340  0.2597  0.8247 -0.1120
11871TIP3   OH257027   6.037   0.459   0.327 -0.0019  0.0131  0.0278
11871TIP3    H157028   6.130   0.437   0.322 -0.3871 -2.3528  1.4703
11871TIP3    H257029   6.002   0.435   0.242  0.4552 -0.5240 -0.0175
11872TIP3   OH257030   4.017   6.764   3.864  0.7156  0.2386 -0.4517
11872TIP3    H157031   4.004   6.770   3.959 -0.9342  1.7478 -0.7179
11872TIP3    H257032   3.973   6.684   3.838 -1.2936  1.2253 -0.2612
11873TIP3   OH257033   0.293   2.290   2.640  0.3764 -0.1260  0.2440
11873TIP3    H157034   0.333   2.352   2.700  1.4322  0.5516 -1.0885
11873TIP3    H257035   0.365   2.260   2.585 -0.8733  1.2856 -2.3948
11874TIP3   OH257036   2.169   2.368   5.497  0.1763 -0.1310  0.1792
11874TIP3    H157037   2.195   2.279   5.471  1.0339 -0.6810  2.6997
11874TIP3    H257038   2.250   2.419   5.493 -0.7101  1.3784 -3.8094
11875TIP3   OH257039   3.818   5.416  17.092  0.3175 -0.2090 -0.0845
11875TIP3    H157040   3.775   5.502  17.092  1.4448  0.3833  0.5581
11875TIP3    H257041   3.778   5.369  17.019 -1.5887  0.1994  0.6573
11876TIP3   OH257042   6.053   6.256   5.462 -0.4692  0.1678  0.2113
11876TIP3    H157043   6.083   6.331   5.513  1.4870 -1.0819  0.9692
11876TIP3    H257044   6.048   6.184   5.524 -0.7121 -0.7489 -0.8286
11877TIP3   OH257045   4.053   3.904  11.977  0.0520 -0.0570  0.2022
11877TIP3    H157046   4.081   3.983  11.931  0.4481  0.4312  1.2367
11877TIP3    H257047   4.114   3.836  11.948  0.1811  0.1940 -0.1206
11878TIP3   OH257048   0.220   4.251   2.485  0.1016  0.3532 -0.3443
11878TIP3    H157049   0.220   4.337   2.443  1.1959  0.3698 -0.3442
11878TIP3    H257050   0.310   4.220   2.477 -0.4905 -1.2436 -1.2169
11879TIP3   OH257051   1.309   1.210  13.429  0.3819 -0.4028  0.6415
11879TIP3    H157052   1.368   1.142  13.460 -0.7555 -1.8440 -0.2290
11879TIP3    H257053   1.221   1.179  13.453 -0.3667 -0.4625 -1.8753
11880TIP3   OH257054   1.441   0.347   5.053  0.8152  0.1891 -0.1818
11880TIP3    H157055   1.468   0.293   4.979 -0.6201  0.3591 -0.8453
11880TIP3    H257056   1.465   0.436   5.027 -0.2471  0.3250 -0.7180
11881TIP3   OH257057   6.712   0.504  16.938 -0.2114  0.2653 -0.4978
11881TIP3    H157058   6.646   0.529  16.874 -0.0771 -0.6318 -1.0110
11881TIP3    H257059   6.772   0.578  16.942  1.0387 -0.4992 -3.1199
11882TIP3   OH257060   2.681   1.661  11.207 -0.1397 -0.3023 -0.2167
11882TIP3    H157061   2.612   1.622  11.261  0.6936 -0.9387  0.3988
11882TIP3    H257062   2.763   1.626  11.242  0.5905  1.3396 -0.2017
11883TIP3   OH257063   2.981   0.027  13.212 -0.2344  0.2978 -1.0932
11883TIP3    H157064   2.965  -0.064  13.236 -0.2350  0.0794 -1.9053
11883TIP3    H257065   3.027   0.064  13.287  2.2542 -1.1180 -1.8321
11884TIP3   OH257066   5.209   5.738   4.662  0.2473 -0.1936  0.2003
11884TIP3    H157067   5.147   5.684   4.711 -0.0315 -0.0119  0.0498
11884TIP3    H257068   5.243   5.679   4.594 -0.9850  0.1510 -0.7490
11885TIP3   OH257069   3.774   1.346   4.168  0.2860  0.3294  0.0215
11885TIP3    H157070   3.730   1.262   4.179  1.0694  0.0659  1.4206
11885TIP3    H257071   3.867   1.323   4.157  0.5663  1.0135  0.8564
11886TIP3   OH257072   2.565   5.945   0.809  0.2573 -0.1049  0.0646
11886TIP3    H157073   2.514   6.015   0.768  0.7826 -1.6245 -3.5793
11886TIP3    H257074   2.507   5.868   0.805  1.1357 -0.7887  0.2092
11887TIP3   OH257075   6.183   6.428   2.123 -0.4639 -0.0496 -0.3945
11887TIP3    H157076   6.182   6.343   2.079 -3.0489 -0.2229 -0.1983
11887TIP3    H257077   6.154   6.409   2.212 -3.7729  1.2296 -1.0462
11888TIP3   OH257078   2.393   5.791   5.133  0.3125  0.3582 -0.3286
11888TIP3    H157079   2.333   5.774   5.206  1.1848  2.8865  1.1052
11888TIP3    H257080   2.343   5.770   5.055 -1.0422 -1.4037  0.9236
11889TIP3   OH257081   1.046   4.135   5.191 -1.4569  0.4196  0.3500
11889TIP3    H157082   1.034   4.047   5.226  0.2364 -0.3241 -0.7705
11889TIP3    H257083   1.082   4.185   5.263 -2.5216  0.2261  1.0277
11890TIP3   OH257084   2.318   3.679  13.683 -0.1198  0.1488 -0.5151
11890TIP3    H157085   2.348   3.599  13.727  0.4499  0.1634 -0.8543
11890TIP3    H257086   2.278   3.731  13.752 -0.4147 -0.3896 -0.2712
11891TIP3   OH257087   0.652   4.064  11.411  0.2891  0.2591 -0.2115
11891TIP3    H157088   0.656   3.984  11.358  1.0957  0.8679 -1.1176
11891TIP3    H257089   0.740   4.073  11.447  0.2102  0.7301 -0.1254
11892TIP3   OH257090   0.305   4.958  13.440  0.1558 -0.8443  0.0742
11892TIP3    H157091   0.219   4.941  13.478 -0.2479  1.7374  0.5363
11892TIP3    H257092   0.366   4.912  13.497 -0.6773  0.4341  2.1113
11893TIP3   OH257093   1.403   5.358  17.174 -0.0658  0.2799 -0.1958
11893TIP3    H157094   1.444   5.282  17.215  1.3176  0.8648 -0.4629
11893TIP3    H257095   1.309   5.342  17.183  0.2079 -0.8618  0.8493
11894TIP3   OH257096   3.193   5.646  15.845  0.2856 -0.4403  0.0491
11894TIP3    H157097   3.200   5.716  15.910 -0.6017 -0.4285  0.1458
11894TIP3    H257098   3.146   5.687  15.772 -1.7789 -1.3782  0.7850
11895TIP3   OH257099   5.208   3.560   4.807 -0.3991 -0.0562  0.3887
11895TIP3    H157100   5.208   3.608   4.724 -0.4538 -0.1999  0.3059
11895TIP3    H257101   5.193   3.469   4.782  0.2831 -0.2041  0.4952
11896TIP3   OH257102   1.446   2.194   3.640  0.7057  0.4632  0.7208
11896TIP3    H157103   1.474   2.279   3.606  0.0888  1.1676  1.8981
11896TIP3    H257104   1.434   2.209   3.734  1.3002 -1.1217  1.0797
11897TIP3   OH257105   4.127   1.352  11.651  0.2572 -0.3258 -0.0197
11897TIP3    H157106   4.210   1.361  11.697  0.1636  0.0220  0.0922
11897TIP3    H257107   4.082   1.435  11.668  0.0922 -0.3194 -0.4846
11898TIP3   OH257108   2.465   3.459   3.053  0.1018  0.1694 -0.4514
11898TIP3    H157109   2.491   3.434   3.142 -0.4856  0.2267 -0.2555
11898TIP3    H257110   2.371   3.438   3.049  0.0241  0.5800 -0.9093
11899TIP3   OH257111   5.622   3.370  13.861 -0.0231  0.0871  1.0819
11899TIP3    H157112   5.690   3.397  13.800 -0.6484 -1.1417 -0.2094
11899TIP3    H257113   5.594   3.451  13.903 -0.4070  1.1670 -1.1274
11900TIP3   OH257114   0.325   1.713   4.578 -0.2788 -0.0400  0.8825
11900TIP3    H157115   0.319   1.674   4.665  1.4069  1.1492  1.5724
11900TIP3    H257116   0.239   1.754   4.564 -2.4983 -4.4155 -0.2226
11901TIP3   OH257117   3.484   2.819   1.905  0.4229 -0.2165  0.2908
11901TIP3    H157118   3.571   2.784   1.923  0.6252 -0.0844 -0.4093
11901TIP3    H257119   3.456   2.774   1.826  1.6953  2.8474 -2.1251
11902TIP3   OH257120   3.261   6.012  17.256 -0.0056  0.0187 -0.4698
11902TIP3    H157121   3.253   6.020  17.161  1.4944 -0.1207 -0.6288
11902TIP3    H257122   3.248   5.918  17.273  3.2454 -0.6582 -1.0027
11903TIP3   OH257123   1.328   3.240   1.315 -0.7796  0.1451  0.0153
11903TIP3    H157124   1.261   3.254   1.249  1.1138  1.3150 -1.7699
11903TIP3    H257125   1.397   3.191   1.270  0.4105  0.6430  1.2084
11904TIP3   OH257126   0.399   1.862   2.796  0.2959 -0.1050  0.2716
11904TIP3    H157127   0.363   1.801   2.732 -0.5968 -0.7709  1.3732
11904TIP3    H257128   0.360   1.946   2.773  0.9266 -0.0775 -0.7778
11905TIP3   OH257129   6.370   3.913   4.848  0.5801 -0.3289  0.1725
11905TIP3    H157130   6.319   3.966   4.909  0.5052  0.2759 -0.4011
11905TIP3    H257131   6.325   3.829   4.847  0.0051 -0.0337  0.2125
11906TIP3   OH257132   5.693   4.922  11.417  0.2538 -0.0628 -0.5897
11906TIP3    H157133   5.772   4.963  11.452 -0.1785  0.2819 -0.0245
11906TIP3    H257134   5.694   4.834  11.454 -0.0770  0.2217  0.1046
11907TIP3   OH257135   3.874   6.076   5.445  0.0557 -0.2243  0.4903
11907TIP3    H157136   3.898   6.013   5.512 -0.3882  0.2773  1.1303
11907TIP3    H257137   3.887   6.030   5.362 -0.5386 -1.2371  0.9544
11908TIP3   OH257138   4.907   2.045   2.767 -0.2805  0.1043 -0.2892
11908TIP3    H157139   4.932   2.002   2.848 -1.4405  0.3387  0.2049
11908TIP3    H257140   4.990   2.072   2.727  0.3294 -0.6552  0.4555
11909TIP3   OH257141   6.054   4.012   3.902  0.1425  0.1347  0.2745
11909TIP3    H157142   6.058   4.081   3.968  2.0145 -1.6094  2.1647
11909TIP3    H257143   5.968   3.972   3.915 -0.1751  0.8779  0.5027
11910TIP3   OH257144   2.355   4.059   5.338  0.0129 -0.0109 -0.0010
11910TIP3    H157145   2.308   4.022   5.413 -1.8602 -2.3284 -2.1296
11910TIP3    H257146   2.435   4.008   5.331  0.5501  0.7063  0.8256
11911TIP3   OH257147   0.312   0.369   6.125  0.3871 -0.5711  0.1519
11911TIP3    H157148   0.322   0.299   6.060 -1.4204 -0.7393  0.0001
11911TIP3    H257149   0.275   0.325   6.202  0.5389 -0.0130  0.5490
11912TIP3   OH257150   1.148   5.878   3.112  0.4529  0.6341  0.1541
11912TIP3    H157151   1.160   5.859   3.205  1.9153 -1.2121 -0.3599
11912TIP3    H257152   1.076   5.819   3.085  0.1491  1.0392  0.0740
11913TIP3   OH257153   0.055   1.851   1.160  0.0139 -0.9951  0.0736
11913TIP3    H157154   0.116   1.788   1.199  0.2534 -0.4507  0.5914
11913TIP3    H257155   0.043   1.820   1.070  0.0155 -1.8542  0.3655
11914TIP3   OH257156   2.107   5.267   3.056 -0.1769  0.1468  0.1516
11914TIP3    H157157   2.174   5.199   3.059 -0.4694 -0.2341 -1.2392
11914TIP3    H257158   2.093   5.291   3.148  0.5999 -1.0032  0.5929
11915TIP3   OH257159   1.222   3.378   6.135  0.0025 -0.0791 -0.0666
11915TIP3    H157160   1.170   3.380   6.216 -0.0367  1.0512 -0.1041
11915TIP3    H257161   1.205   3.291   6.098 -1.7215  0.1806  0.0163
11916TIP3   OH257162   0.164   6.338  13.962  0.7684 -0.1200  0.1945
11916TIP3    H157163   0.073   6.323  13.935  1.6125 -0.9508 -2.4498
11916TIP3    H257164   0.209   6.257  13.940  2.7970  1.4344 -1.8519
11917TIP3   OH257165   2.291   0.687  11.606 -0.1383 -0.2092 -0.0989
11917TIP3    H157166   2.242   0.636  11.670 -0.8934  1.6902  0.8868
11917TIP3    H257167   2.346   0.745  11.658  0.7403 -0.0130 -1.1927
11918TIP3   OH257168   1.425   4.673   6.274  0.2711 -0.4799 -0.5440
11918TIP3    H157169   1.419   4.643   6.365 -1.6166 -1.0372 -0.7982
11918TIP3    H257170   1.509   4.640   6.243  1.6597  0.9905  1.3968
11919TIP3   OH257171   2.688   1.171   3.592  0.1163  0.5491  0.3614
11919TIP3    H157172   2.751   1.140   3.658 -0.1154  0.1235  0.3856
11919TIP3    H257173   2.743   1.206   3.522  0.5891 -3.2156 -1.3766
11920TIP3   OH257174   2.959   2.651  11.695  0.2856  0.0754  0.7767
11920TIP3    H157175   2.929   2.668  11.605 -1.0394  0.7001  1.3181
11920TIP3    H257176   3.051   2.678  11.695  0.5758 -0.8000 -0.6311
11921TIP3   OH257177   4.278   4.664   2.002  0.3679  0.1299 -0.4986
11921TIP3    H157178   4.275   4.754   1.967 -0.5748  1.2787  2.2614
11921TIP3    H257179   4.215   4.665   2.074  1.9052 -2.1406  0.9805
11922TIP3   OH257180   1.352   2.733   0.833 -0.0993 -0.3242 -0.0254
11922TIP3    H157181   1.383   2.673   0.764 -1.5903 -0.1673 -0.8814
11922TIP3    H257182   1.260   2.746   0.813 -0.3471  0.4668  1.5003
11923TIP3   OH257183   0.908   1.811   4.289  0.2417  0.1887 -0.5272
11923TIP3    H157184   0.878   1.771   4.207 -0.6129 -1.0628  0.3579
11923TIP3    H257185   0.955   1.741   4.334 -0.0483  0.6038  0.4391
11924TIP3   OH257186   1.636   2.836   3.110 -0.0774  0.0872  0.0074
11924TIP3    H157187   1.704   2.855   3.045 -1.8444  1.6543 -1.4635
11924TIP3    H257188   1.556   2.827   3.059 -1.5404  1.4145  1.9417
11925TIP3   OH257189   4.908   0.073  13.070  0.5908  0.7067 -0.3976
11925TIP3    H157190   4.872   0.154  13.107 -1.5507 -0.2625 -0.2363
11925TIP3    H257191   4.918   0.092  12.977  2.1588  1.8289 -0.0391
11926TIP3   OH257192   0.560   4.248  11.014 -0.4986  0.4421  0.1341
11926TIP3    H157193   0.473   4.210  11.001 -0.0753 -0.0521 -1.5606
11926TIP3    H257194   0.569   4.314  10.946 -0.3580  2.0943  1.6730
11927TIP3   OH257195   1.429   5.975   1.815 -0.7461 -0.4066 -0.0822
11927TIP3    H157196   1.467   6.040   1.874  0.7115 -0.5500 -0.8087
11927TIP3    H257197   1.344   5.954   1.853  0.8176 -1.7991  2.9469
11928TIP3   OH257198   3.622   5.099  12.705  0.9023 -0.3829  0.5638
11928TIP3    H157199   3.712   5.087  12.675  0.6986 -3.2618  0.8711
11928TIP3    H257200   3.568   5.058  12.638 -0.2227  1.0520  0.5252
11929TIP3   OH257201   5.504   3.750   3.635  0.4786 -0.0164 -0.3230
11929TIP3    H157202   5.424   3.769   3.587  0.7411  0.1926 -0.6796
11929TIP3    H257203   5.476   3.744   3.727  0.3278  1.8027 -0.2257
11930TIP3   OH257204   4.953   0.526   1.670 -0.2989  0.2318 -0.1699
11930TIP3    H157205   5.023   0.464   1.649 -3.0008 -2.4036 -2.2352
11930TIP3    H257206   4.902   0.482   1.738 -2.2969  0.0632 -1.7037
11931TIP3   OH257207   2.628   4.621   4.468 -0.1145  0.1291 -0.4914
11931TIP3    H157208   2.660   4.695   4.520 -0.3463  0.0974 -0.2997
11931TIP3    H257209   2.534   4.619   4.486  0.1917 -1.6104  1.3052
11932TIP3   OH257210   4.804   5.139  12.763 -0.2704 -0.0168 -0.0405
11932TIP3    H157211   4.756   5.221  12.747  1.2119  0.3468 -3.2953
11932TIP3    H257212   4.887   5.168  12.800  0.5870  0.0822 -1.9680
11933TIP3   OH257213   4.331   6.717  16.278  0.0373 -0.7806 -0.0595
11933TIP3    H157214   4.354   6.683  16.364 -0.9961 -1.2344  0.0518
11933TIP3    H257215   4.415   6.732  16.234  0.5843 -0.1823  1.1588
11934TIP3   OH257216   1.968   3.183  16.896  0.4918  0.0325  0.2029
11934TIP3    H157217   1.998   3.135  16.819  0.0762  0.8576 -0.4893
11934TIP3    H257218   1.933   3.265  16.861 -2.4833 -0.8027  0.9182
11935TIP3   OH257219   0.333   1.106  15.760  0.5165  0.2666 -0.0536
11935TIP3    H157220   0.260   1.106  15.698  0.4545  0.2832  0.0192
11935TIP3    H257221   0.405   1.146  15.712  0.2896  0.8640  0.0883
11936TIP3   OH257222   0.704   5.331   1.101 -0.3312 -0.2059 -0.0599
11936TIP3    H157223   0.630   5.382   1.134 -0.4758 -1.7780  2.3217
11936TIP3    H257224   0.742   5.290   1.179  1.0086 -2.1020 -1.5908
11937TIP3   OH257225   0.494   0.698   2.243 -0.3250 -0.3205  0.1524
11937TIP3    H157226   0.539   0.756   2.305  1.5020 -0.1593 -1.2188
11937TIP3    H257227   0.422   0.750   2.208 -0.1712  0.2674  0.6989
11938TIP3   OH257228   3.856   3.502   1.638  0.2196 -0.2045  0.2245
11938TIP3    H157229   3.874   3.510   1.731  1.0088 -2.3633  0.3257
11938TIP3    H257230   3.924   3.555   1.596  0.5540 -0.1179  0.8571
11939TIP3   OH257231   1.556   1.205   1.673 -0.2164  0.0441  0.1423
11939TIP3    H157232   1.560   1.122   1.626 -3.4367 -1.0691  1.5916
11939TIP3    H257233   1.642   1.212   1.716  0.1388 -2.5541  0.0381
11940TIP3   OH257234   5.916   2.008  12.724  0.1061 -0.2266 -0.1930
11940TIP3    H157235   5.933   2.081  12.784  3.5192 -2.0465  1.3467
11940TIP3    H257236   5.953   2.036  12.641  1.2825 -0.1068  0.3521
11941TIP3   OH257237   6.470   5.695  16.540  0.3916  0.5321 -0.1486
11941TIP3    H157238   6.557   5.695  16.502 -0.0091  1.5156 -1.1091
11941TIP3    H257239   6.469   5.770  16.599 -0.0431  0.9689 -0.7098
11942TIP3   OH257240   4.176   6.268  11.412 -0.4989 -0.4783 -0.6294
11942TIP3    H157241   4.248   6.208  11.426  0.6047  1.1708  1.4577
11942TIP3    H257242   4.098   6.213  11.405  0.6020 -2.1717  0.0726
11943TIP3   OH257243   0.810   5.136   4.913  0.2880 -0.0582 -0.0844
11943TIP3    H157244   0.789   5.102   4.827 -1.4328  1.1255 -0.1863
11943TIP3    H257245   0.905   5.146   4.913  0.4572 -1.4973 -1.2727
11944TIP3   OH257246   5.624   0.306   6.446 -0.0645 -0.2800  0.6383
11944TIP3    H157247   5.533   0.320   6.417 -0.3080  0.8310  1.8700
11944TIP3    H257248   5.620   0.313   6.541  1.4307  0.4288  0.6715
11945TIP3   OH257249   3.616   5.586   1.973 -0.2237 -0.6222 -0.0035
11945TIP3    H157250   3.565   5.561   2.050  0.8792 -1.0704  0.6174
11945TIP3    H257251   3.653   5.504   1.942 -0.5387 -0.4201 -0.9364
11946TIP3   OH257252   5.875   6.167   6.021 -0.1646 -0.3267  0.0927
11946TIP3    H157253   5.795   6.220   6.020 -0.9034 -1.2952 -3.1017
11946TIP3    H257254   5.932   6.210   5.958  0.5489 -1.4744 -0.0588
11947TIP3   OH257255   4.003   3.864   1.841  0.1777  0.0554  0.1143
11947TIP3    H157256   3.942   3.839   1.771  1.9951 -1.4583 -1.0162
11947TIP3    H257257   4.023   3.956   1.823 -0.2911  0.0163 -0.6671
11948TIP3   OH257258   5.353   6.717   2.852 -0.4039  0.5279  0.8825
11948TIP3    H157259   5.353   6.742   2.944 -1.5753 -0.0911  1.0798
11948TIP3    H257260   5.383   6.626   2.851 -0.2084  0.5922  0.6302
11949TIP3   OH257261   1.260   1.186  16.483  0.1670 -0.4643 -0.2800
11949TIP3    H157262   1.238   1.230  16.402  0.2630  0.8023  0.3636
11949TIP3    H257263   1.186   1.128  16.500 -0.1261 -0.2956 -0.9502
11950TIP3   OH257264   0.971   5.667   5.508  0.0307 -0.6377  0.4232
11950TIP3    H157265   0.981   5.653   5.602 -2.1296  0.4858  0.8826
11950TIP3    H257266   0.949   5.760   5.500  1.2240 -0.4463 -1.3254
11951TIP3   OH257267   3.742   3.439  14.746 -0.4049  0.3058  0.1290
11951TIP3    H157268   3.715   3.373  14.683 -1.2072 -0.3222  1.1036
11951TIP3    H257269   3.793   3.391  14.811 -0.7014  0.6938  0.6583
11952TIP3   OH257270   5.920   2.438  16.414  0.7744  0.1549 -0.2658
11952TIP3    H157271   6.011   2.410  16.426  1.9455  2.6631 -2.1849
11952TIP3    H257272   5.910   2.511  16.476  0.1799  0.0760 -0.2719
11953TIP3   OH257273   6.761   3.569   4.745 -0.4455 -0.3142 -0.1183
11953TIP3    H157274   6.714   3.613   4.674 -0.8353 -1.7440 -0.7751
11953TIP3    H257275   6.693   3.546   4.808 -0.0584  1.2503  0.9254
11954TIP3   OH257276   4.514   3.960  12.503  0.4119  0.5049  0.4029
11954TIP3    H157277   4.509   3.961  12.598  0.4384 -0.5517  0.4311
11954TIP3    H257278   4.428   3.988  12.474  0.0400 -0.2637  0.7488
11955TIP3   OH257279   3.180   0.530   3.074 -0.0836  0.1589  0.0339
11955TIP3    H157280   3.186   0.586   2.997 -2.3783  0.2395 -0.1669
11955TIP3    H257281   3.113   0.572   3.128  0.6822 -0.5030  1.5688
11956TIP3   OH257282   0.302   2.677  15.612 -0.4220 -0.2658 -0.2418
11956TIP3    H157283   0.324   2.729  15.690  2.6224 -0.9485 -0.5243
11956TIP3    H257284   0.355   2.716  15.542 -0.6610 -1.6391 -1.2177
11957TIP3   OH257285   4.627   0.038  15.882 -0.3935  0.1504  0.6977
11957TIP3    H157286   4.563   0.029  15.811  0.6876 -0.0582 -0.2700
11957TIP3    H257287   4.686   0.107  15.852 -0.3041  0.5157  1.6927
11958TIP3   OH257288   6.525   6.689  16.431 -0.4033 -0.4090  0.4717
11958TIP3    H157289   6.503   6.660  16.520  1.4115 -0.7218  0.8551
11958TIP3    H257290   6.475   6.769  16.419 -0.6240 -0.3152  1.8225
11959TIP3   OH257291   5.632   6.172  15.035  0.8717  0.1032  0.0579
11959TIP3    H157292   5.613   6.257  14.996  2.1547  0.5641  0.3659
11959TIP3    H257293   5.687   6.128  14.969  1.6375  0.2115  0.6105
11960TIP3   OH257294   1.413   4.120   3.413  0.4950 -0.2118 -0.2840
11960TIP3    H157295   1.498   4.110   3.370  1.7541  0.8284  1.8018
11960TIP3    H257296   1.414   4.210   3.447 -0.5270 -0.8605  1.5944
11961TIP3   OH257297   4.177   0.334   0.585 -0.7481 -0.3787 -0.0667
11961TIP3    H157298   4.196   0.406   0.645 -2.4889  0.1979 -0.1589
11961TIP3    H257299   4.084   0.343   0.566 -0.4433 -1.1354 -2.0989
11962TIP3   OH257300   0.751   4.942   5.127 -0.5724 -0.2807 -0.0938
11962TIP3    H157301   0.768   4.999   5.052  0.0020 -1.0692 -0.5824
11962TIP3    H257302   0.821   4.962   5.189  1.6717 -2.7300 -1.6380
11963TIP3   OH257303   1.953   1.271   0.519  0.5199 -0.3157 -0.5114
11963TIP3    H157304   1.991   1.238   0.600 -0.4522 -0.2103  0.0020
11963TIP3    H257305   2.020   1.254   0.453  1.1331 -0.8436  0.2236
11964TIP3   OH257306   4.722   4.640  15.770  0.3940 -0.1486 -0.4034
11964TIP3    H157307   4.674   4.582  15.711 -0.0147  0.7172 -0.9374
11964TIP3    H257308   4.689   4.727  15.750  1.3696  0.3335  0.0300
11965TIP3   OH257309   0.330   3.125   3.707  0.1679 -0.5129  0.5113
11965TIP3    H157310   0.291   3.204   3.745 -1.1068 -0.1354 -1.4598
11965TIP3    H257311   0.424   3.145   3.704 -0.2810  1.8076 -1.6679
11966TIP3   OH257312   6.049   6.626  14.727  0.4398  0.2083 -0.0691
11966TIP3    H157313   6.019   6.548  14.681  0.9651 -0.1542  0.1981
11966TIP3    H257314   6.119   6.661  14.671  0.5129  0.2324  0.0371
11967TIP3   OH257315   0.356   0.514   5.727  0.5116  0.0125 -0.4921
11967TIP3    H157316   0.369   0.600   5.689 -1.5576  0.7034  0.2398
11967TIP3    H257317   0.443   0.474   5.726  1.2425  1.5165 -2.1841
11968TIP3   OH257318   0.653   3.813   6.912  0.1396 -0.5042  0.5763
11968TIP3    H157319   0.637   3.725   6.875  0.5202 -0.6481  0.7427
11968TIP3    H257320   0.744   3.831   6.889  0.1870 -0.3262  0.9037
11969TIP3   OH257321   0.537   6.272   5.804  0.1186  0.0167  0.0444
11969TIP3    H157322   0.557   6.270   5.897 -0.9631 -2.7445  0.3431
11969TIP3    H257323   0.620   6.257   5.760  0.5605  0.8792  0.5741
11970TIP3   OH257324   6.166   2.200  14.596 -0.1008 -0.3219 -0.1979
11970TIP3    H157325   6.126   2.280  14.560 -1.2263 -2.1673 -3.4923
11970TIP3    H257326   6.148   2.204  14.689 -2.0334  2.2105 -0.5626
11971TIP3   OH257327   5.258   2.653   4.844 -0.1471  0.5409  0.8957
11971TIP3    H157328   5.186   2.640   4.782 -0.0610  0.5514  0.7944
11971TIP3    H257329   5.234   2.597   4.919 -0.2493  0.5265  0.8536
11972TIP3   OH257330   3.156   3.320  10.992 -0.4011 -0.1185  0.6376
11972TIP3    H157331   3.161   3.367  10.909 -1.4915 -0.3720  0.4117
11972TIP3    H257332   3.224   3.360  11.046 -0.0556  0.4341 -0.1826
11973TIP3   OH257333   3.684   5.645   5.646 -0.0434 -0.3026  0.0711
11973TIP3    H157334   3.693   5.551   5.633 -1.1875 -0.2707 -1.1735
11973TIP3    H257335   3.760   5.669   5.699  2.4542 -1.3064 -2.7349
11974TIP3   OH257336   2.608   2.337  14.461 -0.3051  0.5546  0.2020
11974TIP3    H157337   2.545   2.266  14.466  0.7837 -0.4088  0.9264
11974TIP3    H257338   2.557   2.416  14.475 -1.2978 -0.2174  1.0819
11975TIP3   OH257339   6.023   5.611   5.029  1.0067 -0.1779 -0.1737
11975TIP3    H157340   6.065   5.641   5.109  0.1994  1.3919 -0.3022
11975TIP3    H257341   5.930   5.634   5.040  0.9430  0.4538 -1.6987
11976TIP3   OH257342   5.454   0.465   4.962  0.5522 -0.0349  0.3248
11976TIP3    H157343   5.541   0.470   4.999  1.2977  1.4548 -1.4675
11976TIP3    H257344   5.468   0.447   4.869 -1.0028  0.6823 -0.0935
11977TIP3   OH257345   3.038   0.746  12.863  0.4370 -0.1473 -0.4218
11977TIP3    H157346   3.059   0.831  12.902  0.4566  0.1913 -1.1570
11977TIP3    H257347   3.039   0.762  12.768 -0.7608 -0.6889 -0.5408
11978TIP3   OH257348   4.768   1.894  11.422  0.5544  0.6665 -0.1503
11978TIP3    H157349   4.783   1.825  11.358 -0.8628 -0.7085  0.9135
11978TIP3    H257350   4.827   1.874  11.495 -1.2935 -0.7412  1.0648
11979TIP3   OH257351   4.955   2.372   6.217 -0.1810 -0.1413 -0.2347
11979TIP3    H157352   4.866   2.353   6.245  0.2273 -1.7692  0.0850
11979TIP3    H257353   5.010   2.318   6.274  0.8784 -0.7637 -1.7678
11980TIP3   OH257354   5.585   4.381   1.032 -0.0071 -0.2257  0.2662
11980TIP3    H157355   5.503   4.426   1.055 -0.6005 -1.6804  1.1367
11980TIP3    H257356   5.628   4.364   1.116  0.6294 -0.5085 -0.1059
11981TIP3   OH257357   3.235   1.775  11.308  0.1796  0.1618  0.0782
11981TIP3    H157358   3.147   1.798  11.339 -1.1179 -1.3352 -2.2159
11981TIP3    H257359   3.282   1.750  11.388 -0.8076  2.8013  1.6001
11982TIP3   OH257360   3.176   3.755   4.899 -0.3595 -0.0210 -0.4898
11982TIP3    H157361   3.263   3.778   4.868 -0.9891  3.3865 -0.0400
11982TIP3    H257362   3.124   3.746   4.818 -0.2082  0.8513 -0.6959
11983TIP3   OH257363   4.541   1.162  14.529 -0.7607 -0.2839  0.0168
11983TIP3    H157364   4.470   1.145  14.590 -0.4182 -0.5420  0.3538
11983TIP3    H257365   4.619   1.129  14.574 -0.5816 -1.0311 -0.7994
11984TIP3   OH257366   5.649   4.528   1.553 -0.1703  0.4461  1.1593
11984TIP3    H157367   5.705   4.589   1.600  1.5799 -0.6681  0.6341
11984TIP3    H257368   5.620   4.465   1.619  0.0888  0.4032  1.2304
11985TIP3   OH257369   3.538   3.962   3.260  0.3049 -0.1091  0.6847
11985TIP3    H157370   3.452   3.952   3.301  0.0876  0.4750  0.3855
11985TIP3    H257371   3.520   3.964   3.166  0.5494  0.8250  0.6493
11986TIP3   OH257372   6.676   6.060   1.446 -0.3408  0.0366  0.4974
11986TIP3    H157373   6.699   6.125   1.380  0.9207 -0.5506  0.3273
11986TIP3    H257374   6.675   6.108   1.529  0.5323  0.2833  0.3682
11987TIP3   OH257375   3.487   1.308   6.217  0.3542  0.3225 -0.5058
11987TIP3    H157376   3.438   1.386   6.191 -1.8649 -0.7370  0.2053
11987TIP3    H257377   3.490   1.313   6.313 -1.0911 -1.0899 -0.3290
11988TIP3   OH257378   0.706   4.769  12.631  0.2125 -0.1637  0.1410
11988TIP3    H157379   0.741   4.731  12.551  0.3036 -0.2168  0.2067
11988TIP3    H257380   0.677   4.857  12.605 -3.1895 -1.4195 -0.8853
11989TIP3   OH257381   4.189   3.220  16.561 -0.7678 -0.1212  0.6942
11989TIP3    H157382   4.215   3.273  16.636 -5.3118  3.3086  0.2788
11989TIP3    H257383   4.135   3.150  16.598 -0.3705 -0.3873  0.7804
11990TIP3   OH257384   2.977   2.277   2.446 -0.6139  0.8685 -0.1099
11990TIP3    H157385   2.882   2.263   2.444 -0.6219  0.4986  1.5724
11990TIP3    H257386   3.005   2.241   2.530  1.3747 -1.0854 -1.4987
11991TIP3   OH257387   5.883   0.096   0.410 -0.3934 -0.1892  0.1386
11991TIP3    H157388   5.816   0.030   0.429 -0.3284 -0.0982  0.7229
11991TIP3    H257389   5.917   0.072   0.324 -0.8964 -0.4711  0.0131
11992TIP3   OH257390   0.874   5.688   5.964 -0.2346  0.4671 -0.1441
11992TIP3    H157391   0.824   5.620   6.008 -2.3916  1.6633 -0.6139
11992TIP3    H257392   0.900   5.748   6.034 -1.4369  1.0032 -0.1238
11993TIP3   OH257393   4.441   1.016   2.665 -0.0175 -0.2566  0.2940
11993TIP3    H157394   4.528   0.993   2.696  0.3391  0.8173  0.1055
11993TIP3    H257395   4.399   0.931   2.650 -0.0336 -0.8343  3.1037
11994TIP3   OH257396   4.557   6.123  15.914  0.3964  0.3784 -0.0920
11994TIP3    H157397   4.603   6.193  15.960 -1.0255  0.6152  1.0767
11994TIP3    H257398   4.465   6.149  15.918 -0.2839 -1.9399  1.1580
11995TIP3   OH257399   1.446   3.747  13.284 -0.0227 -0.1568 -0.2809
11995TIP3    H157400   1.396   3.810  13.336  1.2944  1.3927 -0.8143
11995TIP3    H257401   1.489   3.691  13.349 -1.5840 -0.8822  0.1913
11996TIP3   OH257402   2.928   6.639  16.479  0.1542  0.5510 -0.7106
11996TIP3    H157403   2.984   6.686  16.542  0.6151  0.1349 -0.8018
11996TIP3    H257404   2.879   6.577  16.532  1.2240 -0.4540 -0.8536
11997TIP3   OH257405   0.112   1.888   2.251  0.2611 -0.1033 -0.2024
11997TIP3    H157406   0.031   1.919   2.292  0.6053  0.1206  0.3220
11997TIP3    H257407   0.103   1.793   2.247 -0.8241  0.0301 -1.8654
11998TIP3   OH257408   0.635   4.330  12.084 -0.1831 -0.6103 -0.2770
11998TIP3    H157409   0.557   4.385  12.093  1.1746  1.6083 -1.2413
11998TIP3    H257410   0.618   4.254  12.140 -2.0647  0.9048  1.3284
11999TIP3   OH257411   5.586   5.679   1.527 -0.0913 -0.2106  0.6956
11999TIP3    H157412   5.594   5.682   1.623 -0.9628  3.0869  0.7842
11999TIP3    H257413   5.495   5.652   1.512  0.0571 -0.7693  0.7825
12000TIP3   OH257414   1.035   3.120   2.803  0.3001 -0.2687  0.2217
12000TIP3    H157415   1.067   3.188   2.863  0.6374 -1.4688  1.4710
12000TIP3    H257416   1.038   3.040   2.855 -0.5523 -1.1659 -1.0562
12001TIP3   OH257417   3.192   4.710   4.165 -0.9342  0.0354  0.2681
12001TIP3    H157418   3.236   4.697   4.081 -0.2539  1.1144  0.4387
12001TIP3    H257419   3.142   4.629   4.179  1.8192 -1.7551  0.5777
12002TIP3   OH257420   2.516   4.941   0.716 -0.3575 -0.6133  0.6532
12002TIP3    H157421   2.466   4.936   0.797  1.1020  0.3325  1.6518
12002TIP3    H257422   2.535   5.034   0.705 -1.0857 -0.6269 -1.1541
12003TIP3   OH257423   3.193   1.636   2.361  0.5119  0.8313 -0.4554
12003TIP3    H157424   3.172   1.657   2.453  1.2009  2.3963 -0.6225
12003TIP3    H257425   3.151   1.706   2.311 -0.7442 -0.5937 -1.4450
12004TIP3   OH257426   4.190   1.961   6.503 -0.0792 -0.0096 -0.4003
12004TIP3    H157427   4.201   2.053   6.528  1.5850 -0.1039 -0.7158
12004TIP3    H257428   4.154   1.964   6.415 -1.9313  0.3110  0.3175
12005TIP3   OH257429   5.845   5.780  15.524  0.0444 -0.6907 -0.2126
12005TIP3    H157430   5.752   5.801  15.528  0.1641 -0.3359  0.8758
12005TIP3    H257431   5.859   5.719  15.596  0.7041 -0.5328 -0.2029
12006TIP3   OH257432   2.952   1.150  13.405 -0.3118 -0.5289  0.2662
12006TIP3    H157433   2.966   1.134  13.498  0.6109  0.2284  0.2700
12006TIP3    H257434   3.040   1.152  13.368 -0.6942 -1.3637 -0.7227
12007TIP3   OH257435   0.103   2.672   3.523  0.3078 -0.5597  0.1651
12007TIP3    H157436   0.024   2.699   3.571  2.2900  1.9092  2.3703
12007TIP3    H257437   0.072   2.656   3.434 -2.3797  2.5471  0.3239
12008TIP3   OH257438   6.401   0.072  13.439 -0.3297 -0.5936  0.6286
12008TIP3    H157439   6.452   0.151  13.454  1.9557 -2.1245  1.5482
12008TIP3    H257440   6.392   0.033  13.526 -0.8806 -1.6395  0.1191
12009TIP3   OH257441   5.946   4.663   1.197  0.0034 -0.2128  0.0431
12009TIP3    H157442   5.850   4.661   1.195 -0.0609  1.4122 -0.0184
12009TIP3    H257443   5.970   4.588   1.250 -1.4699  1.1872  2.9109
12010TIP3   OH257444   0.491   6.504  14.066 -0.1868  0.1003 -0.7835
12010TIP3    H157445   0.557   6.562  14.103  0.3257  1.4403 -3.5601
12010TIP3    H257446   0.409   6.552  14.076 -0.6409 -1.0371  1.5607
12011TIP3   OH257447   4.624   2.568  12.343 -0.4830  0.3244  0.8853
12011TIP3    H157448   4.669   2.572  12.258 -1.4373 -1.0835  0.2660
12011TIP3    H257449   4.659   2.489  12.384 -1.7740 -0.3679  0.7176
12012TIP3   OH257450   1.350   5.961  12.654 -0.4926 -0.2720  0.0314
12012TIP3    H157451   1.337   5.915  12.737  0.4429 -0.7648 -0.0792
12012TIP3    H257452   1.406   6.036  12.677 -0.6606 -0.1153 -0.0673
12013TIP3   OH257453   1.225   3.547   3.900 -0.3736  0.2791  0.8584
12013TIP3    H157454   1.223   3.456   3.930 -0.0389 -0.4872 -1.2353
12013TIP3    H257455   1.175   3.595   3.966 -3.7224 -2.0175  0.2794
12014TIP3   OH257456   1.106   4.207   5.439 -0.0690 -0.0476  0.5838
12014TIP3    H157457   1.148   4.146   5.499  1.9311  0.6669  0.0069
12014TIP3    H257458   1.158   4.287   5.446 -0.1425  0.2581 -1.5841
12015TIP3   OH257459   6.159   2.141   3.311  0.2571  0.3141  0.0300
12015TIP3    H157460   6.190   2.186   3.233 -0.3106 -1.5399 -1.3278
12015TIP3    H257461   6.110   2.066   3.278  0.2560 -0.7069  2.1681
12016TIP3   OH257462   0.592   1.684   1.761 -0.5449 -0.0312  0.6657
12016TIP3    H157463   0.566   1.624   1.831 -1.0482 -1.9360 -1.0794
12016TIP3    H257464   0.683   1.662   1.743 -0.0641  1.2057  1.3707
12017TIP3   OH257465   5.882   3.320   2.958  0.1276 -0.0495 -0.2414
12017TIP3    H157466   5.971   3.303   2.986  0.6647  1.0751 -1.1447
12017TIP3    H257467   5.828   3.258   3.007  1.4237 -0.9259  0.1167
12018TIP3   OH257468   2.252   0.626   4.955 -0.4681 -0.4930  0.1765
12018TIP3    H157469   2.257   0.582   4.871 -1.2773 -0.5397  0.1469
12018TIP3    H257470   2.166   0.667   4.956 -0.1104  0.2723  0.6092
12019TIP3   OH257471   6.215   3.750  14.809  0.0246 -0.0244 -0.5723
12019TIP3    H157472   6.136   3.697  14.808 -1.5285  2.1629 -1.2959
12019TIP3    H257473   6.213   3.795  14.894 -0.2686  1.0767 -1.1496
12020TIP3   OH257474   1.364   6.083   3.669  0.0238 -0.1519  0.0776
12020TIP3    H157475   1.445   6.081   3.619 -0.3000 -1.2976 -0.4384
12020TIP3    H257476   1.299   6.120   3.609  0.1074  0.5608  0.4169
12021TIP3   OH257477   3.344   1.261  16.909  0.2106  0.2856 -0.2209
12021TIP3    H157478   3.323   1.346  16.949  0.0628  0.7284 -1.2048
12021TIP3    H257479   3.294   1.260  16.828  0.6394 -0.5199 -0.4845
12022TIP3   OH257480   2.277   5.161   3.973 -0.0638 -0.1736  0.1305
12022TIP3    H157481   2.232   5.138   3.892  1.8332 -0.6167 -0.8486
12022TIP3    H257482   2.319   5.245   3.954  0.4938 -0.3357  0.6121
12023TIP3   OH257483   2.914   4.013  14.136 -1.0204 -0.0382  0.8464
12023TIP3    H157484   2.953   4.044  14.218 -1.4645  2.9633  0.0465
12023TIP3    H257485   2.948   4.073  14.070 -0.8478 -2.2483 -1.1887
12024TIP3   OH257486   2.968   3.733   5.059 -0.4788 -0.6758 -0.1911
12024TIP3    H157487   3.045   3.722   5.003 -0.5430 -0.4961 -0.3163
12024TIP3    H257488   2.984   3.675   5.134  0.2323  0.0798  0.2616
12025TIP3   OH257489   5.439   4.926   5.449 -0.5382  0.4331 -0.1038
12025TIP3    H157490   5.403   4.986   5.514 -1.2920 -0.2093  0.0804
12025TIP3    H257491   5.389   4.944   5.370  0.1434  0.9717 -0.4237
12026TIP3   OH257492   6.235   3.718   3.092 -0.1502 -0.3901 -0.3864
12026TIP3    H157493   6.205   3.786   3.152  2.4156  1.5688 -1.1118
12026TIP3    H257494   6.185   3.733   3.012 -0.9408 -0.6053  0.0566
12027TIP3   OH257495   3.484   0.736  11.922  0.3790 -0.1418 -0.0069
12027TIP3    H157496   3.519   0.821  11.949 -0.6770  0.4492 -0.4370
12027TIP3    H257497   3.548   0.702  11.860 -0.7673  1.9371 -2.5204
12028TIP3   OH257498   4.572   6.027   5.036  0.1840  0.1873  0.2653
12028TIP3    H157499   4.589   5.994   5.124  0.2401 -1.0336 -0.1889
12028TIP3    H257500   4.477   6.026   5.028  0.1699  0.4750  0.3654
12029TIP3   OH257501   5.003   5.516   1.012 -0.2595  0.1513  0.0951
12029TIP3    H157502   5.086   5.480   0.982 -0.3809  1.7030 -2.3206
12029TIP3    H257503   5.015   5.611   1.009 -1.5843  0.3967  1.3876
12030TIP3   OH257504   4.291   2.467   1.552 -0.1555 -0.2153  0.6683
12030TIP3    H157505   4.351   2.443   1.481  0.2465 -0.7469  1.1772
12030TIP3    H257506   4.348   2.497   1.622 -0.5135 -0.2795  0.9882
12031TIP3   OH257507   0.584   6.476   0.159  0.4490 -0.1221 -0.2238
12031TIP3    H157508   0.550   6.491   0.071 -2.2927 -1.2855  0.5356
12031TIP3    H257509   0.588   6.380   0.168 -1.5361 -0.1137  1.6196
12032TIP3   OH257510   3.184   6.242  14.581 -0.7305  0.1128  0.4926
12032TIP3    H157511   3.241   6.233  14.658  0.3120 -1.0644 -0.3611
12032TIP3    H257512   3.197   6.332  14.551  0.8365 -0.1658  0.2396
12033TIP3   OH257513   1.132   4.444   2.497 -0.0363 -0.5433  0.6822
12033TIP3    H157514   1.040   4.462   2.518 -0.0323  0.4457 -0.0936
12033TIP3    H257515   1.136   4.349   2.486 -0.6229 -0.7900  2.2844
12034TIP3   OH257516   5.577   6.393  16.928  0.1631 -0.2251 -0.4000
12034TIP3    H157517   5.561   6.307  16.968  1.6491  0.0146  0.7549
12034TIP3    H257518   5.497   6.443  16.947  0.4604 -0.4215  1.4753
12035TIP3   OH257519   6.421   1.202  14.913  0.2370  0.9862  0.3441
12035TIP3    H157520   6.353   1.263  14.941  1.4981  2.0978  1.0813
12035TIP3    H257521   6.440   1.228  14.822 -1.0856 -0.0542 -0.2445
12036TIP3   OH257522   2.272   5.790   4.884 -0.2456  0.2294 -0.3394
12036TIP3    H157523   2.222   5.867   4.909  1.1282  1.2004 -0.4571
12036TIP3    H257524   2.243   5.770   4.795  1.1749  2.2057 -1.3236
12037TIP3   OH257525   3.276   6.069   4.350  0.1744  0.0316 -0.0476
12037TIP3    H157526   3.209   6.135   4.369 -2.2233 -1.5811 -2.1468
12037TIP3    H257527   3.272   6.009   4.425  1.1264  1.2713  1.0339
12038TIP3   OH257528   0.922   6.511  15.021 -0.0151  0.2332  0.6675
12038TIP3    H157529   0.867   6.504  14.943  0.3104  0.3297  0.4247
12038TIP3    H257530   0.928   6.422  15.055  0.8135 -0.0183 -0.0991
12039TIP3   OH257531   4.062   1.719  15.145 -0.1056 -0.0503 -0.8060
12039TIP3    H157532   4.093   1.629  15.156  2.4332  0.7871 -0.5285
12039TIP3    H257533   4.057   1.754  15.234 -1.1678  0.0908 -0.9054
12040TIP3   OH257534   6.707   4.757   4.754  0.0163 -0.7536  0.0418
12040TIP3    H157535   6.755   4.680   4.722 -0.4342 -1.1412  0.2819
12040TIP3    H257536   6.754   4.783   4.833  0.7102 -0.2232 -0.5245
12041TIP3   OH257537   0.633   5.498   5.376  1.1385 -0.5091  0.2369
12041TIP3    H157538   0.541   5.514   5.356  1.5023  0.6538 -0.6117
12041TIP3    H257539   0.651   5.412   5.338  0.8140 -0.0201 -1.0840
12042TIP3   OH257540   0.404   3.320  14.295 -0.6594 -0.9373 -0.2760
12042TIP3    H157541   0.487   3.272  14.295 -0.2257 -0.2066  0.4346
12042TIP3    H257542   0.353   3.278  14.364 -0.1441 -0.1690  0.5896
12043TIP3   OH257543   1.508   0.385   2.820 -0.2139  0.0857 -0.5753
12043TIP3    H157544   1.502   0.480   2.826  1.3792  0.1294  1.4330
12043TIP3    H257545   1.581   0.370   2.759 -0.8894  0.1036 -1.4109
12044TIP3   OH257546   3.453   0.558   5.388 -0.0945 -0.2819 -0.0573
12044TIP3    H157547   3.490   0.491   5.446  0.8297  1.8338  1.9561
12044TIP3    H257548   3.378   0.593   5.437 -1.6747 -0.9740 -1.8615
12045TIP3   OH257549   5.061   0.559  11.702  0.2611  0.1846  0.1598
12045TIP3    H157550   4.997   0.607  11.755  0.0344 -0.8382  0.8558
12045TIP3    H257551   5.014   0.479  11.677  0.5465  0.4262 -1.1668
12046TIP3   OH257552   2.622   6.587   3.868 -0.2639 -0.0291 -0.4566
12046TIP3    H157553   2.621   6.669   3.819 -1.6229 -0.3312 -0.9874
12046TIP3    H257554   2.530   6.565   3.880  0.0746 -1.1871  0.1836
12047TIP3   OH257555   4.527   1.681   3.694 -0.1133  0.4315  0.1060
12047TIP3    H157556   4.449   1.698   3.747  0.1003  1.4393  0.1035
12047TIP3    H257557   4.540   1.761   3.643 -0.5957 -0.6506 -1.8361
12048TIP3   OH257558   1.947   4.080  13.246 -0.0956  0.5092  0.4184
12048TIP3    H157559   1.879   4.113  13.306  0.1723  0.0156  1.0026
12048TIP3    H257560   1.953   3.987  13.266 -1.1230  0.0000 -1.4979
12049TIP3   OH257561   1.229   1.473  15.960  0.1226 -0.2504  0.4296
12049TIP3    H157562   1.320   1.444  15.951 -0.0472 -0.4543 -0.7461
12049TIP3    H257563   1.235   1.555  16.011  0.8488 -0.8360  1.3201
12050TIP3   OH257564   2.421   4.711  15.902  0.2663  0.1194  0.4621
12050TIP3    H157565   2.421   4.621  15.869 -2.6102  0.4634 -0.7866
12050TIP3    H257566   2.485   4.757  15.846  0.9489 -0.8952  0.3889
12051TIP3   OH257567   6.231   0.353  14.914 -0.0736  0.1386 -0.5985
12051TIP3    H157568   6.199   0.300  14.986  0.4985 -0.7315 -0.9695
12051TIP3    H257569   6.155   0.366  14.857 -0.3659  0.2688 -0.1825
12052TIP3   OH257570   5.489   5.530   6.108 -0.3435  0.3160  0.2962
12052TIP3    H157571   5.558   5.573   6.057 -1.5494  0.4302 -1.3241
12052TIP3    H257572   5.432   5.602   6.137 -0.9579  0.0649 -0.2474
12053TIP3   OH257573   3.957   1.609   0.297 -0.2410 -0.2000 -0.4696
12053TIP3    H157574   4.048   1.630   0.278 -0.3420 -0.8300 -1.7551
12053TIP3    H257575   3.909   1.635   0.218 -1.6426  2.7734  1.1533
12054TIP3   OH257576   3.078   4.388   3.427  0.7897 -0.5305 -0.5515
12054TIP3    H157577   3.038   4.397   3.341 -0.7211 -0.9897  0.0820
12054TIP3    H257578   3.022   4.439   3.486  0.3545 -2.2506  0.5823
12055TIP3   OH257579   5.061   0.583   6.081 -0.2142  0.2058  0.7368
12055TIP3    H157580   5.028   0.567   6.169 -1.2684 -0.5927  0.2234
12055TIP3    H257581   5.107   0.666   6.087  1.5393 -0.8128  2.5120
12056TIP3   OH257582   4.964   3.937   2.230  0.2954 -1.0999 -0.2844
12056TIP3    H157583   4.879   3.910   2.194  0.6183 -1.0930 -1.0720
12056TIP3    H257584   4.987   4.016   2.181  0.8956 -1.2667 -0.2804
12057TIP3   OH257585   5.555   1.082  15.845  0.4771  0.5303 -0.3278
12057TIP3    H157586   5.583   1.115  15.760 -0.6246 -0.1659 -0.9851
12057TIP3    H257587   5.526   1.159  15.893 -1.5627  0.6489 -1.6466
12058TIP3   OH257588   0.750   1.186  16.568 -0.1582 -0.5819 -0.3439
12058TIP3    H157589   0.782   1.165  16.480  0.7783  0.7218 -0.3500
12058TIP3    H257590   0.827   1.222  16.613 -0.9386 -0.0446  0.5988
12059TIP3   OH257591   3.128   6.657  16.935  0.0768  0.3470  0.0247
12059TIP3    H157592   3.203   6.711  16.961  1.0401 -0.9788  0.1237
12059TIP3    H257593   3.165   6.591  16.876 -1.0609 -0.1801 -0.1283
12060TIP3   OH257594   3.414   4.468   0.226  0.6101 -0.1048 -0.1709
12060TIP3    H157595   3.345   4.418   0.270  0.1258  0.6299 -0.0817
12060TIP3    H257596   3.476   4.490   0.295  0.2455  0.3801  0.0098
12061TIP3   OH257597   5.949   5.421   6.846 -0.4939  0.2393 -0.2077
12061TIP3    H157598   6.006   5.471   6.788  2.2371 -0.5110  1.6315
12061TIP3    H257599   5.979   5.331   6.837 -2.1178 -0.3699  0.1020
12062TIP3   OH257600   4.495   3.282   4.565  0.2761  0.5079 -0.1769
12062TIP3    H157601   4.493   3.339   4.642  0.2599 -2.2726  2.0450
12062TIP3    H257602   4.585   3.248   4.564  1.2029  2.6076 -3.2110
12063TIP3   OH257603   4.671   2.343  13.983 -0.3728  0.0534  0.5938
12063TIP3    H157604   4.743   2.281  13.975 -0.8277 -0.4228  0.1137
12063TIP3    H257605   4.709   2.427  13.960  0.0023 -0.2222  0.1931
12064TIP3   OH257606   5.356   2.122  11.063 -0.2964  0.8039 -0.6106
12064TIP3    H157607   5.323   2.066  11.133  1.2373 -2.4853 -2.2849
12064TIP3    H257608   5.424   2.174  11.104  0.3791 -0.8473  0.4864
12065TIP3   OH257609   5.621   3.042  13.679  0.4431 -0.8571 -0.8099
12065TIP3    H157610   5.654   3.046  13.768  1.2478  0.0524 -1.1303
12065TIP3    H257611   5.675   2.976  13.636 -0.5832 -2.0061 -0.3919
12066TIP3   OH257612   6.230   0.050   0.727  0.6239  0.4218  0.2733
12066TIP3    H157613   6.206   0.030   0.817 -2.3238 -0.3046 -0.5566
12066TIP3    H257614   6.161   0.108   0.696  1.7028  0.8580 -1.4687
12067TIP3   OH257615   3.067   3.970  12.769  0.1583  0.6022  0.1902
12067TIP3    H157616   2.987   3.938  12.726  0.8141 -0.9590  0.0565
12067TIP3    H257617   3.035   4.025  12.840 -1.2313 -2.2851  2.0308
12068TIP3   OH257618   4.080   5.975  14.875  0.0294  0.0813 -0.0007
12068TIP3    H157619   4.169   5.958  14.906 -0.6738  0.0070  2.1584
12068TIP3    H257620   4.024   5.926  14.936 -1.5093  0.3989 -1.1014
12069TIP3   OH257621   0.546   0.767   3.372  0.2829  0.1810 -0.0460
12069TIP3    H157622   0.606   0.708   3.418 -0.0460 -0.3273 -0.2569
12069TIP3    H257623   0.503   0.817   3.441  1.3775  0.9868  0.0808
12070TIP3   OH257624   3.002   6.739  12.930 -0.1115 -0.0330 -0.1679
12070TIP3    H157625   3.027   6.763  13.019  0.7413  1.4698 -0.7647
12070TIP3    H257626   2.956   6.816  12.897  2.2517  0.7214 -1.9995
12071TIP3   OH257627   4.650   5.103   2.891  0.3984  0.0350 -0.0448
12071TIP3    H157628   4.660   5.038   2.960  1.5275  0.8055  0.5572
12071TIP3    H257629   4.700   5.069   2.817 -0.0413 -0.3558 -0.1628
12072TIP3   OH257630   3.430   0.779  16.037 -0.0423  0.2923 -0.4114
12072TIP3    H157631   3.524   0.762  16.045  0.2377  1.5922 -0.6782
12072TIP3    H257632   3.424   0.850  15.972 -1.0964  1.2639  0.7013
12073TIP3   OH257633   0.227   2.428  15.666  1.0391  0.0052  0.6660
12073TIP3    H157634   0.261   2.515  15.644  1.1029 -0.3362 -0.6742
12073TIP3    H257635   0.241   2.376  15.587 -1.1171 -0.5961  0.6323
12074TIP3   OH257636   6.192   0.288  15.869  0.3916 -0.2061 -0.0342
12074TIP3    H157637   6.173   0.302  15.777 -3.8726 -0.7028  0.5370
12074TIP3    H257638   6.258   0.219  15.870  1.3415  0.5607 -2.6422
12075TIP3   OH257639   2.419   6.006  17.214 -0.0006  0.5168  0.1037
12075TIP3    H157640   2.437   5.982  17.123  1.3967 -0.1994  0.5339
12075TIP3    H257641   2.500   6.046  17.245 -0.4469  0.7227  1.0558
12076TIP3   OH257642   2.633   5.827  16.034  0.1883  0.0406  0.0714
12076TIP3    H157643   2.602   5.913  16.006 -0.4613  0.3430  1.6201
12076TIP3    H257644   2.693   5.845  16.106  1.6804 -0.7204 -0.9219
12077TIP3   OH257645   5.165   3.353   6.192 -0.1303  0.0835  0.4459
12077TIP3    H157646   5.191   3.353   6.099  0.0485  1.6319  0.4563
12077TIP3    H257647   5.233   3.405   6.235 -0.3023 -0.4864  1.4226
12078TIP3   OH257648   0.324   3.717   0.611  0.2190  0.3726 -0.1181
12078TIP3    H157649   0.384   3.732   0.684 -1.7626  0.2126  1.6384
12078TIP3    H257650   0.258   3.786   0.619  0.0685  0.4884 -1.9161
12079TIP3   OH257651   2.488   0.846  12.279 -0.1095  0.0404  0.2419
12079TIP3    H157652   2.435   0.902  12.222 -0.2000 -0.4735 -0.1867
12079TIP3    H257653   2.442   0.846  12.363 -0.7840 -0.3768 -0.1140
12080TIP3   OH257654   2.461   6.111  12.550 -0.2355 -0.0371  0.1505
12080TIP3    H157655   2.420   6.108  12.464  0.1054  0.6635 -0.0397
12080TIP3    H257656   2.552   6.133  12.533 -0.1482  0.0400  0.6860
12081TIP3   OH257657   2.024   5.517   2.455  0.3938 -0.6204  0.3717
12081TIP3    H157658   2.103   5.566   2.475  0.2122  0.0088 -0.4330
12081TIP3    H257659   1.956   5.557   2.510  0.3831 -0.4033  0.1978
12082TIP3   OH257660   1.096   5.773   0.269 -0.0562 -0.6609 -0.1680
12082TIP3    H157661   1.177   5.802   0.228 -1.1239 -0.0228 -1.9320
12082TIP3    H257662   1.066   5.849   0.319  0.2202 -0.7733  0.1756
12083TIP3   OH257663   0.358   3.290  16.027  0.3481  0.4445 -0.1662
12083TIP3    H157664   0.371   3.202  15.993 -0.3166  0.0399  0.6194
12083TIP3    H257665   0.399   3.347  15.961  0.9881 -0.4524 -0.5549
12084TIP3   OH257666   3.893   4.174  12.898 -0.0767 -0.5344 -0.1809
12084TIP3    H157667   3.877   4.085  12.930 -3.8649 -0.0290 -0.2484
12084TIP3    H257668   3.871   4.231  12.972  1.9764  0.4540 -0.2449
12085TIP3   OH257669   4.312   6.707   0.074  0.5325  0.0660  0.7017
12085TIP3    H157670   4.239   6.729   0.132  0.8361  1.6560  0.5406
12085TIP3    H257671   4.338   6.619   0.100 -1.1488 -0.3560  1.0538
12086TIP3   OH257672   2.864   5.692   1.828 -0.6073  0.1063 -0.3589
12086TIP3    H157673   2.950   5.730   1.850 -1.7518  2.2064  0.8265
12086TIP3    H257674   2.880   5.643   1.748  1.8979 -0.3232  0.3020
12087TIP3   OH257675   1.594   6.631  13.391  0.1050  0.2167 -0.5781
12087TIP3    H157676   1.536   6.672  13.328 -1.8337 -1.4455  0.0143
12087TIP3    H257677   1.566   6.666  13.476 -0.1472 -0.6702 -0.2782
12088TIP3   OH257678   2.247   6.258  16.169 -0.2920  0.0774  0.5071
12088TIP3    H157679   2.226   6.254  16.075 -0.5577  2.2376  0.4179
12088TIP3    H257680   2.185   6.321  16.205  2.1619  2.1681  1.3813
12089TIP3   OH257681   3.701   1.709  11.757  0.7302  0.1448 -0.6869
12089TIP3    H157682   3.677   1.787  11.807  1.5152 -0.0106 -0.0357
12089TIP3    H257683   3.635   1.702  11.689 -1.8253 -0.9818  1.7181
12090TIP3   OH257684   4.952   1.463   3.096 -0.0902  0.3003  0.2364
12090TIP3    H157685   4.929   1.555   3.106  0.2880  0.6019 -1.4300
12090TIP3    H257686   4.961   1.450   3.002 -0.5660 -1.5531  0.4033
12091TIP3   OH257687   5.476   2.166   3.387  0.5268  0.2284 -0.2538
12091TIP3    H157688   5.380   2.171   3.388  0.4785 -0.6308 -0.0611
12091TIP3    H257689   5.496   2.084   3.431  1.2852 -0.4742 -1.8295
12092TIP3   OH257690   4.868   6.740   4.258 -0.0511 -0.1526 -0.0723
12092TIP3    H157691   4.825   6.818   4.291  1.4727  1.0191 -0.7280
12092TIP3    H257692   4.867   6.750   4.163  1.6591 -0.0324 -0.1216
12093TIP3   OH257693   1.475   6.682  16.568  0.0989 -0.4015  0.7672
12093TIP3    H157694   1.566   6.672  16.598  0.0705 -1.0604  0.6419
12093TIP3    H257695   1.480   6.752  16.502  0.3260  0.3402  1.5483
12094TIP3   OH257696   5.368   6.108   5.319 -0.3467  0.2163 -0.3252
12094TIP3    H157697   5.315   6.159   5.258 -0.9484  1.7393  1.3713
12094TIP3    H257698   5.385   6.168   5.391  1.1063 -1.2279  0.6008
12095TIP3   OH257699   2.694   6.658  12.629 -0.2453 -0.2693  0.3347
12095TIP3    H157700   2.785   6.670  12.654  0.3548  0.9971 -2.0527
12095TIP3    H257701   2.686   6.565  12.609  1.2978 -0.0449 -1.7513
12096TIP3   OH257702   3.590   1.196  15.102  0.6283 -0.4565 -0.5754
12096TIP3    H157703   3.585   1.289  15.124 -2.3690 -0.7708  0.5402
12096TIP3    H257704   3.650   1.159  15.167  0.8353  0.4724 -0.2158
12097TIP3   OH257705   6.008   0.172   2.740  0.2364 -0.0143 -0.3626
12097TIP3    H157706   6.044   0.201   2.824  0.8744 -1.4814 -0.0946
12097TIP3    H257707   5.926   0.222   2.730 -0.5408 -0.7660  1.7844
12098TIP3   OH257708   5.894   1.213   3.230 -0.2145  0.4724  0.6346
12098TIP3    H157709   5.900   1.149   3.302 -0.8862 -0.1943  0.1131
12098TIP3    H257710   5.801   1.232   3.222 -0.7194 -2.2649 -2.3950
12099TIP3   OH257711   5.876   2.207  10.662 -0.0083  0.1471  0.2418
12099TIP3    H157712   5.943   2.244  10.718  0.0273  0.5036 -0.0344
12099TIP3    H257713   5.850   2.279  10.604  1.2739 -0.6783 -1.4648
12100TIP3   OH257714   2.677   0.579  14.503  0.4370  0.2767 -0.5223
12100TIP3    H157715   2.684   0.566  14.598  0.8807  2.3168 -0.2358
12100TIP3    H257716   2.586   0.604  14.489  0.9232  2.3210 -0.2724
12101TIP3   OH257717   1.989   4.902  12.810 -0.3613 -1.1142 -0.3003
12101TIP3    H157718   1.928   4.842  12.852 -0.6699 -0.2173  0.5761
12101TIP3    H257719   1.945   4.987  12.814 -0.1164 -0.8783 -1.8881
12102TIP3   OH257720   5.116   1.035   1.082 -0.1945  0.0103  0.2123
12102TIP3    H157721   5.116   1.066   1.172  0.9602 -1.6426  0.8505
12102TIP3    H257722   5.163   0.951   1.086  1.8275  0.8808 -2.2496
12103TIP3   OH257723   3.809   0.818   1.655  0.0777 -0.0010  0.0893
12103TIP3    H157724   3.895   0.857   1.642  0.1803 -0.0989  0.4628
12103TIP3    H257725   3.814   0.732   1.614 -0.2832  0.5282 -1.1211
12104TIP3   OH257726   3.240   2.875  16.802 -0.7096  0.0152 -0.7768
12104TIP3    H157727   3.244   2.911  16.714 -0.2425  1.7596 -0.0759
12104TIP3    H257728   3.149   2.848  16.813 -1.2406  1.5849 -1.1255
12105TIP3   OH257729   1.050   3.972  11.709  0.6206  0.1932 -0.1306
12105TIP3    H157730   1.024   3.948  11.621 -1.4930  1.2887  0.1269
12105TIP3    H257731   1.133   4.019  11.698 -0.1635  1.2737 -1.6757
12106TIP3   OH257732   5.567   0.096  12.753 -0.0523 -0.2875 -0.3992
12106TIP3    H157733   5.498   0.154  12.788 -1.5954 -0.9707 -2.1431
12106TIP3    H257734   5.609   0.147  12.684 -1.0203 -0.9645 -1.5349
12107TIP3   OH257735   5.420   4.826   2.285 -0.3825  0.7482  0.1575
12107TIP3    H157736   5.403   4.844   2.377 -1.0303  0.7655  0.0398
12107TIP3    H257737   5.334   4.802   2.249  0.3777 -2.9028  0.3745
12108TIP3   OH257738   4.206   2.228   6.558  0.1486 -0.0790  0.1201
12108TIP3    H157739   4.189   2.235   6.652  0.9372 -1.4478  0.3912
12108TIP3    H257740   4.220   2.318   6.529  0.0694  0.3448  1.3474
12109TIP3   OH257741   1.614   2.362   3.803 -0.4358  0.1776  0.4417
12109TIP3    H157742   1.592   2.454   3.790  0.6345  0.5755  1.2236
12109TIP3    H257743   1.546   2.328   3.860 -2.5825 -0.3834 -2.2564
12110TIP3   OH257744   2.731   2.173   2.439 -0.2075  0.4238  0.2068
12110TIP3    H157745   2.659   2.170   2.375 -0.6411  1.3096  0.6205
12110TIP3    H257746   2.743   2.083   2.467 -1.3810  0.2949  0.3512
12111TIP3   OH257747   2.375   4.403  11.925 -0.2978  0.4182 -0.1858
12111TIP3    H157748   2.294   4.371  11.885 -0.1022  0.7570 -0.8717
12111TIP3    H257749   2.445   4.357  11.878 -0.1019 -0.4110  0.8877
12112TIP3   OH257750   6.634   5.887  13.029  0.0629 -0.0142  0.2306
12112TIP3    H157751   6.558   5.841  13.064  0.2003 -1.1451 -0.8824
12112TIP3    H257752   6.673   5.931  13.105 -1.4598  0.2593  0.8825
12113TIP3   OH257753   0.130   2.538   1.928  0.0837  1.0170 -0.1535
12113TIP3    H157754   0.201   2.475   1.938  0.6265  1.6251 -0.1068
12113TIP3    H257755   0.088   2.513   1.845  0.7757  1.0689 -0.5273
12114TIP3   OH257756   0.047   2.404   0.525  0.0997 -0.6592  0.1279
12114TIP3    H157757   0.082   2.473   0.469  1.0291 -1.4734 -0.3216
12114TIP3    H257758   0.037   2.329   0.467 -0.7973 -0.9441  0.6346
12115TIP3   OH257759   4.922   5.541   5.737 -0.3346 -0.0766  0.1682
12115TIP3    H157760   4.997   5.499   5.781  1.4050  1.3539 -1.2653
12115TIP3    H257761   4.880   5.470   5.689 -0.2717 -1.0188  1.4370
12116TIP3   OH257762   4.832   2.654  15.704  0.0927 -0.5936  0.0836
12116TIP3    H157763   4.768   2.588  15.732  1.0510 -1.8518 -0.6162
12116TIP3    H257764   4.876   2.679  15.785 -0.5110 -0.5389  0.4064
12117TIP3   OH257765   6.054   5.334   0.554 -0.2144  0.2997  0.4511
12117TIP3    H157766   5.966   5.370   0.563 -0.6145 -0.7687  0.9962
12117TIP3    H257767   6.058   5.262   0.618  0.2503 -1.1701 -1.1473
12118TIP3   OH257768   3.068   5.031  16.475  0.1032 -0.7588  0.6202
12118TIP3    H157769   3.120   4.961  16.514 -1.3757 -1.2563  1.7929
12118TIP3    H257770   3.027   4.991  16.398  1.2198 -0.4306 -0.1721
12119TIP3   OH257771   4.291   4.979  14.502 -0.2695  0.7787 -0.6621
12119TIP3    H157772   4.305   4.888  14.526 -0.9783  0.6479 -0.7230
12119TIP3    H257773   4.365   5.001  14.445  1.6197  1.1824  1.7992
12120TIP3   OH257774   2.328   6.439   1.081 -0.1730 -0.3959 -0.0687
12120TIP3    H157775   2.381   6.388   1.142  0.7353  0.1659 -0.3664
12120TIP3    H257776   2.375   6.432   0.997 -0.5623  0.1143 -0.3316
12121TIP3   OH257777   4.981   1.286   0.717  0.0057 -0.1029  0.3171
12121TIP3    H157778   4.889   1.307   0.704 -0.0923 -0.6055  0.1842
12121TIP3    H257779   4.982   1.228   0.793  0.3072  0.6429  0.8997
12122TIP3   OH257780   3.212   5.730   4.745  0.1414  0.5810 -0.0813
12122TIP3    H157781   3.205   5.702   4.836  1.8044 -0.6516 -0.2876
12122TIP3    H257782   3.255   5.815   4.749  0.7829  0.2443  0.2556
12123TIP3   OH257783   1.554   1.466   0.906 -1.0642 -0.7108 -0.1151
12123TIP3    H157784   1.507   1.506   0.833  0.0715 -1.1908 -1.1384
12123TIP3    H257785   1.486   1.418   0.954 -1.9959  0.3959 -0.2872
12124TIP3   OH257786   1.222   1.238   1.328  0.3693 -0.5177  0.4847
12124TIP3    H157787   1.239   1.314   1.383  1.0902 -0.4810  0.2185
12124TIP3    H257788   1.229   1.271   1.238 -1.4473 -0.4268  0.3460
12125TIP3   OH257789   5.390   4.535   0.487  0.0460  0.2862  0.3267
12125TIP3    H157790   5.305   4.495   0.500  0.0571 -0.0329 -0.5308
12125TIP3    H257791   5.402   4.537   0.392  0.9541  0.4030  0.4296
12126TIP3   OH257792   4.967   3.281  13.800 -0.6250 -0.1174 -0.6061
12126TIP3    H157793   5.043   3.317  13.845 -0.3894 -1.1259 -0.1772
12126TIP3    H257794   4.902   3.352  13.802  0.1125  0.5653 -0.5210
12127TIP3   OH257795   1.357   6.411  14.544  0.0608 -0.2021 -0.2150
12127TIP3    H157796   1.321   6.383  14.628  1.6368  0.7918  0.8203
12127TIP3    H257797   1.394   6.497  14.560  2.5635 -0.9744 -1.2661
12128TIP3   OH257798   4.935   4.975   6.107  0.5567  0.6128 -0.0902
12128TIP3    H157799   4.873   4.933   6.166  0.3428  0.0049 -0.7258
12128TIP3    H257800   4.957   5.058   6.149  0.8853 -0.0784  1.1242
12129TIP3   OH257801   5.814   6.232  15.614 -0.1909  0.3722  0.5228
12129TIP3    H157802   5.863   6.156  15.584 -0.5790  0.2863  0.0865
12129TIP3    H257803   5.828   6.299  15.547 -1.7960 -0.1195 -0.3476
12130TIP3   OH257804   0.411   3.922  14.539  0.6750 -0.5515  0.3621
12130TIP3    H157805   0.456   3.854  14.589  0.2198 -0.5515  0.7739
12130TIP3    H257806   0.343   3.875  14.490  1.9885 -0.7541 -1.3326
12131TIP3   OH257807   1.403   1.115  17.125  0.7048  0.0328  0.8202
12131TIP3    H157808   1.355   1.033  17.133 -2.5826  1.7003 -0.0225
12131TIP3    H257809   1.452   1.108  17.043  0.5022 -1.0610  0.7900
12132TIP3   OH257810   0.668   6.558   3.154  0.4150  0.1323 -0.5062
12132TIP3    H157811   0.600   6.624   3.164 -0.4216 -0.4295 -2.1872
12132TIP3    H257812   0.725   6.592   3.085  0.9809 -0.1097 -0.1680
12133TIP3   OH257813   1.964   1.202  11.649  0.2768  0.5605  0.0721
12133TIP3    H157814   2.036   1.202  11.586  0.0998  0.6494 -0.1309
12133TIP3    H257815   1.921   1.117  11.636 -0.9031  1.3060 -1.2485
12134TIP3   OH257816   5.041   2.856  15.587 -0.2001 -0.4708  0.0734
12134TIP3    H157817   5.009   2.771  15.616 -0.7265 -0.9126 -1.6648
12134TIP3    H257818   4.981   2.919  15.628 -1.5716 -1.1307 -0.8222
12135TIP3   OH257819   6.745   2.321   2.777  0.2460  0.3345 -0.4046
12135TIP3    H157820   6.694   2.370   2.842  0.6671 -0.3171  0.4263
12135TIP3    H257821   6.824   2.373   2.764  0.0097  0.6395 -0.6695
12136TIP3   OH257822   5.163   5.417  13.538  0.0573  0.2637  0.1025
12136TIP3    H157823   5.201   5.355  13.600 -1.7761 -0.2482  0.7494
12136TIP3    H257824   5.088   5.372  13.500 -0.0109  1.2888 -1.0480
12137TIP3   OH257825   4.436   3.156  16.807  0.2575  0.4792  0.6008
12137TIP3    H157826   4.348   3.190  16.825 -0.2978 -0.1484 -0.7908
12137TIP3    H257827   4.424   3.062  16.796  1.3588  0.1722  1.7984
12138TIP3   OH257828   2.001   1.658  15.085  0.0961 -0.1557 -0.4675
12138TIP3    H157829   1.972   1.718  15.017  1.4864  0.5666 -0.4656
12138TIP3    H257830   2.070   1.606  15.043  1.3522  0.6629  0.4920
12139TIP3   OH257831   1.147   5.636  12.542 -0.3929 -0.0832 -0.2473
12139TIP3    H157832   1.083   5.690  12.588 -0.7378 -2.1999  1.9222
12139TIP3    H257833   1.157   5.558  12.596  2.0948 -1.0167 -1.8635
12140TIP3   OH257834   5.407   2.872   2.279 -0.1546  0.0987 -0.7033
12140TIP3    H157835   5.411   2.964   2.254  1.9390  0.1933 -0.1974
12140TIP3    H257836   5.484   2.859   2.334 -1.2848 -1.5730  0.6117
12141TIP3   OH257837   3.848   2.118   5.585 -0.4065 -0.2205  0.2275
12141TIP3    H157838   3.848   2.038   5.639 -0.8128  0.0049  0.5777
12141TIP3    H257839   3.934   2.120   5.544 -0.1479 -0.4899  0.7444
12142TIP3   OH257840   2.768   3.712   4.691  0.0174 -0.3716 -0.6798
12142TIP3    H157841   2.762   3.796   4.736  1.0162 -0.1933 -0.8387
12142TIP3    H257842   2.862   3.697   4.683 -0.1542 -1.2521 -1.1276
12143TIP3   OH257843   6.740   2.650   4.164  0.2501  0.0241 -0.3026
12143TIP3    H157844   6.708   2.696   4.087 -1.2170  1.6877  1.2231
12143TIP3    H257845   6.836   2.658   4.158  0.1690  0.0809 -1.9355
12144TIP3   OH257846   0.803   4.794   2.059  0.3240  0.1341 -0.6115
12144TIP3    H157847   0.708   4.802   2.070  0.3121  0.1500 -0.7195
12144TIP3    H257848   0.819   4.700   2.060  0.2491  0.1126 -1.0444
12145TIP3   OH257849   1.076   6.712   4.493  0.2341 -0.0781 -0.1850
12145TIP3    H157850   1.025   6.786   4.459  0.6881  0.3764  0.1084
12145TIP3    H257851   1.130   6.750   4.563  2.7715 -0.0360 -2.0499
12146TIP3   OH257852   2.569   0.088  16.295  0.3808  0.2617  0.1707
12146TIP3    H157853   2.662   0.066  16.293  1.1899  3.2408 -1.7732
12146TIP3    H257854   2.567   0.181  16.319 -2.1029  0.3205  0.0526
12147TIP3   OH257855   4.245   6.699   3.718 -0.2566 -0.1956 -0.2468
12147TIP3    H157856   4.278   6.693   3.808  1.0056 -0.3675 -0.6980
12147TIP3    H257857   4.152   6.720   3.728  0.2197  1.5531  1.1003
12148TIP3   OH257858   6.657   3.532  17.085 -0.4757 -0.5492 -0.0479
12148TIP3    H157859   6.580   3.484  17.116  0.3362 -1.0588  1.2427
12148TIP3    H257860   6.731   3.486  17.124  0.3599  1.4375  0.8164
12149TIP3   OH257861   2.804   2.034   1.433  0.7783  0.3090 -0.7114
12149TIP3    H157862   2.819   1.949   1.474  0.6843  0.2784 -0.7418
12149TIP3    H257863   2.844   2.027   1.346 -0.5356 -0.2056 -1.2952
12150TIP3   OH257864   3.298   4.328   1.949  0.1021  0.3125  0.4933
12150TIP3    H157865   3.307   4.406   1.894 -1.0546  1.3783  1.7430
12150TIP3    H257866   3.329   4.256   1.894  2.9785  1.8415 -0.0703
12151TIP3   OH257867   3.818   5.743  16.844  0.1504 -0.2846  0.1709
12151TIP3    H157868   3.763   5.682  16.795  0.4475  0.3690 -1.0411
12151TIP3    H257869   3.860   5.690  16.911  0.6845 -1.5023 -1.0696
12152TIP3   OH257870   4.581   5.948  12.247 -0.8236 -0.1216  0.1355
12152TIP3    H157871   4.624   5.897  12.177  3.1942 -0.0131  2.2264
12152TIP3    H257872   4.565   5.885  12.317  1.0390  0.7533  1.4361
12153TIP3   OH257873   3.795   0.238   4.142 -0.0888 -0.4145  0.5499
12153TIP3    H157874   3.707   0.271   4.124  0.2060 -0.2961 -0.7291
12153TIP3    H257875   3.781   0.157   4.190 -0.8567  0.3756  1.7094
12154TIP3   OH257876   1.163   1.395   0.296 -0.2196  0.1850 -0.2763
12154TIP3    H157877   1.255   1.368   0.303  0.0712  1.0692 -0.5499
12154TIP3    H257878   1.114   1.326   0.343  0.4388 -1.0491 -1.3281
12155TIP3   OH257879   5.241   6.687  15.754 -0.1096  0.0409  0.3460
12155TIP3    H157880   5.313   6.657  15.809 -0.6815 -0.0817  1.0441
12155TIP3    H257881   5.237   6.781  15.768 -0.8765 -0.1089  1.3145
12156TIP3   OH257882   4.110   2.427  13.667  0.4893  0.4442  0.3783
12156TIP3    H157883   4.072   2.410  13.581  0.2992  1.5217  0.2271
12156TIP3    H257884   4.198   2.390  13.662  0.6979  1.0163 -0.5020
12157TIP3   OH257885   4.031   2.823  10.919  0.0170  0.5284 -0.1919
12157TIP3    H157886   4.041   2.812  11.014  1.1570 -0.9373 -0.4398
12157TIP3    H257887   4.015   2.917  10.907 -1.0746  0.6007  1.5084
12158TIP3   OH257888   1.835   3.818  15.857  0.0354 -0.1387 -0.3243
12158TIP3    H157889   1.856   3.777  15.941 -3.2889  1.7635  1.6877
12158TIP3    H257890   1.887   3.770  15.793  3.5438 -1.0791  2.8638
12159TIP3   OH257891   5.560   2.244  15.426 -0.3743 -0.3422  0.4962
12159TIP3    H157892   5.596   2.310  15.368  1.1376  0.0606  1.7970
12159TIP3    H257893   5.621   2.171  15.420 -1.6299 -1.3605 -0.3735
12160TIP3   OH257894   2.671   4.566  16.147  0.0474 -0.4891 -0.8111
12160TIP3    H157895   2.765   4.566  16.127  0.1698  0.9504 -0.3465
12160TIP3    H257896   2.636   4.640  16.099 -0.6169 -0.2382  0.0313
12161TIP3   OH257897   5.683   0.856   2.347 -0.4739 -0.2065  0.3388
12161TIP3    H157898   5.642   0.897   2.270  0.2632 -0.2477 -0.0836
12161TIP3    H257899   5.655   0.911   2.421  1.2562  1.6835 -0.3067
12162TIP3   OH257900   0.516   6.004  13.942 -0.3250 -0.1787 -0.2665
12162TIP3    H157901   0.566   6.085  13.936 -1.8963  0.8884  0.1845
12162TIP3    H257902   0.548   5.961  14.022  0.2236  0.2103 -0.2785
12163TIP3   OH257903   3.209   6.677  16.201 -0.2294 -0.1826 -0.3316
12163TIP3    H157904   3.300   6.650  16.202  0.2047  1.1816 -0.5156
12163TIP3    H257905   3.202   6.739  16.275 -0.8725  0.0985 -0.6226
12164TIP3   OH257906   1.934   3.267  12.425  0.5940 -0.3019  0.4080
12164TIP3    H157907   1.901   3.303  12.507 -1.0364  2.1731 -1.1710
12164TIP3    H257908   1.869   3.202  12.399 -0.2675  0.7155 -0.0765
12165TIP3   OH257909   3.950   3.429  14.187 -0.0211 -0.0376 -0.2764
12165TIP3    H157910   3.999   3.347  14.193  1.2147  0.7840  1.8513
12165TIP3    H257911   3.979   3.480  14.262 -0.6060  2.4644 -1.6314
12166TIP3   OH257912   4.152   4.195   3.748 -0.2829 -0.1434  0.2454
12166TIP3    H157913   4.228   4.214   3.803 -1.3572  1.0273  1.3699
12166TIP3    H257914   4.153   4.099   3.739  1.0286 -0.1885  0.6505
12167TIP3   OH257915   1.898   5.359  17.014 -0.0568 -0.4547 -0.4710
12167TIP3    H157916   1.917   5.451  16.995 -1.4257 -0.2162 -0.7998
12167TIP3    H257917   1.942   5.342  17.098 -1.9427  1.2810  0.9691
12168TIP3   OH257918   6.556   0.123   5.028 -0.1788  1.0061 -0.2015
12168TIP3    H157919   6.506   0.166   4.959 -2.8036 -2.6819 -0.9294
12168TIP3    H257920   6.502   0.134   5.107  0.5371  1.3839  0.2464
12169TIP3   OH257921   2.484   0.401   4.306  0.4258 -0.2946  0.1264
12169TIP3    H157922   2.484   0.308   4.325 -3.9119 -0.1971  1.9946
12169TIP3    H257923   2.488   0.443   4.392 -2.2478  0.9146 -0.2142
12170TIP3   OH257924   5.141   3.302  12.140  0.4977 -0.0389 -0.3945
12170TIP3    H157925   5.133   3.255  12.057 -0.1775  0.7053 -0.7650
12170TIP3    H257926   5.106   3.389  12.122  0.7691  0.2859  0.5544
12171TIP3   OH257927   0.843   1.711   4.050  0.2412 -0.2402  0.2085
12171TIP3    H157928   0.762   1.660   4.051  0.4985 -0.6596  1.0771
12171TIP3    H257929   0.866   1.718   3.958 -1.4378  0.9551 -0.1524
12172TIP3   OH257930   3.364   5.134  14.752  0.8949  0.5601 -0.7056
12172TIP3    H157931   3.413   5.088  14.683 -0.4041 -1.1481 -0.5703
12172TIP3    H257932   3.338   5.065  14.813  1.0459  1.8798  0.9220
12173TIP3   OH257933   5.483   6.021  15.647  0.0132  0.4427  0.4548
12173TIP3    H157934   5.516   5.973  15.724 -1.7499 -0.8038  0.4870
12173TIP3    H257935   5.392   5.995  15.639  0.2570  0.0759 -2.4015
12174TIP3   OH257936   2.308   3.653   2.398  0.1199  0.3373 -0.1913
12174TIP3    H157937   2.399   3.625   2.385 -0.2695 -0.1535 -2.3170
12174TIP3    H257938   2.301   3.735   2.350 -0.3462  0.8526  0.7345
12175TIP3   OH257939   1.488   4.686   3.459  0.1909  0.2353  0.2940
12175TIP3    H157940   1.446   4.734   3.531 -0.5280  0.7613 -0.4514
12175TIP3    H257941   1.415   4.662   3.401  0.7283 -0.3969 -0.1367
12176TIP3   OH257942   2.154   3.770  13.336  0.2242  0.2623 -0.4255
12176TIP3    H157943   2.162   3.681  13.369 -2.7303  0.2134  0.4294
12176TIP3    H257944   2.060   3.786  13.332  0.5899  4.0049  1.3567
12177TIP3   OH257945   5.531   6.084  16.470 -0.1870  0.7139  0.4324
12177TIP3    H157946   5.540   6.022  16.397 -0.9737  0.2286  0.7348
12177TIP3    H257947   5.597   6.055  16.533 -1.1764 -0.4286  0.9800
12178TIP3   OH257948   0.350   0.197   4.525  0.3774 -0.0530  0.2381
12178TIP3    H157949   0.268   0.154   4.549 -0.4155  1.2978  0.0291
12178TIP3    H257950   0.324   0.279   4.485  1.8284  0.1417 -0.3816
12179TIP3   OH257951   3.730   2.050  15.902 -0.1512 -0.2208 -0.0059
12179TIP3    H157952   3.664   2.114  15.930  0.2351 -0.4092  1.4243
12179TIP3    H257953   3.791   2.100  15.849 -0.7175  0.2374 -0.2417
12180TIP3   OH257954   2.332   0.278   0.093  0.5368  0.3505  0.8033
12180TIP3    H157955   2.390   0.354   0.096 -1.9699  2.5364 -0.7569
12180TIP3    H257956   2.350   0.238   0.008  1.0121 -0.0653  1.0995
12181TIP3   OH257957   3.032   5.399  13.681  0.4665 -0.7684  0.0231
12181TIP3    H157958   2.997   5.310  13.683  0.8700 -0.9158  0.5916
12181TIP3    H257959   2.965   5.450  13.636 -1.3877 -0.6648  2.6713
12182TIP3   OH257960   4.165   6.659   2.980 -0.4449  0.0755  0.1338
12182TIP3    H157961   4.187   6.581   2.929  0.3693 -0.5635  1.4200
12182TIP3    H257962   4.243   6.677   3.031 -0.5248  1.9197 -0.3341
12183TIP3   OH257963   0.906   1.425   4.571  0.3225 -0.4876 -0.5772
12183TIP3    H157964   0.952   1.456   4.493  1.1112 -1.9637 -0.7341
12183TIP3    H257965   0.962   1.450   4.644  0.4845 -0.6884 -0.6310
12184TIP3   OH257966   2.277   0.649  12.183 -0.2439 -0.4657 -0.3395
12184TIP3    H157967   2.372   0.653  12.175 -0.2720 -1.4398 -1.3624
12184TIP3    H257968   2.254   0.730  12.229  1.0602 -0.1457 -0.2019
12185TIP3   OH257969   0.777   6.222  15.936  0.1378  0.0574 -0.0987
12185TIP3    H157970   0.772   6.289  15.868 -0.4765  0.4970  0.3636
12185TIP3    H257971   0.713   6.156  15.908  0.2340  0.0030 -0.1919
12186TIP3   OH257972   2.570   5.610  13.506  0.2737  0.3284 -0.1789
12186TIP3    H157973   2.489   5.626  13.459 -0.1776 -1.9476 -0.3293
12186TIP3    H257974   2.631   5.677  13.475 -1.2556  1.4787 -0.7771
12187TIP3   OH257975   5.624   2.932   5.643  0.3282 -0.5658  0.3235
12187TIP3    H157976   5.691   2.947   5.709  0.3637 -0.7926  0.3412
12187TIP3    H257977   5.584   2.849   5.668 -2.0756  0.9923  2.1106
12188TIP3   OH257978   1.444   0.197  16.736  0.3564 -0.2418 -0.1676
12188TIP3    H157979   1.480   0.162  16.654  2.1161 -0.1724  0.5201
12188TIP3    H257980   1.510   0.260  16.765 -0.3263 -0.1433  1.2191
12189TIP3   OH257981   5.371   6.446   1.118 -0.8088  0.0646 -0.3315
12189TIP3    H157982   5.412   6.361   1.107 -0.2430  0.5523 -2.6527
12189TIP3    H257983   5.339   6.447   1.208 -1.6821 -2.9442 -0.5152
12190TIP3   OH257984   5.466   6.361  16.488  0.2828 -0.0869 -0.2424
12190TIP3    H157985   5.506   6.275  16.480 -1.0029 -0.7571  0.2381
12190TIP3    H257986   5.528   6.412  16.540  0.3241 -1.2143  0.8402
12191TIP3   OH257987   2.093   5.385   4.118 -0.1977 -0.0686  0.0619
12191TIP3    H157988   2.167   5.420   4.167 -0.5659 -0.7476  1.1375
12191TIP3    H257989   2.122   5.385   4.027  1.4809 -1.2000  0.5529
12192TIP3   OH257990   1.735   5.488  14.349 -0.4247 -0.1730  0.6120
12192TIP3    H157991   1.811   5.505  14.405 -0.0356  1.2094 -0.2898
12192TIP3    H257992   1.722   5.393  14.355  1.9497 -0.6207  0.0926
12193TIP3   OH257993   0.243   3.467   2.266  0.1666 -1.1875 -0.6319
12193TIP3    H157994   0.305   3.411   2.221 -0.9907 -2.2903 -0.9121
12193TIP3    H257995   0.272   3.468   2.357  0.0422 -2.4858 -0.5640
12194TIP3   OH257996   2.525   5.443   1.677 -0.3387 -0.0115 -0.2681
12194TIP3    H157997   2.541   5.537   1.667  0.6670 -0.1420  0.0151
12194TIP3    H257998   2.478   5.436   1.761  0.6994  0.1453  0.3507
12195TIP3   OH257999   2.792   0.054  12.425  0.2248  0.8368  0.1467
12195TIP3    H158000   2.728  -0.006  12.388  1.2285  0.3932 -0.9350
12195TIP3    H258001   2.844   0.000  12.485 -0.3442  1.1757  0.9600
12196TIP3   OH258002   3.268   6.304  13.641 -0.0919  0.0309  0.6763
12196TIP3    H158003   3.321   6.224  13.640  0.4172  0.3497  1.8388
12196TIP3    H258004   3.331   6.375  13.643 -0.5597  0.4438  0.8774
12197TIP3   OH258005   0.128   6.473  12.139 -0.1226 -0.2934  0.2623
12197TIP3    H158006   0.179   6.513  12.210  0.2260  0.3512 -0.3453
12197TIP3    H258007   0.103   6.387  12.173  0.1754 -0.0516  1.1059
12198TIP3   OH258008   1.329   1.432   3.800 -0.3518 -0.5632  0.2954
12198TIP3    H158009   1.250   1.393   3.763 -0.8357 -0.2347  0.9690
12198TIP3    H258010   1.401   1.396   3.748 -1.1156  1.4658 -2.3840
12199TIP3   OH258011   3.218   2.564  10.847  0.1925 -0.3129  0.0244
12199TIP3    H158012   3.195   2.518  10.927  1.0465  0.1685  0.5743
12199TIP3    H258013   3.136   2.602  10.815  0.2602  2.1398  2.4017
12200TIP3   OH258014   3.788   6.723  12.515 -0.3552  0.5958  0.6600
12200TIP3    H158015   3.791   6.652  12.580  0.1960  0.7134  0.7740
12200TIP3    H258016   3.832   6.686  12.438 -3.5191 -0.5908 -0.7467
12201TIP3   OH258017   4.884   2.282  16.924  0.7908 -0.1889  0.1953
12201TIP3    H158018   4.867   2.280  16.830  0.2999 -0.8883  0.2878
12201TIP3    H258019   4.838   2.205  16.958 -2.6317  2.2891  1.6156
12202TIP3   OH258020   6.034   4.835  16.734 -0.5990  0.0136  0.4458
12202TIP3    H158021   5.974   4.843  16.660 -0.6874 -0.6010  0.4442
12202TIP3    H258022   5.985   4.785  16.799 -0.4380  0.3516  0.8315
12203TIP3   OH258023   1.307   4.278  11.961  0.1035 -0.4491  0.3843
12203TIP3    H158024   1.277   4.351  11.907  0.7437  0.2099  0.9067
12203TIP3    H258025   1.227   4.238  11.994 -0.2416  0.3612  0.5549
12204TIP3   OH258026   1.107   2.420   1.872  0.5368  0.1265 -0.0870
12204TIP3    H158027   1.115   2.487   1.804  0.0708 -0.8175 -1.1042
12204TIP3    H258028   1.172   2.445   1.938  0.2582  1.6672 -0.3404
12205TIP3   OH258029   2.865   1.308  16.183  0.4734 -0.0806 -0.1998
12205TIP3    H158030   2.891   1.386  16.232  0.5500  0.2890 -0.8183
12205TIP3    H258031   2.917   1.311  16.102 -1.9526  1.1003 -1.8479
12206TIP3   OH258032   1.004   4.855  13.629  0.5418  0.4911 -0.7316
12206TIP3    H158033   0.953   4.842  13.549  0.6361 -1.0100 -0.5769
12206TIP3    H258034   1.074   4.915  13.603  1.1492 -0.7306 -2.0678
12207TIP3   OH258035   4.278   0.165  13.212 -0.1116  0.1797  0.2487
12207TIP3    H158036   4.274   0.070  13.197 -0.6430  0.4040 -1.1604
12207TIP3    H258037   4.245   0.203  13.131  0.1680  1.5825  0.7762
12208TIP3   OH258038   2.248   0.125   2.010  0.4427  0.1959 -0.1844
12208TIP3    H158039   2.246   0.127   2.105 -0.4942  0.6772 -0.1994
12208TIP3    H258040   2.186   0.193   1.983  2.5777  1.9344 -1.1454
12209TIP3   OH258041   6.740   6.156   0.127 -0.4445 -0.4323  0.4732
12209TIP3    H158042   6.804   6.199   0.184  0.6011 -0.4343 -0.6680
12209TIP3    H258043   6.785   6.146   0.043 -1.8822 -0.6048 -0.3093
12210TIP3   OH258044   0.547   3.163  16.900 -0.0745 -0.1177 -0.2401
12210TIP3    H158045   0.630   3.157  16.948  0.0261  0.4880 -0.3329
12210TIP3    H258046   0.487   3.202  16.963 -0.3362 -0.7021 -0.1189
12211TIP3   OH258047   4.180   1.984   4.287  0.1212 -0.9632  0.0519
12211TIP3    H158048   4.192   1.975   4.193 -1.3413 -0.0672 -0.2434
12211TIP3    H258049   4.130   1.906   4.312  2.5147 -2.4330  0.5378
12212TIP3   OH258050   0.557   1.257   1.390 -0.4566  0.0086  0.1132
12212TIP3    H158051   0.566   1.172   1.433 -0.0433  0.2518  0.5291
12212TIP3    H258052   0.491   1.244   1.323 -0.0360 -0.7742 -0.1575
12213TIP3   OH258053   2.540   4.717  13.568  0.3328 -0.7270  0.0598
12213TIP3    H158054   2.531   4.717  13.663  0.7368  3.3121  0.2923
12213TIP3    H258055   2.454   4.690  13.536 -0.8667  0.8379  1.7111
12214TIP3   OH258056   3.290   5.049   0.193  0.2965  0.0877 -0.4548
12214TIP3    H158057   3.346   5.045   0.115  1.5951  1.7137  0.3257
12214TIP3    H258058   3.320   4.975   0.247  0.2948 -0.2528 -0.9072
12215TIP3   OH258059   3.965   5.113  15.653 -0.5725 -0.4358 -0.0818
12215TIP3    H158060   4.016   5.073  15.583  0.2016  1.2580 -0.5360
12215TIP3    H258061   4.029   5.158  15.708 -1.4273  0.7329  0.0249
12216TIP3   OH258062   4.661   6.100   6.215 -0.5491  0.0762 -0.2248
12216TIP3    H158063   4.614   6.017   6.209  1.4569 -1.0733 -0.6644
12216TIP3    H258064   4.593   6.164   6.237 -2.2489 -1.5483 -0.5292
12217TIP3   OH258065   4.939   0.351   0.307 -0.3171  0.1318 -0.5249
12217TIP3    H158066   5.008   0.311   0.254  1.1500  0.1223  1.2962
12217TIP3    H258067   4.877   0.280   0.322 -0.8314  0.1548 -2.2358
12218TIP3   OH258068   6.712   3.129  12.183  0.5899 -0.5270 -0.4532
12218TIP3    H158069   6.693   3.198  12.119 -0.4823 -0.7431 -0.3841
12218TIP3    H258070   6.744   3.176  12.260  2.1079 -0.2715 -1.1861
12219TIP3   OH258071   6.444   0.877   2.531 -0.2549 -0.2208  0.4829
12219TIP3    H158072   6.538   0.876   2.547 -0.4512  0.5775  1.8407
12219TIP3    H258073   6.411   0.800   2.576 -0.2737 -0.4487  0.0857
12220TIP3   OH258074   3.930   4.977  13.750  0.0377  0.1243  0.3512
12220TIP3    H158075   3.874   4.932  13.687 -0.6140 -0.5031  1.3502
12220TIP3    H258076   4.015   4.933  13.742 -0.6917 -1.6568  1.5966
12221TIP3   OH258077   0.174   5.967  11.826 -0.7713  0.6295 -0.6432
12221TIP3    H158078   0.091   5.944  11.868 -0.3697  1.9350  0.9724
12221TIP3    H258079   0.155   6.049  11.780 -0.6280  0.3667 -1.1826
12222TIP3   OH258080   4.295   0.824  14.287  0.2097  0.2951 -0.4987
12222TIP3    H158081   4.356   0.882  14.242  0.1657  0.7062 -0.0391
12222TIP3    H258082   4.324   0.825  14.378  0.2764 -0.5000 -0.5099
12223TIP3   OH258083   2.357   5.448   4.191  0.1868  0.1393  0.1238
12223TIP3    H158084   2.411   5.426   4.267 -1.1528 -0.8431  0.8220
12223TIP3    H258085   2.411   5.424   4.116  0.5428 -1.2785  0.8068
12224TIP3   OH258086   5.912   4.673   5.934 -0.5035  0.0730  0.1415
12224TIP3    H158087   5.883   4.683   6.025  0.5967  1.1349  0.3942
12224TIP3    H258088   5.862   4.598   5.902 -1.4421  0.1180  1.3965
12225TIP3   OH258089   5.951   6.567  15.131 -0.7065  0.0327 -0.6164
12225TIP3    H158090   5.868   6.603  15.161 -0.6425  1.0185 -1.5908
12225TIP3    H258091   5.933   6.473  15.120 -0.9204 -0.2727  1.7487
12226TIP3   OH258092   6.749   1.906  10.974  0.2731  0.1605 -0.5468
12226TIP3    H158093   6.658   1.884  10.991  0.5281 -1.2946 -0.8888
12226TIP3    H258094   6.753   2.002  10.977 -1.2825  0.2412 -0.6834
12227TIP3   OH258095   3.400   1.528  16.731  0.2425 -0.1349 -0.2328
12227TIP3    H158096   3.339   1.552  16.801 -1.2788  1.2553 -1.9194
12227TIP3    H258097   3.407   1.607  16.677  2.4631 -0.7141 -0.8961
12228TIP3   OH258098   5.546   0.149  11.709  0.1145  0.3371  0.6502
12228TIP3    H158099   5.620   0.209  11.698 -0.1812  0.5452 -0.2785
12228TIP3    H258100   5.484   0.175  11.641  0.8913 -2.4072 -1.3003
12229TIP3   OH258101   5.519   3.347  15.506 -0.3711 -0.2821 -1.3479
12229TIP3    H158102   5.575   3.308  15.439  0.4340 -3.1085  0.8179
12229TIP3    H258103   5.495   3.275  15.563 -1.5689  1.8624  1.0679
12230TIP3   OH258104   2.043   3.684   6.612  0.2609 -0.0456 -0.0475
12230TIP3    H158105   2.113   3.689   6.678 -0.3981  0.2731  0.6329
12230TIP3    H258106   2.058   3.761   6.557  0.7901 -0.2906 -0.2598
12231TIP3   OH258107   5.661   1.791   1.652 -0.3731  0.0205  0.4016
12231TIP3    H158108   5.635   1.739   1.728 -0.9034  1.9851  1.6346
12231TIP3    H258109   5.583   1.843   1.630  0.5302  1.3124  0.1097
12232TIP3   OH258110   3.798   3.936   1.280 -0.8300 -0.1502  0.3307
12232TIP3    H158111   3.801   3.959   1.187  2.1061 -0.6753  0.2029
12232TIP3    H258112   3.804   3.840   1.281  0.8119 -0.0743  1.0350
12233TIP3   OH258113   4.744   1.860   2.055 -0.5964  0.1903 -0.5040
12233TIP3    H158114   4.837   1.878   2.040 -0.4211 -0.2801 -0.0028
12233TIP3    H258115   4.699   1.907   1.984  0.0345  0.2351 -0.8847
12234TIP3   OH258116   3.135   3.342   3.624 -0.2244 -0.1055 -0.2648
12234TIP3    H158117   3.213   3.296   3.657  0.2675  0.0988 -1.1240
12234TIP3    H258118   3.110   3.401   3.695  0.8075  0.3098 -0.2339
12235TIP3   OH258119   5.626   4.830  14.032 -1.2721  0.6106  0.1170
12235TIP3    H158120   5.561   4.859  14.096 -1.6473 -0.6135  0.3284
12235TIP3    H258121   5.606   4.737  14.018  0.3843  0.2139  0.1356
12236TIP3   OH258122   3.499   5.678   3.346 -0.6460  0.2095  0.3483
12236TIP3    H158123   3.510   5.594   3.390 -0.1845  0.7124  1.1961
12236TIP3    H258124   3.409   5.704   3.366 -0.5507  0.2698  0.6900
12237TIP3   OH258125   3.448   0.440   2.563  0.0542  0.1946 -0.5927
12237TIP3    H158126   3.383   0.510   2.566  0.0883  0.1966  0.5835
12237TIP3    H258127   3.426   0.382   2.635  0.8776 -0.2420 -0.6695
12238TIP3   OH258128   2.449   4.189   2.458  0.5751 -0.1610 -0.4053
12238TIP3    H158129   2.362   4.152   2.478  1.6265 -0.9389  3.7248
12238TIP3    H258130   2.436   4.283   2.457 -0.1627 -0.1984  1.6607
12239TIP3   OH258131   3.642   0.822   4.989  0.2873 -0.1409  0.3778
12239TIP3    H158132   3.563   0.856   4.946  0.8766 -0.7013 -1.2534
12239TIP3    H258133   3.620   0.818   5.081 -2.1241 -1.6028 -0.1805
12240TIP3   OH258134   0.871   1.178  11.006  0.0796 -0.6878  0.2457
12240TIP3    H158135   0.958   1.215  10.995 -0.1614  0.1069  0.8224
12240TIP3    H258136   0.825   1.199  10.924  0.6467 -1.7949 -0.3748
12241TIP3   OH258137   2.922   2.873   4.352 -0.0371 -0.1292 -0.1426
12241TIP3    H158138   3.009   2.913   4.361 -0.1543  0.2835 -0.7694
12241TIP3    H258139   2.940   2.783   4.325  0.1940  0.0648 -0.6492
12242TIP3   OH258140   0.470   0.069  12.820  0.4415 -0.0982 -0.2459
12242TIP3    H158141   0.377   0.086  12.806  0.6419  0.0463 -1.4744
12242TIP3    H258142   0.511   0.155  12.821  0.3115  0.0482  2.6753
12243TIP3   OH258143   2.176   1.715  12.484 -0.4922  0.4114 -0.2741
12243TIP3    H158144   2.261   1.703  12.526 -0.5105 -1.8890 -0.7668
12243TIP3    H258145   2.113   1.714  12.556 -0.3943 -2.0339 -0.1165
12244TIP3   OH258146   2.162   0.894  13.420 -0.5321 -0.5169 -0.1391
12244TIP3    H158147   2.112   0.953  13.477  1.2465  0.7521  0.2138
12244TIP3    H258148   2.253   0.908  13.446  0.2469 -0.7112 -2.5437
12245TIP3   OH258149   4.243   1.468  16.886 -0.0194  0.3431  0.0005
12245TIP3    H158150   4.268   1.425  16.804  0.1721 -1.0246  0.7505
12245TIP3    H258151   4.154   1.436  16.904  0.1000  0.2951  0.5306
12246TIP3   OH258152   0.798   0.500   5.695 -0.9914 -0.1730  0.2436
12246TIP3    H158153   0.763   0.458   5.617  0.9367 -1.8869  0.2139
12246TIP3    H258154   0.724   0.501   5.757 -1.7747 -1.3816 -0.6274
12247TIP3   OH258155   4.267   3.423  14.085 -0.3506  0.2239 -0.4371
12247TIP3    H158156   4.248   3.364  14.157 -1.2070  0.1494 -0.7137
12247TIP3    H258157   4.333   3.377  14.033  1.4629  0.9406  1.1074
12248TIP3   OH258158   6.411   2.733  12.868 -0.1511  0.2360  0.2793
12248TIP3    H158159   6.417   2.803  12.804  1.4115 -0.2810 -0.1829
12248TIP3    H258160   6.486   2.747  12.926 -1.6004  0.7802  2.1227
12249TIP3   OH258161   5.377   5.739   1.900  0.0379 -0.6545 -0.4973
12249TIP3    H158162   5.374   5.643   1.901  0.7147 -0.6785  0.4498
12249TIP3    H258163   5.409   5.763   1.987 -0.6708  0.4580 -0.5189
12250TIP3   OH258164   6.286   6.738   3.203  0.3720 -0.3458  0.1722
12250TIP3    H158165   6.198   6.723   3.238  0.5258  0.3044  0.8716
12250TIP3    H258166   6.298   6.833   3.207  0.3422 -0.2101 -1.8408
12251TIP3   OH258167   2.152   5.108   4.232  0.5397  0.1647  0.1737
12251TIP3    H158168   2.187   5.143   4.151 -0.0521 -1.6449 -0.9265
12251TIP3    H258169   2.085   5.171   4.259  0.1025  0.3488 -1.2559
12252TIP3   OH258170   2.188   3.738  11.636 -0.1589 -0.1336  0.9035
12252TIP3    H158171   2.221   3.656  11.599 -1.2278  0.5020 -1.6768
12252TIP3    H258172   2.265   3.779  11.676  0.9486 -1.2324 -0.0202
12253TIP3   OH258173   3.834   5.093   2.923 -0.2626  0.1594 -0.5157
12253TIP3    H158174   3.747   5.131   2.908 -0.1938  0.0160 -1.3358
12253TIP3    H258175   3.818   5.020   2.983 -0.5506  0.7784  0.1855
12254TIP3   OH258176   3.956   0.193  15.169 -0.5136 -0.8735  0.1123
12254TIP3    H158177   4.035   0.212  15.118 -1.3651 -2.0326 -1.7657
12254TIP3    H258178   3.986   0.189  15.259  1.1148  1.0743 -0.2714
12255TIP3   OH258179   5.380   4.018  14.403 -0.3011 -0.5211  0.7075
12255TIP3    H158180   5.329   4.077  14.457 -1.5602 -0.0624 -0.9138
12255TIP3    H258181   5.459   4.001  14.454  0.3345  2.8851  1.0752
12256TIP3   OH258182   6.536   6.641  11.351  0.2088  0.2803  0.0766
12256TIP3    H158183   6.549   6.622  11.258 -0.8354  0.8749 -0.2123
12256TIP3    H258184   6.621   6.673  11.381 -0.0574  2.6301 -1.3530
12257TIP3   OH258185   5.365   5.130   0.505  0.2885  0.7641  0.1066
12257TIP3    H158186   5.454   5.095   0.516 -0.1926 -0.4810  0.1620
12257TIP3    H258187   5.372   5.186   0.427  1.0521  0.4313 -0.0810
12258TIP3   OH258188   5.551   6.547  13.080  0.3420  0.6583 -0.2464
12258TIP3    H158189   5.608   6.616  13.114 -1.0998  0.5853  2.5824
12258TIP3    H258190   5.593   6.466  13.109 -0.2264  0.5367  0.2454
12259TIP3   OH258191   3.621   2.024   0.619 -0.0271 -0.1208 -0.1281
12259TIP3    H158192   3.676   1.994   0.547  0.5528  1.0120 -0.1932
12259TIP3    H258193   3.554   1.957   0.628  0.0624 -0.4280 -1.5306
12260TIP3   OH258194   4.011   5.538   3.935  0.1488  0.1876 -0.5648
12260TIP3    H158195   4.091   5.515   3.889  0.3995  0.3871 -0.2370
12260TIP3    H258196   4.022   5.631   3.957  0.6499 -0.2346  1.0942
12261TIP3   OH258197   2.890   0.627   1.307  0.2361  0.4465 -0.2641
12261TIP3    H158198   2.959   0.643   1.371  1.8211 -1.7398 -1.2959
12261TIP3    H258199   2.861   0.538   1.325  0.0791  0.1138 -1.9981
12262TIP3   OH258200   6.173   1.928  12.105 -0.4952 -0.0551  0.4730
12262TIP3    H158201   6.080   1.924  12.085 -0.4644  0.4265  0.2164
12262TIP3    H258202   6.181   1.885  12.190 -0.5914 -2.4213 -0.6168
12263TIP3   OH258203   6.195   4.468  16.384 -0.1514  0.0301  0.4398
12263TIP3    H158204   6.212   4.398  16.321 -1.5151  0.6373 -0.6240
12263TIP3    H258205   6.282   4.503  16.404  0.3205 -0.1873 -1.0928
12264TIP3   OH258206   1.951   0.069   0.066 -0.2919 -0.1475 -0.3399
12264TIP3    H158207   2.014   0.101   0.131  1.0572 -1.1243 -1.1067
12264TIP3    H258208   1.920  -0.015   0.101 -1.1023  0.2795 -0.0162
12265TIP3   OH258209   2.159   2.332  14.483 -0.2285  0.4523  0.0749
12265TIP3    H158210   2.234   2.392  14.475 -0.1588  0.2241 -1.0263
12265TIP3    H258211   2.138   2.334  14.577  0.9804  0.7303  0.3673
12266TIP3   OH258212   0.184   5.536   1.908  0.3764 -0.3778 -0.7309
12266TIP3    H158213   0.211   5.623   1.877 -0.6708  0.3110  0.1799
12266TIP3    H258214   0.095   5.550   1.942  0.9867 -1.3200  1.4218
12267TIP3   OH258215   3.583   5.026   0.645 -0.1939  0.4284 -0.1805
12267TIP3    H158216   3.582   5.120   0.665  0.8747  0.7391 -1.4010
12267TIP3    H258217   3.619   5.022   0.556 -2.7386 -0.9533 -1.2536
12268TIP3   OH258218   6.254   1.908  13.697  0.1856  0.0436  0.3047
12268TIP3    H158219   6.186   1.935  13.636 -0.1530  0.0367  0.6717
12268TIP3    H258220   6.329   1.964  13.677 -0.7156  1.7686  1.4986
12269TIP3   OH258221   4.212   3.805   4.048 -0.4153  0.5623  0.2951
12269TIP3    H158222   4.132   3.852   4.024 -1.1192 -0.4994  0.4959
12269TIP3    H258223   4.214   3.729   3.990  1.2724  1.3504 -0.7664
12270TIP3   OH258224   1.248   4.676  14.730 -0.5079 -0.1081 -0.0950
12270TIP3    H158225   1.292   4.596  14.757 -1.9212 -1.4871 -1.6345
12270TIP3    H258226   1.156   4.663  14.754 -0.7524  1.0779 -0.3051
12271TIP3   OH258227   0.660   3.379   1.593 -0.8454  0.4518 -0.2495
12271TIP3    H158228   0.675   3.473   1.588  2.8141  0.1033  1.0058
12271TIP3    H258229   0.743   3.343   1.625 -2.1159 -3.2136 -0.5621
12272TIP3   OH258230   0.303   3.199   0.730  0.2678  0.1179  0.3665
12272TIP3    H158231   0.356   3.142   0.785 -0.9277  0.2829  1.7271
12272TIP3    H258232   0.217   3.200   0.771 -1.1767 -1.0171 -2.3664
12273TIP3   OH258233   2.586   2.296  11.797 -0.1582 -0.6584 -0.4101
12273TIP3    H158234   2.670   2.333  11.770 -0.7644  0.1938 -1.1939
12273TIP3    H258235   2.583   2.209  11.755 -1.0947  0.6338 -3.3163
12274TIP3   OH258236   4.148   0.012  14.242  0.0630  0.1470 -0.0390
12274TIP3    H158237   4.164   0.072  14.314  0.8727  0.4752 -0.4817
12274TIP3    H258238   4.195   0.050  14.168  1.4560 -1.5311 -0.0938
12275TIP3   OH258239   4.270   3.638   1.705 -0.2069  0.4928 -0.1052
12275TIP3    H158240   4.297   3.559   1.752  1.2741  0.7406 -0.4945
12275TIP3    H258241   4.285   3.709   1.767 -0.5164  0.5901 -0.1380
12276TIP3   OH258242   1.158   2.944  13.151  0.3025  0.2221 -0.0872
12276TIP3    H158243   1.123   2.963  13.238 -1.0941  0.1361 -0.6088
12276TIP3    H258244   1.203   2.860  13.161  1.2796  0.8264  0.8298
12277TIP3   OH258245   0.111   4.445  11.986 -0.6951  0.0357  0.2131
12277TIP3    H158246   0.087   4.521  12.040  1.1906  0.2929  0.7685
12277TIP3    H258247   0.118   4.481  11.898  1.8417  1.0003  0.7041
12278TIP3   OH258248   2.259   5.043  14.866  0.1348 -0.1932 -0.1523
12278TIP3    H158249   2.314   4.967  14.886  0.4380 -0.3940 -1.6649
12278TIP3    H258250   2.307   5.118  14.901  0.7291 -0.5076 -0.2872
12279TIP3   OH258251   0.643   1.902  15.978  0.6042  0.2814 -0.5035
12279TIP3    H158252   0.576   1.851  15.932  0.9145 -0.3158 -0.3111
12279TIP3    H258253   0.604   1.988  15.990 -0.5503 -0.3481  0.5112
12280TIP3   OH258254   2.125   0.684   2.190 -0.3806  0.5907 -0.4616
12280TIP3    H158255   2.194   0.620   2.170 -0.8055 -0.4067  1.0619
12280TIP3    H258256   2.168   0.749   2.245 -0.6265 -0.0709  0.5505
12281TIP3   OH258257   0.686   5.229   5.332  0.7195  0.6535  0.3774
12281TIP3    H158258   0.772   5.221   5.289  0.2492 -1.8172 -0.2407
12281TIP3    H258259   0.706   5.223   5.426  1.1966 -0.4475  0.2170
12282TIP3   OH258260   6.691   3.920  13.571 -0.2628  0.2602  0.1964
12282TIP3    H158261   6.749   3.987  13.534 -1.7037  0.8800 -1.0101
12282TIP3    H258262   6.618   3.968  13.609 -1.1768 -0.5928 -0.4224
12283TIP3   OH258263   6.521   5.418   3.799 -0.4668  0.0117 -0.6929
12283TIP3    H158264   6.463   5.354   3.757 -1.0254  1.7874 -2.7848
12283TIP3    H258265   6.470   5.454   3.871 -2.1155  1.6003 -2.5405
12284TIP3   OH258266   5.708   6.422   2.699  0.2057  0.2985  0.7177
12284TIP3    H158267   5.664   6.366   2.635  1.0819  1.4553 -0.9854
12284TIP3    H258268   5.787   6.373   2.723  0.0690  0.0242  0.6094
12285TIP3   OH258269   1.316   4.603   5.119 -0.1776 -0.0490  0.7251
12285TIP3    H158270   1.236   4.649   5.094 -1.4970 -2.5479  0.0261
12285TIP3    H258271   1.302   4.513   5.091  2.5451 -0.7849  1.3971
12286TIP3   OH258272   6.266   4.884  15.318 -0.0618  0.6915 -0.1796
12286TIP3    H158273   6.263   4.972  15.355 -0.0349  0.1516  1.1542
12286TIP3    H258274   6.358   4.868  15.299  0.5858 -0.4178  3.1542
12287TIP3   OH258275   0.912   3.209   1.353 -0.2167 -0.2664  0.3240
12287TIP3    H158276   0.949   3.123   1.372 -0.1238  0.0981  1.9366
12287TIP3    H258277   0.972   3.248   1.290 -0.2673 -1.3693 -0.4432
12288TIP3   OH258278   0.572   0.789  16.873  0.2480  0.4637 -0.3693
12288TIP3    H158279   0.499   0.727  16.869  0.0503  0.4881  1.6484
12288TIP3    H258280   0.531   0.872  16.897  0.8548  0.6191  0.1669
12289TIP3   OH258281   1.968   5.912   3.648 -0.3161  0.1738  0.5088
12289TIP3    H158282   2.023   5.927   3.571 -0.2372 -1.4122  0.2274
12289TIP3    H258283   2.028   5.921   3.722  0.4621 -1.8595  0.1894
12290TIP3   OH258284   0.289   2.044  14.948 -0.3139  0.4794 -0.1179
12290TIP3    H158285   0.335   2.128  14.956  1.8677 -0.6730  0.4165
12290TIP3    H258286   0.357   1.982  14.920 -1.3700 -1.4983  1.4034
12291TIP3   OH258287   3.131   0.075   4.057  0.1677  0.3686  0.1059
12291TIP3    H158288   3.160  -0.005   4.013  1.4194  0.2600  1.0990
12291TIP3    H258289   3.084   0.045   4.134  0.4192  0.5849  0.3469
12292TIP3   OH258290   0.298   3.557  13.560 -0.2082  0.1744 -0.2447
12292TIP3    H158291   0.232   3.584  13.495 -0.1813  0.4117 -0.1744
12292TIP3    H258292   0.267   3.473  13.592 -0.8621  0.6141  0.3073
12293TIP3   OH258293   5.821   0.008   6.279 -0.2406  0.1811 -0.7502
12293TIP3    H158294   5.741   0.017   6.331  0.5499 -0.9504  0.7627
12293TIP3    H258295   5.824  -0.086   6.257  1.7511 -0.2701  1.1580
12294TIP3   OH258296   4.902   3.688   3.144  0.0594 -0.0238  0.0913
12294TIP3    H158297   4.918   3.775   3.109 -1.5953 -0.1814 -1.1637
12294TIP3    H258298   4.830   3.653   3.091  1.1322 -2.4287  0.0803
12295TIP3   OH258299   2.195   1.355   1.073 -0.2715 -0.0114 -0.4852
12295TIP3    H158300   2.267   1.323   1.127 -0.6200  2.6977  1.8115
12295TIP3    H258301   2.218   1.328   0.984  2.5962 -0.8667  0.3978
12296TIP3   OH258302   1.637   1.437  14.995 -0.1599 -0.2110 -0.2055
12296TIP3    H158303   1.628   1.344  14.971  1.2872 -0.7918  1.3281
12296TIP3    H258304   1.562   1.453  15.053 -0.5122 -0.3631 -0.6107
12297TIP3   OH258305   0.484   0.488   1.384 -0.0210  0.0844  0.4564
12297TIP3    H158306   0.477   0.536   1.467 -0.3141 -1.5952  1.4622
12297TIP3    H258307   0.562   0.523   1.341 -0.1172  1.2907  1.2329
12298TIP3   OH258308   2.994   5.223   6.247  0.6426 -0.0871 -0.0781
12298TIP3    H158309   2.993   5.293   6.182 -0.4445  0.6176  0.6711
12298TIP3    H258310   2.964   5.265   6.327  2.0698 -0.9093  0.9251
12299TIP3   OH258311   2.982   1.670   2.609 -0.3138  0.3455  0.0873
12299TIP3    H158312   2.932   1.696   2.686 -0.1735  0.7114  0.0568
12299TIP3    H258313   3.070   1.653   2.642 -0.4335 -0.2220  0.1279
12300TIP3   OH258314   1.285   2.836  16.236 -0.1979  0.7296  0.2132
12300TIP3    H158315   1.305   2.929  16.237 -1.5155  1.0367  0.1048
12300TIP3    H258316   1.196   2.830  16.273 -0.7191 -0.3171 -1.1202
12301TIP3   OH258317   0.830   1.869  11.612  0.4665 -0.3373  0.2946
12301TIP3    H158318   0.760   1.845  11.672  0.4382  0.4492  0.5897
12301TIP3    H258319   0.784   1.903  11.535  0.4864  1.5537  1.0515
12302TIP3   OH258320   3.178   0.389  11.301  0.1355 -0.5694  0.2522
12302TIP3    H158321   3.115   0.407  11.370  1.1684  2.7711  0.4783
12302TIP3    H258322   3.255   0.354  11.347  1.2820  2.7762  1.1486
12303TIP3   OH258323   6.365   2.923   4.184  0.3459 -0.0194 -0.0402
12303TIP3    H158324   6.421   2.879   4.248  0.5639  1.2657  0.6836
12303TIP3    H258325   6.279   2.884   4.197  0.7535 -0.9842 -0.1609
12304TIP3   OH258326   0.266   0.010  17.242  1.3074  0.4899  0.2697
12304TIP3    H158327   0.304   0.013  17.330 -0.0195 -0.5021  0.9048
12304TIP3    H258328   0.338  -0.022  17.186  2.5467  2.3166  0.7243
12305TIP3   OH258329   6.033   1.432  12.545 -0.1079 -0.0360  0.5192
12305TIP3    H158330   6.016   1.364  12.480 -0.7630  0.8192 -0.2197
12305TIP3    H258331   5.992   1.398  12.625 -0.6546 -0.3910  0.0945
12306TIP3   OH258332   2.294   5.033  15.464  0.3096 -0.1090 -0.4551
12306TIP3    H158333   2.228   5.076  15.519 -0.2772 -2.2706  0.6518
12306TIP3    H258334   2.249   5.014  15.382 -0.5039 -1.5301  0.2783
12307TIP3   OH258335   4.423   4.570  12.612  0.6265 -0.5773  0.1369
12307TIP3    H158336   4.377   4.518  12.678 -1.5357 -1.3365 -1.8410
12307TIP3    H258337   4.500   4.603  12.657 -1.8308  0.8534  3.7493
12308TIP3   OH258338   6.647   4.996   4.406  0.5625 -0.3982 -0.1373
12308TIP3    H158339   6.670   4.933   4.337 -3.8078 -0.5717 -1.7264
12308TIP3    H258340   6.592   4.947   4.466  1.3599  0.6966  1.5594
12309TIP3   OH258341   6.405   4.635  14.008  0.7253 -0.4178  0.0710
12309TIP3    H158342   6.439   4.707  14.061  0.2413  0.1231 -0.3396
12309TIP3    H258343   6.424   4.556  14.059  1.3365 -0.0096  0.4895
12310TIP3   OH258344   5.035   6.410   0.781 -0.4919  0.5813 -0.4959
12310TIP3    H158345   5.039   6.443   0.692 -1.0133  2.9005  0.2710
12310TIP3    H258346   5.099   6.463   0.829 -0.7068 -0.1537  0.6304
12311TIP3   OH258347   4.450   2.055   3.207  0.1111  0.4878  0.4165
12311TIP3    H158348   4.530   2.088   3.165 -1.1727 -0.9932 -3.6404
12311TIP3    H258349   4.386   2.124   3.195 -0.6189 -0.4611 -1.3862
12312TIP3   OH258350   1.386   5.368   5.167 -0.1245  0.1543  0.3579
12312TIP3    H158351   1.427   5.282   5.172 -1.9143 -0.7330  0.7477
12312TIP3    H258352   1.292   5.350   5.174 -0.5057  2.2135  1.3567
12313TIP3   OH258353   6.354   3.380   2.477  0.4611 -0.6194 -0.3124
12313TIP3    H158354   6.438   3.347   2.448  0.1268 -1.4142 -0.3897
12313TIP3    H258355   6.364   3.393   2.571  0.9977  0.3059 -0.4895
12314TIP3   OH258356   6.643   4.172  16.812  0.6774 -0.5993 -0.9189
12314TIP3    H158357   6.559   4.161  16.857  0.7078 -1.9819 -1.1377
12314TIP3    H258358   6.689   4.089  16.827  0.9240 -0.8931 -2.9802
12315TIP3   OH258359   6.702   1.720   0.648  0.0808  0.0067 -0.3197
12315TIP3    H158360   6.744   1.803   0.622 -1.8046  0.7676 -1.1315
12315TIP3    H258361   6.637   1.704   0.579 -2.2114 -0.1496  1.7731
12316TIP3   OH258362   5.072   3.861   1.593  0.5093 -0.2279 -0.6591
12316TIP3    H158363   5.140   3.928   1.597  0.5770 -0.3475  0.6289
12316TIP3    H258364   5.029   3.865   1.679  1.2788 -2.6128 -0.0746
12317TIP3   OH258365   2.551   2.341   5.352 -0.6803 -0.2673 -0.0281
12317TIP3    H158366   2.611   2.416   5.343  0.7346 -0.8728  3.0040
12317TIP3    H258367   2.577   2.280   5.283  0.9818  0.2721  0.0873
12318TIP3   OH258368   2.387   3.468  13.863 -0.6725  0.3020  0.2013
12318TIP3    H158369   2.401   3.382  13.824  1.3858  0.0989  1.2751
12318TIP3    H258370   2.469   3.488  13.908 -0.6002  3.3980 -1.0737
12319TIP3   OH258371   1.223   0.682   5.602  0.3308  0.5919 -0.2707
12319TIP3    H158372   1.315   0.655   5.605  0.1653 -0.0209 -0.6744
12319TIP3    H258373   1.174   0.600   5.598 -0.1957  0.9432 -1.1854
12320TIP3   OH258374   3.906   2.290   0.192 -0.0152  0.4098  0.2466
12320TIP3    H158375   3.835   2.314   0.251 -1.4902 -0.1899 -1.2233
12320TIP3    H258376   3.985   2.298   0.246 -1.0132  2.5414  1.5012
12321TIP3   OH258377   0.434   3.252   4.051  0.1989  0.3510 -0.1765
12321TIP3    H158378   0.416   3.210   3.967 -0.3204 -0.8103  0.4942
12321TIP3    H258379   0.522   3.223   4.075 -0.2349 -0.5436  0.3790
12322TIP3   OH258380   3.633   5.075   5.626  0.2224 -0.6371  0.1217
12322TIP3    H158381   3.603   5.051   5.714 -1.4443 -0.6482 -0.4086
12322TIP3    H258382   3.630   4.993   5.576  1.4869 -0.6997  0.1190
12323TIP3   OH258383   2.515   5.702  17.138  0.1938 -0.1016 -0.3000
12323TIP3    H158384   2.500   5.784  17.090 -0.2332 -0.1305 -0.2206
12323TIP3    H258385   2.610   5.690  17.136  0.2386  0.2723 -0.5183
12324TIP3   OH258386   6.148   1.401   4.865 -0.0748 -0.0590  0.2381
12324TIP3    H158387   6.072   1.345   4.852 -0.8973  0.8226  1.1165
12324TIP3    H258388   6.142   1.466   4.795  0.2798 -0.3958 -0.1171
12325TIP3   OH258389   6.276   6.433  16.162 -0.2404  0.8554 -0.5548
12325TIP3    H158390   6.229   6.517  16.169  0.5860  1.2128  1.5344
12325TIP3    H258391   6.247   6.384  16.240  2.2476  0.8045  0.4108
12326TIP3   OH258392   4.703   1.755  16.435 -0.4282 -0.2575  0.0642
12326TIP3    H158393   4.724   1.673  16.479 -0.7551 -1.2618 -1.5509
12326TIP3    H258394   4.650   1.728  16.359  0.8808  1.2505 -1.4655
12327TIP3   OH258395   0.239   1.271   4.485 -0.8742  0.0663  0.3513
12327TIP3    H158396   0.152   1.302   4.460 -0.3841  0.6585 -0.6623
12327TIP3    H258397   0.226   1.178   4.505 -1.9673  0.4263  1.4335
12328TIP3   OH258398   2.011   4.941   6.264  0.6222  0.5460  0.1264
12328TIP3    H158399   1.995   4.855   6.302 -1.3375  0.8045 -0.0509
12328TIP3    H258400   2.072   4.983   6.326  1.9292 -1.0690 -0.0021
12329TIP3   OH258401   0.400   3.246  12.696 -0.2737 -0.3547 -0.6073
12329TIP3    H158402   0.390   3.341  12.692 -1.2150 -0.3892  0.4251
12329TIP3    H258403   0.337   3.218  12.763 -2.1437 -2.0008 -2.8691
12330TIP3   OH258404   3.895   0.384  16.745  0.3003 -0.2372 -0.0140
12330TIP3    H158405   3.876   0.475  16.721  0.2502  0.4042  2.1778
12330TIP3    H258406   3.967   0.391  16.809  1.1676 -1.8565 -0.7575
12331TIP3   OH258407   5.951   0.071   3.122  0.1866 -0.1906 -0.1890
12331TIP3    H158408   5.993  -0.015   3.135 -0.1795 -0.5210 -1.0976
12331TIP3    H258409   5.883   0.054   3.057  0.9978  1.0558 -1.4133
12332TIP3   OH258410   2.424   4.651   1.368 -0.2707 -0.0998  0.0835
12332TIP3    H158411   2.447   4.568   1.409 -0.1679 -0.4816 -0.7260
12332TIP3    H258412   2.488   4.714   1.401  0.5238 -0.6510 -0.3813
12333TIP3   OH258413   5.957   4.222  11.356 -0.0556 -0.3375 -0.1378
12333TIP3    H158414   5.988   4.302  11.397  0.2124 -0.9416  0.8657
12333TIP3    H258415   5.872   4.246  11.319 -0.0922  0.3439  0.3672
12334TIP3   OH258416   6.262   6.619   3.476 -0.1231  0.2656  0.8272
12334TIP3    H158417   6.308   6.544   3.438 -0.0503  0.5079  0.4409
12334TIP3    H258418   6.173   6.588   3.490 -1.0499  1.1135 -2.4560
12335TIP3   OH258419   0.459   0.793  12.713 -0.0613  0.5018 -0.5024
12335TIP3    H158420   0.408   0.793  12.632 -2.2781 -1.4699  0.7805
12335TIP3    H258421   0.396   0.772  12.782  2.1909 -0.4411  1.4157
12336TIP3   OH258422   2.638   0.913   5.705 -0.7593  0.4100 -0.4457
12336TIP3    H158423   2.659   0.842   5.765  0.1538 -1.8050 -3.1819
12336TIP3    H258424   2.668   0.992   5.750  0.6956 -1.2160  1.6315
12337TIP3   OH258425   3.116   6.053  12.066 -0.1479  0.2258 -0.5218
12337TIP3    H158426   3.074   6.021  11.985 -2.3395  0.7745  0.3309
12337TIP3    H258427   3.210   6.055  12.045 -0.5158 -0.9818 -2.5761
12338TIP3   OH258428   2.041   0.036  13.293 -0.1390  0.1746 -0.1075
12338TIP3    H158429   1.945   0.044  13.290 -0.0886  0.4511 -2.4851
12338TIP3    H258430   2.072   0.095  13.225  1.8600  1.2267  1.6094
12339TIP3   OH258431   6.013   6.513  10.743 -0.0355  0.1862 -0.5513
12339TIP3    H158432   6.040   6.502  10.834 -0.2248  0.4838 -0.4582
12339TIP3    H258433   5.985   6.425  10.716  2.1609 -0.4207 -1.0393
12340TIP3   OH258434   1.657   2.895  14.902  0.2393 -0.1397 -0.1039
12340TIP3    H158435   1.743   2.926  14.929 -0.4991 -0.1374  2.5547
12340TIP3    H258436   1.668   2.800  14.891  1.1163  0.1530 -2.4319
12341TIP3   OH258437   4.876   2.158  12.280  0.4390  0.6378 -0.1026
12341TIP3    H158438   4.950   2.153  12.341  0.8242  1.9480 -0.4159
12341TIP3    H258439   4.916   2.152  12.193 -0.1488 -1.6817 -0.2676
12342TIP3   OH258440   3.085   3.432   5.527  0.4483 -0.5587 -0.3971
12342TIP3    H158441   3.028   3.475   5.590  0.3688  0.2980 -1.0334
12342TIP3    H258442   3.171   3.430   5.569  0.0272 -1.5913  0.4455
12343TIP3   OH258443   4.391   3.591   5.743 -0.0344 -0.3031  0.0993
12343TIP3    H158444   4.435   3.595   5.658  0.7718  0.3795  0.5419
12343TIP3    H258445   4.453   3.629   5.804 -0.9153 -0.0903  0.8797
12344TIP3   OH258446   0.070   1.041  16.326 -0.5577  0.0252  0.2736
12344TIP3    H158447   0.051   1.069  16.415 -1.1465  1.5163 -0.3002
12344TIP3    H258448   0.150   1.088  16.302 -1.1900  0.7603 -0.4659
12345TIP3   OH258449   3.312   1.944   5.168  0.4288  0.3286 -0.1754
12345TIP3    H158450   3.324   1.887   5.092  0.1265 -1.2877  0.9419
12345TIP3    H258451   3.371   2.018   5.152  0.9322 -0.3463 -1.6160
12346TIP3   OH258452   1.901   5.643  16.983  0.6233  0.0968  1.0104
12346TIP3    H158453   1.934   5.706  17.047 -1.1571  1.3401  0.7757
12346TIP3    H258454   1.826   5.687  16.942 -0.9443 -2.2915  1.0975
12347TIP3   OH258455   0.946   2.350   0.281  0.1875  1.2250  0.3377
12347TIP3    H158456   1.025   2.402   0.295  0.6644  0.7824 -0.6556
12347TIP3    H258457   0.973   2.260   0.297 -0.4478  1.1757  1.2614
12348TIP3   OH258458   3.402   1.600   1.503 -0.0570  0.0804  0.3190
12348TIP3    H158459   3.364   1.537   1.564 -1.2770 -0.0905 -0.5915
12348TIP3    H258460   3.409   1.681   1.553 -2.6894  0.4304  0.2271
12349TIP3   OH258461   0.896   2.925   2.993 -0.2356 -0.3546 -0.2707
12349TIP3    H158462   0.899   2.839   2.952  0.3782 -0.0252 -0.9357
12349TIP3    H258463   0.887   2.906   3.086 -1.6316 -1.1130 -0.5291
12350TIP3   OH258464   2.404   1.701  10.707 -0.0154 -0.1272 -0.2375
12350TIP3    H158465   2.437   1.636  10.770 -1.3657  0.7951  1.5324
12350TIP3    H258466   2.329   1.658  10.666  0.1842 -0.3313 -0.3890
12351TIP3   OH258467   4.136   3.747  11.699  1.1108  0.2469  0.2540
12351TIP3    H158468   4.143   3.690  11.622 -2.3588 -0.9331  0.6260
12351TIP3    H258469   4.164   3.691  11.772 -0.1615 -0.3020  0.3499
12352TIP3   OH258470   5.939   5.359   3.294 -0.5593 -0.4661 -0.2158
12352TIP3    H158471   5.970   5.397   3.376 -1.5173 -3.1089  1.5186
12352TIP3    H258472   5.843   5.365   3.300 -0.7137  2.3915 -2.8427
12353TIP3   OH258473   5.706   3.925   4.235 -0.0645 -0.6234 -0.2206
12353TIP3    H158474   5.629   3.872   4.255 -0.4807  0.0410 -0.0317
12353TIP3    H258475   5.734   3.895   4.148  1.5309 -3.2854  1.0704
12354TIP3   OH258476   3.042   6.111   2.538 -0.6607  0.1530 -0.0347
12354TIP3    H158477   3.091   6.075   2.611  0.3566 -1.7855 -1.5861
12354TIP3    H258478   3.102   6.172   2.496 -0.4122 -0.4748 -0.5918
12355TIP3   OH258479   2.074   3.848   3.662 -0.1762 -0.7277  0.4249
12355TIP3    H158480   2.151   3.814   3.708  0.9750 -2.2241 -2.3636
12355TIP3    H258481   2.108   3.923   3.612 -0.5267 -1.2965 -0.6931
12356TIP3   OH258482   5.739   0.866   5.736 -0.4283  0.3978  0.1174
12356TIP3    H158483   5.756   0.771   5.738 -2.2143  0.0413  0.0559
12356TIP3    H258484   5.795   0.902   5.805 -0.9667 -0.9453  1.3091
12357TIP3   OH258485   2.847   5.710   1.479 -0.4895  0.2310 -0.1231
12357TIP3    H158486   2.859   5.765   1.402 -0.9434  0.8026  0.2106
12357TIP3    H258487   2.847   5.621   1.444 -1.7545  0.5287 -0.9383
12358TIP3   OH258488   2.646   1.714   2.431 -0.4971 -0.1048  0.3223
12358TIP3    H158489   2.692   1.678   2.355 -0.0960 -1.5650  1.2236
12358TIP3    H258490   2.560   1.739   2.397 -0.4120 -0.9516 -0.5730
12359TIP3   OH258491   3.083   1.779   5.298  0.2464 -0.4940  0.2567
12359TIP3    H158492   3.083   1.746   5.208 -0.6720 -1.1338  0.4836
12359TIP3    H258493   3.013   1.731   5.342  0.8552 -0.3789  1.3949
12360TIP3   OH258494   1.820   0.310   0.037 -0.1085  0.2454  0.7422
12360TIP3    H158495   1.913   0.332   0.030 -0.0419 -0.4785 -1.1062
12360TIP3    H258496   1.819   0.218   0.065 -0.2079 -0.2038 -0.6571
12361TIP3   OH258497   5.389   4.644  11.716 -0.0809  0.0985 -0.6441
12361TIP3    H158498   5.376   4.565  11.768 -0.5259 -0.1284 -1.1009
12361TIP3    H258499   5.301   4.674  11.696  0.0911  0.1004 -1.4101
12362TIP3   OH258500   2.863   4.720   2.788 -0.0496 -0.1211 -0.4524
12362TIP3    H158501   2.850   4.757   2.701  0.5574 -2.0540 -1.4186
12362TIP3    H258502   2.953   4.688   2.787 -0.5025 -1.4726  0.3668
12363TIP3   OH258503   5.217   0.785  12.835  0.0113  0.7315  0.0216
12363TIP3    H158504   5.312   0.781  12.819 -0.1523 -0.3853 -0.8391
12363TIP3    H258505   5.179   0.801  12.748 -0.6135  0.5343  0.2543
12364TIP3   OH258506   5.969   5.670  12.597 -0.0311 -0.0726  0.5054
12364TIP3    H158507   5.913   5.603  12.637 -0.9031  0.5086  0.2834
12364TIP3    H258508   5.973   5.646  12.505 -0.7143  0.4247  0.3413
12365TIP3   OH258509   5.363   3.171  11.317  0.6847 -0.4109 -0.1314
12365TIP3    H158510   5.299   3.219  11.263 -0.1194 -2.3105 -0.9369
12365TIP3    H258511   5.447   3.214  11.297 -0.3459  2.8857  1.7977
12366TIP3   OH258512   2.820   0.272   3.348  0.6171 -0.5602  0.6885
12366TIP3    H158513   2.835   0.278   3.442  1.4343  1.4495  0.4932
12366TIP3    H258514   2.725   0.274   3.338  0.4164  3.8009  1.4153
12367TIP3   OH258515   6.762   5.901  13.871 -0.1568  0.2429  0.1577
12367TIP3    H158516   6.790   5.909  13.962 -1.2827 -1.2338  0.6694
12367TIP3    H258517   6.806   5.822  13.840 -0.9553 -0.0947 -0.1154
12368TIP3   OH258518   2.274   1.748  15.344  0.5449 -0.0105  0.2667
12368TIP3    H158519   2.213   1.792  15.285  1.3648 -0.5435 -1.0177
12368TIP3    H258520   2.221   1.724  15.420 -0.1220  2.4060  0.6470
12369TIP3   OH258521   5.350   4.285   3.834  0.1981 -0.5712 -0.0397
12369TIP3    H158522   5.344   4.250   3.745 -2.6286  2.6309 -1.3393
12369TIP3    H258523   5.400   4.366   3.825  0.1088 -0.3393  1.3260
12370TIP3   OH258524   1.040   5.536   3.331 -0.6151 -0.0647 -0.0179
12370TIP3    H158525   1.009   5.510   3.244 -1.5424 -0.4823  0.4201
12370TIP3    H258526   1.020   5.461   3.387  0.3655  0.0286  0.4812
12371TIP3   OH258527   5.408   6.604   5.352  0.3449  0.1329  0.0642
12371TIP3    H158528   5.330   6.660   5.352  0.2654  0.0243  0.9019
12371TIP3    H258529   5.428   6.590   5.444  0.6733 -0.7923 -0.1407
12372TIP3   OH258530   0.658   1.626   6.004  0.5579  0.1234  0.6006
12372TIP3    H158531   0.678   1.553   6.063 -0.0440 -0.3473  0.2335
12372TIP3    H258532   0.563   1.637   6.010  0.8314  2.2491  2.2310
12373TIP3   OH258533   3.355   3.534  11.710  0.2093  0.4256  0.1090
12373TIP3    H158534   3.286   3.477  11.676 -0.8454  1.1892  0.8881
12373TIP3    H258535   3.392   3.485  11.784  0.3366  0.1166 -0.1584
12374TIP3   OH258536   5.182   3.795  12.767  0.1391  0.1265  0.3321
12374TIP3    H158537   5.189   3.712  12.721  1.0072  0.1249  0.4431
12374TIP3    H258538   5.248   3.851  12.726  1.0168  0.0869  1.6213
12375TIP3   OH258539   2.752   5.867  14.503 -0.0681  0.2783  0.2699
12375TIP3    H158540   2.692   5.893  14.574 -1.8282 -2.5268 -0.0600
12375TIP3    H258541   2.701   5.879  14.423  0.7100  0.1659 -0.2489
12376TIP3   OH258542   5.874   0.703   2.178 -0.4179 -0.7401 -0.3741
12376TIP3    H158543   5.831   0.618   2.189 -0.7706 -0.4114  0.9656
12376TIP3    H258544   5.821   0.764   2.229  0.5128  0.0566 -0.3227
12377TIP3   OH258545   2.535   1.596   4.317  0.0469  0.2501 -0.5104
12377TIP3    H158546   2.560   1.669   4.262  0.4054 -0.0619 -0.7652
12377TIP3    H258547   2.596   1.598   4.391 -0.7792  0.9992  0.1737
12378TIP3   OH258548   4.436   3.713   0.596 -0.3750  1.0753  0.1589
12378TIP3    H158549   4.391   3.691   0.678 -0.7323  0.8561 -0.0950
12378TIP3    H258550   4.486   3.635   0.574  0.4227  1.4413  0.6268
12379TIP3   OH258551   6.364   0.468  11.146 -0.0851  0.2466  1.0308
12379TIP3    H158552   6.331   0.554  11.169  0.4259  0.7200  0.0712
12379TIP3    H258553   6.457   0.482  11.129 -0.4516  0.0435 -1.5648
12380TIP3   OH258554   1.435   2.219   5.639 -0.8582  0.0281 -0.3983
12380TIP3    H158555   1.455   2.143   5.584  0.6860 -1.8394  2.4947
12380TIP3    H258556   1.345   2.203   5.668 -0.1478 -1.5222  1.1930
12381TIP3   OH258557   0.133   4.432  12.953 -0.6721  0.6411  0.0286
12381TIP3    H158558   0.074   4.447  12.880  1.3508  1.1946 -1.5722
12381TIP3    H258559   0.220   4.451  12.919  0.5701 -0.9497  2.0407
12382TIP3   OH258560   2.696   6.099   5.960  0.3663 -0.0093 -0.0143
12382TIP3    H158561   2.788   6.095   5.985  0.9225  1.9097 -1.5249
12382TIP3    H258562   2.681   6.017   5.912  1.3053 -0.2954  0.1559
12383TIP3   OH258563   1.657   2.148  16.274  0.2942  0.2033  0.9506
12383TIP3    H158564   1.628   2.178  16.188  0.6760 -0.7929  0.4598
12383TIP3    H258565   1.591   2.182  16.334 -0.1489  0.6496  0.2284
12384TIP3   OH258566   4.747   5.210  14.594 -0.1239 -0.2463  0.6183
12384TIP3    H158567   4.791   5.128  14.569  1.1106  0.5593  0.0224
12384TIP3    H258568   4.717   5.195  14.683 -0.1035 -1.4267  0.4411
12385TIP3   OH258569   2.508   1.093   6.331 -0.6307  0.4323  0.1905
12385TIP3    H158570   2.459   1.068   6.409 -0.5346  0.6568  0.3188
12385TIP3    H258571   2.568   1.161   6.359 -3.8894  4.1672 -0.9735
12386TIP3   OH258572   4.777   3.015  16.144 -0.0666 -0.6361 -0.2969
12386TIP3    H158573   4.811   2.973  16.223 -0.0243 -0.3994 -0.1887
12386TIP3    H258574   4.735   3.094  16.176  1.2505  0.2423 -0.6535
12387TIP3   OH258575   2.082   3.266   5.459  0.3986 -0.2204 -0.9436
12387TIP3    H158576   2.119   3.201   5.399  0.7394 -0.2509 -0.7090
12387TIP3    H258577   2.022   3.317   5.406  1.0877  0.0937 -1.4458
12388TIP3   OH258578   1.385   5.498   3.807  0.0007  0.0007  0.4586
12388TIP3    H158579   1.395   5.564   3.875 -1.0421  1.5641 -0.8418
12388TIP3    H258580   1.305   5.523   3.760 -0.4539 -2.2124 -0.0531
12389TIP3   OH258581   0.950   0.288   3.721  0.4538 -0.0947  0.7624
12389TIP3    H158582   1.010   0.298   3.647  0.6819  2.5870  1.1970
12389TIP3    H258583   0.880   0.350   3.702 -0.5743 -0.9133  1.7982
12390TIP3   OH258584   0.646   1.246   2.455  0.1555  0.3184  0.0845
12390TIP3    H158585   0.663   1.309   2.384  0.3092  0.4541  0.2386
12390TIP3    H258586   0.551   1.242   2.462  0.1455  0.6152  0.1430
12391TIP3   OH258587   1.736   4.709   2.493 -0.0207 -0.4723 -0.5136
12391TIP3    H158588   1.769   4.757   2.569 -0.0732  0.3238 -0.9865
12391TIP3    H258589   1.657   4.665   2.525 -1.9424  2.4138 -0.8249
12392TIP3   OH258590   1.724   5.290  15.235  0.0669  0.0030  0.3140
12392TIP3    H158591   1.751   5.219  15.293  0.3083  0.3965  0.6877
12392TIP3    H258592   1.745   5.370  15.283 -1.3449  0.3369  0.4265
12393TIP3   OH258593   0.085   6.766   3.674  0.3815 -0.1966  0.1382
12393TIP3    H158594  -0.010   6.773   3.669  0.3264 -0.7785  0.2801
12393TIP3    H258595   0.113   6.744   3.585  0.1956 -1.9453  0.4772
12394TIP3   OH258596   5.093   6.588   3.768 -0.4068  0.1200 -0.0708
12394TIP3    H158597   5.091   6.535   3.848 -1.9210  1.9713  1.2282
12394TIP3    H258598   5.042   6.538   3.705 -2.0344  0.0668  1.2081
12395TIP3   OH258599   1.971   1.430   1.194  0.0853 -0.0491 -0.1883
12395TIP3    H158600   1.931   1.491   1.132  0.0052 -0.8354 -0.9338
12395TIP3    H258601   2.056   1.408   1.155 -0.5545 -1.6485 -0.7756
12396TIP3   OH258602   3.074   3.006  10.892  0.5883  0.7434  0.2652
12396TIP3    H158603   3.117   3.049  10.818  0.6921  1.1255  0.5476
12396TIP3    H258604   3.023   2.936  10.852 -0.3865  1.7444 -0.3038
12397TIP3   OH258605   4.098   3.050  14.068 -0.1343 -0.6431 -0.0807
12397TIP3    H158606   4.003   3.041  14.062 -0.0673 -2.1155  0.8191
12397TIP3    H258607   4.123   3.089  13.984 -1.4796 -0.5231 -0.4549
12398TIP3   OH258608   6.427   5.273   5.015  0.4042 -0.2145 -0.3472
12398TIP3    H158609   6.455   5.346   5.070 -0.0041  0.8097 -1.4514
12398TIP3    H258610   6.349   5.306   4.970  0.5587 -1.1218 -1.3123
12399TIP3   OH258611   0.033   3.762   5.173  0.0377  0.6112  0.6590
12399TIP3    H158612   0.031   3.857   5.160 -0.1680  0.7045  1.3374
12399TIP3    H258613   0.102   3.747   5.237 -1.2308  0.5199  2.0784
12400TIP3   OH258614   3.459   1.641  13.296  0.2215 -0.2804 -0.5513
12400TIP3    H158615   3.426   1.565  13.247  1.3569 -1.2005  0.0695
12400TIP3    H258616   3.499   1.697  13.230 -0.0478 -0.5304 -0.9323
12401TIP3   OH258617   5.293   1.299  15.876  0.0023 -0.3966 -0.1911
12401TIP3    H158618   5.366   1.292  15.938  0.5627  1.5290 -0.5455
12401TIP3    H258619   5.215   1.297  15.931  0.4394  0.0287  0.4615
12402TIP3   OH258620   4.250   6.247   3.433 -0.0302  0.3793 -0.9348
12402TIP3    H158621   4.311   6.320   3.429 -0.8470  1.1494  0.1062
12402TIP3    H258622   4.180   6.270   3.372 -0.1449  0.3350 -0.8219
12403TIP3   OH258623   1.546   3.367   6.023  0.3826 -0.3530  0.6127
12403TIP3    H158624   1.616   3.432   6.015  1.8794 -1.6782  2.1801
12403TIP3    H258625   1.494   3.397   6.097  0.1625 -0.1578  0.3817
12404TIP3   OH258626   2.390   0.253   2.555 -0.3137 -0.2871 -0.1978
12404TIP3    H158627   2.475   0.210   2.547  0.2513  0.5624  0.8962
12404TIP3    H258628   2.328   0.182   2.570  0.4231 -0.8132  0.4470
12405TIP3   OH258629   4.359   2.959   3.005 -0.0854 -0.4663 -0.1301
12405TIP3    H158630   4.284   2.900   2.993 -0.7095  0.6018 -2.0040
12405TIP3    H258631   4.432   2.913   2.964 -0.5269 -0.0711 -1.4191
12406TIP3   OH258632   2.194   1.610  11.032  0.5234  0.7669  0.1532
12406TIP3    H158633   2.243   1.692  11.025  1.5548  0.2519  1.1590
12406TIP3    H258634   2.217   1.574  11.117 -0.0813 -0.4788 -0.1768
12407TIP3   OH258635   2.811   1.638   4.915 -0.1530 -0.0143 -0.1001
12407TIP3    H158636   2.785   1.707   4.976  2.6578  0.4030  0.8103
12407TIP3    H258637   2.732   1.618   4.865 -2.3474  0.3325  2.9694
12408TIP3   OH258638   4.292   2.381  11.082  0.0727  0.1997 -0.2248
12408TIP3    H158639   4.293   2.355  10.990 -0.7851 -1.6117  0.2390
12408TIP3    H258640   4.358   2.326  11.123  0.7494  1.2943  0.2001
12409TIP3   OH258641   5.529   0.277   2.130 -1.1313  0.6241 -0.4350
12409TIP3    H158642   5.584   0.322   2.066  0.0487 -0.8139 -0.4912
12409TIP3    H258643   5.453   0.247   2.080 -0.9442  0.7977 -0.8222
12410TIP3   OH258644   6.288   3.163   3.533 -0.5478 -0.7739 -0.3764
12410TIP3    H158645   6.273   3.257   3.542  0.1019 -0.8365  2.2353
12410TIP3    H258646   6.366   3.156   3.479 -1.9005  0.0325 -2.5598
12411TIP3   OH258647   5.316   5.307  12.169  0.6249  0.5812  0.0505
12411TIP3    H158648   5.302   5.380  12.230 -0.4501  0.2814  0.1938
12411TIP3    H258649   5.352   5.348  12.090 -0.6977  1.4138 -0.1639
12412TIP3   OH258650   6.418   4.414  15.641 -0.4818 -0.9512  0.6432
12412TIP3    H158651   6.354   4.473  15.681 -1.7525 -0.2770 -2.1434
12412TIP3    H258652   6.376   4.384  15.560  2.4489 -1.0259 -0.9997
12413TIP3   OH258653   1.369   4.513   6.479 -0.3054 -0.1765 -0.7028
12413TIP3    H158654   1.296   4.521   6.541 -0.4375 -0.1303 -0.8635
12413TIP3    H258655   1.346   4.438   6.424  0.3540 -0.9421  0.0282
12414TIP3   OH258656   2.007   2.562  15.319 -0.2001  0.1581 -0.1096
12414TIP3    H158657   1.919   2.580  15.286 -0.0315 -0.5011 -0.9737
12414TIP3    H258658   2.045   2.503  15.254  0.7261  0.0803  0.4804
12415TIP3   OH258659   5.379   0.945  10.783  0.3483  0.5596  0.1673
12415TIP3    H158660   5.342   0.862  10.814 -0.2169  1.3024  1.5334
12415TIP3    H258661   5.465   0.920  10.748  0.3853 -0.5461  0.9831
12416TIP3   OH258662   1.168   2.937   4.237 -0.5452  0.2239  0.3610
12416TIP3    H158663   1.154   2.992   4.315 -1.1310  1.9414 -0.8998
12416TIP3    H258664   1.189   2.851   4.273 -0.6554  0.9873  2.4274
12417TIP3   OH258665   4.785   5.774   4.652  0.0179 -0.0050  0.8425
12417TIP3    H158666   4.767   5.836   4.582 -1.0048  0.3278  1.3719
12417TIP3    H258667   4.815   5.829   4.725 -1.2363 -0.0707  1.4308
12418TIP3   OH258668   3.055   2.090   5.919  0.9391  0.2966  0.2606
12418TIP3    H158669   3.122   2.076   5.852  1.1980  1.0362  0.3590
12418TIP3    H258670   3.064   2.182   5.943  0.4631  0.1804  0.9003
12419TIP3   OH258671   6.326   5.828  13.666 -0.3450 -0.5320 -0.0266
12419TIP3    H158672   6.231   5.842  13.665 -0.2668  0.1968  1.1384
12419TIP3    H258673   6.345   5.798  13.755  0.5726 -0.2265 -0.1114
12420TIP3   OH258674   1.824   4.080  11.810 -0.2800 -0.0555 -0.2340
12420TIP3    H158675   1.729   4.086  11.823 -0.3209 -1.3873  0.2347
12420TIP3    H258676   1.846   3.990  11.834  1.1221  0.2582 -0.2521
12421TIP3   OH258677   5.104   4.515  13.337  0.9046  0.0666  0.0862
12421TIP3    H158678   5.172   4.583  13.331  0.7128  0.1290 -1.9296
12421TIP3    H258679   5.153   4.433  13.341  1.1275  0.1441 -0.8095
12422TIP3   OH258680   4.910   1.793   5.705  0.6951  0.1442  0.2702
12422TIP3    H158681   4.908   1.874   5.757 -0.8837  0.4351 -0.1959
12422TIP3    H258682   4.914   1.823   5.614  1.0323 -0.3367  0.1228
12423TIP3   OH258683   5.062   5.753   4.366  0.0839  0.1131  0.1010
12423TIP3    H158684   5.006   5.678   4.385  1.1589 -1.1202 -1.3445
12423TIP3    H258685   5.006   5.813   4.316  0.0421 -1.1519 -1.4349
12424TIP3   OH258686   3.081   4.729   3.711 -0.0643  0.3047 -0.1922
12424TIP3    H158687   3.121   4.687   3.786 -1.3147 -1.9156 -0.6885
12424TIP3    H258688   3.024   4.797   3.748  0.1065 -0.0895  0.8014
12425TIP3   OH258689   1.596   0.633   4.899  0.2370 -0.0631 -0.2022
12425TIP3    H158690   1.663   0.623   4.967  0.0543 -2.6320 -0.2682
12425TIP3    H258691   1.645   0.631   4.817  0.1765 -2.1701 -0.2602
12426TIP3   OH258692   0.232   1.543   0.376  0.4881  0.1634  0.1846
12426TIP3    H158693   0.184   1.461   0.375 -0.6372  0.8006  0.2590
12426TIP3    H258694   0.164   1.611   0.370  1.2736  1.1191  1.5735
12427TIP3   OH258695   3.632   4.198  12.058 -0.2362  0.0487 -1.2426
12427TIP3    H158696   3.557   4.163  12.107 -0.9650  1.2922 -1.4371
12427TIP3    H258697   3.599   4.278  12.017  1.6162  1.4707 -0.0912
12428TIP3   OH258698   0.575   1.197  16.233 -0.7126  0.3307  0.2035
12428TIP3    H158699   0.533   1.205  16.319  0.3083  2.0894  0.5898
12428TIP3    H258700   0.555   1.280  16.189 -0.9078 -0.3990 -1.1406
12429TIP3   OH258701   6.215   3.033  13.531  0.3997 -0.0476 -0.1237
12429TIP3    H158702   6.296   3.033  13.581  0.3922 -1.7857 -0.0661
12429TIP3    H258703   6.233   2.977  13.456 -0.1458  1.1293 -1.1594
12430TIP3   OH258704   2.395   0.468   1.115 -1.0601 -1.0065 -0.3998
12430TIP3    H158705   2.327   0.535   1.123  1.0095  1.2922 -0.7428
12430TIP3    H258706   2.458   0.505   1.053 -0.3309 -3.8152 -1.4959
12431TIP3   OH258707   2.966   4.829  14.370  0.0529 -0.3438  0.5655
12431TIP3    H158708   2.998   4.836  14.280  0.1220 -2.2223  0.3913
12431TIP3    H258709   3.016   4.893  14.419  0.7410  0.0058 -0.5593
12432TIP3   OH258710   4.021   1.266  16.870 -0.3412 -0.3794  0.0005
12432TIP3    H158711   4.005   1.252  16.777  1.4434  0.1800 -0.4163
12432TIP3    H258712   4.007   1.180  16.910 -1.1133 -0.6254 -0.7612
12433TIP3   OH258713   3.646   2.373  11.968 -0.1777 -0.3736  0.2763
12433TIP3    H158714   3.698   2.298  11.941 -1.1565 -0.9349 -0.0944
12433TIP3    H258715   3.590   2.340  12.038 -2.7844 -0.8823 -1.8620
12434TIP3   OH258716   4.917   0.833  14.620  0.1628 -0.2832 -0.2658
12434TIP3    H158717   4.943   0.923  14.599 -0.4268  0.9941  3.7515
12434TIP3    H258718   4.823   0.839  14.635  0.1395 -1.5453  0.1919
12435TIP3   OH258719   6.276   0.438  17.190  0.3228  0.2396  0.1808
12435TIP3    H158720   6.316   0.525  17.179 -0.1314  0.1977 -2.4444
12435TIP3    H258721   6.342   0.377  17.156 -0.0513 -0.2850  0.3833
12436TIP3   OH258722   1.662   4.749   6.013 -0.3393  0.2108 -0.2066
12436TIP3    H158723   1.682   4.671   6.065 -2.3316  0.0197  0.3389
12436TIP3    H258724   1.656   4.820   6.076  2.7632  1.1913 -0.8195
12437TIP3   OH258725   5.858   1.871  14.818  0.2920  0.4196 -0.4474
12437TIP3    H158726   5.903   1.802  14.867  1.0847 -1.4892 -3.5663
12437TIP3    H258727   5.904   1.952  14.842  0.3305 -0.2788  2.1555
12438TIP3   OH258728   0.496   1.003  12.150  0.1964 -0.8494  0.0642
12438TIP3    H158729   0.503   1.041  12.237 -0.5726 -1.7824  0.5482
12438TIP3    H258730   0.573   1.036  12.104  2.8880 -3.4065  2.3146
12439TIP3   OH258731   5.959   4.369   2.478  0.2886 -0.7639  0.3197
12439TIP3    H158732   5.873   4.358   2.438  1.0506  0.0343 -1.6394
12439TIP3    H258733   5.981   4.283   2.513 -0.8268 -1.2530 -0.1463
12440TIP3   OH258734   0.275   0.910   0.955  0.4807 -0.1863 -0.1195
12440TIP3    H158735   0.200   0.880   0.905  0.4477  1.8130 -1.3487
12440TIP3    H258736   0.351   0.888   0.901  0.3575  3.7704 -2.2625
12441TIP3   OH258737   1.515   1.403   4.038  0.3208 -0.1959  0.2017
12441TIP3    H158738   1.477   1.446   3.962 -0.2502 -0.6200  0.2412
12441TIP3    H258739   1.440   1.381   4.093  0.8024  3.8961  3.0021
12442TIP3   OH258740   5.946   6.563  16.829 -0.1729 -0.3468  0.3785
12442TIP3    H158741   5.903   6.639  16.790  0.9903  1.3571  2.2345
12442TIP3    H258742   6.027   6.552  16.778  1.7058  2.3209  2.4971
12443TIP3   OH258743   3.770   5.782  15.603  0.2069  0.0018  0.0423
12443TIP3    H158744   3.695   5.780  15.544 -0.5338 -0.1564  0.9568
12443TIP3    H258745   3.732   5.787  15.691  1.2803  0.6618  0.4990
12444TIP3   OH258746   4.552   6.183  12.376 -0.1517 -0.4687  0.4251
12444TIP3    H158747   4.457   6.182  12.390  0.0671 -0.2549  2.1681
12444TIP3    H258748   4.569   6.109  12.319 -1.5952  0.7934 -1.8190
12445TIP3   OH258749   5.935   2.127  11.806 -0.7669  0.1454 -0.9831
12445TIP3    H158750   5.938   2.223  11.804  1.4662  0.3195  2.0540
12445TIP3    H258751   5.870   2.107  11.873  0.8046 -0.2385  0.5168
12446TIP3   OH258752   6.528   1.967  11.427  0.1071  0.1765 -0.1990
12446TIP3    H158753   6.592   2.009  11.369 -1.8027  2.1627 -1.0321
12446TIP3    H258754   6.485   1.902  11.371 -0.1178  0.4229 -0.3153
12447TIP3   OH258755   1.759   1.014  14.177  0.4857 -0.2720 -0.1107
12447TIP3    H158756   1.723   0.927  14.196 -0.4971  0.7487  3.2653
12447TIP3    H258757   1.708   1.045  14.102 -1.8154 -1.1172  1.0341
12448TIP3   OH258758   1.428   3.089  15.224 -0.1023 -0.1695  0.2333
12448TIP3    H158759   1.338   3.090  15.191  0.4362  0.2899 -1.2965
12448TIP3    H258760   1.420   3.057  15.314 -2.0797  2.2347  1.0287
12449TIP3   OH258761   3.330   5.565   4.438 -0.0322 -0.4028 -0.6473
12449TIP3    H158762   3.386   5.523   4.503 -0.1817 -0.8716 -0.8165
12449TIP3    H258763   3.328   5.657   4.463 -1.4055 -0.8258  0.9812
12450TIP3   OH258764   5.830   2.407   5.884 -0.5945  0.2141 -0.0283
12450TIP3    H158765   5.865   2.369   5.804  0.5689  1.6322 -0.2308
12450TIP3    H258766   5.821   2.332   5.944 -0.6743 -0.7246 -1.1680
12451TIP3   OH258767   5.308   5.839  16.910  0.1400  0.2588 -0.4501
12451TIP3    H158768   5.391   5.880  16.884  2.4186 -3.2394  0.5868
12451TIP3    H258769   5.301   5.761  16.854 -1.9363 -0.1049  0.2255
12452TIP3   OH258770   3.110   3.506  12.716  0.4642  0.3252  0.4864
12452TIP3    H158771   3.175   3.503  12.646  0.1148  0.0292  0.1696
12452TIP3    H258772   3.145   3.447  12.783  2.1150  2.5880  1.7478
12453TIP3   OH258773   5.387   1.831  16.135 -0.8156 -0.2334 -0.6341
12453TIP3    H158774   5.374   1.889  16.060  1.7454 -0.1980 -1.1530
12453TIP3    H258775   5.428   1.887  16.201  2.0216 -1.3645 -1.2656
12454TIP3   OH258776   5.044   5.786  16.000 -0.0670  0.3992 -0.8383
12454TIP3    H158777   5.061   5.878  16.021 -2.4336  0.9002 -0.7971
12454TIP3    H258778   5.055   5.741  16.083 -1.1694  1.0514 -0.3094
12455TIP3   OH258779   3.467   5.094  14.104 -0.1668 -0.0795  0.1097
12455TIP3    H158780   3.384   5.138  14.082 -0.6494 -0.9591  0.1266
12455TIP3    H258781   3.531   5.164  14.106 -0.1195  0.1662 -3.7366
12456TIP3   OH258782   3.491   3.512   2.049  0.7539  0.1192 -0.1803
12456TIP3    H158783   3.539   3.441   2.091 -0.4805 -0.0967  0.9106
12456TIP3    H258784   3.463   3.476   1.965  2.7178  0.3537 -1.0113
12457TIP3   OH258785   5.217   5.663  14.841  0.1244  0.7788  0.5469
12457TIP3    H158786   5.139   5.708  14.872 -0.7818  0.1804 -0.7653
12457TIP3    H258787   5.203   5.572  14.865  0.3649  0.6553  0.2251
12458TIP3   OH258788   6.030   2.312   6.278  0.2673 -0.0315  0.0772
12458TIP3    H158789   6.061   2.403   6.276  0.5367 -0.1197 -1.3789
12458TIP3    H258790   5.935   2.319   6.267  0.3286  0.0784 -0.4339
12459TIP3   OH258791   6.028   5.921  12.378  0.0224 -0.3351  0.1882
12459TIP3    H158792   6.065   5.885  12.458 -0.4050 -1.4235 -0.0935
12459TIP3    H258793   5.935   5.934  12.397  0.1282  0.4572  0.2194
12460TIP3   OH258794   0.723   0.460  12.555  0.0359  0.4147  0.2442
12460TIP3    H158795   0.788   0.530  12.561  0.1859  0.2499  0.5897
12460TIP3    H258796   0.640   0.506  12.543  0.2093  0.6288 -0.1570
12461TIP3   OH258797   5.614   4.788  10.956 -0.2921 -0.2818  0.2070
12461TIP3    H158798   5.651   4.876  10.947 -0.3318  0.0239  2.3569
12461TIP3    H258799   5.552   4.780  10.884  1.4468  0.4995 -1.4637
12462TIP3   OH258800   6.232   2.530  17.061 -0.0564  0.2623 -0.6084
12462TIP3    H158801   6.178   2.525  17.140 -0.2783  0.8636 -0.7204
12462TIP3    H258802   6.189   2.595  17.006  0.1087 -0.1305 -1.2201
12463TIP3   OH258803   5.355   4.347   1.317  0.2059 -0.3501  0.6918
12463TIP3    H158804   5.450   4.359   1.317  0.5391 -2.5368  1.2214
12463TIP3    H258805   5.327   4.385   1.401  0.4564  1.0252  0.1861
12464TIP3   OH258806   0.720   2.380  12.325 -0.2690 -0.2335 -0.5462
12464TIP3    H158807   0.790   2.347  12.381 -1.2008 -1.2417  0.0519
12464TIP3    H258808   0.695   2.463  12.366 -0.1149 -0.3622 -0.1857
12465TIP3   OH258809   5.528   4.340  13.256  0.2350  0.1036 -0.1593
12465TIP3    H158810   5.533   4.318  13.349  0.5794 -2.0709 -0.6429
12465TIP3    H258811   5.574   4.424  13.248 -0.6644  0.8407  1.7488
12466TIP3   OH258812   3.056   0.883  14.370 -0.2775  0.0299 -0.0390
12466TIP3    H158813   3.057   0.940  14.293 -1.6509 -1.3364 -1.1569
12466TIP3    H258814   3.038   0.941  14.443  1.2867  1.4043 -0.6842
12467TIP3   OH258815   4.013   4.369  15.157 -0.6809  0.1875  0.4758
12467TIP3    H158816   4.085   4.411  15.110 -0.2076  0.6941  1.6198
12467TIP3    H258817   3.934   4.403  15.114 -0.2739 -0.4981 -0.8976
12468TIP3   OH258818   0.954   6.380   1.297  0.0599 -0.4861  0.1720
12468TIP3    H158819   0.905   6.341   1.369  1.0960 -0.9943  0.6225
12468TIP3    H258820   1.033   6.416   1.338  1.4680 -2.1937 -0.8640
12469TIP3   OH258821   3.247   1.916   0.780 -0.2075  0.2369 -0.3895
12469TIP3    H158822   3.328   1.910   0.832 -0.1105  0.5240 -0.5072
12469TIP3    H258823   3.180   1.942   0.843 -0.1316  0.3789 -0.3671
12470TIP3   OH258824   1.801   5.274   2.548  0.1181  0.1363 -0.1138
12470TIP3    H158825   1.830   5.325   2.624  0.0677  0.3750 -0.2527
12470TIP3    H258826   1.864   5.296   2.480 -0.1285  0.3112 -0.2864
12471TIP3   OH258827   1.358   6.274  16.896 -0.1469  0.0562 -0.0536
12471TIP3    H158828   1.344   6.360  16.857  0.9888 -0.0198 -0.6854
12471TIP3    H258829   1.351   6.213  16.823 -2.3975 -0.5882  0.6181
12472TIP3   OH258830   0.708   4.750  12.012  0.4254 -0.2624  0.2427
12472TIP3    H158831   0.669   4.703  12.086 -1.6682  1.3882  0.2860
12472TIP3    H258832   0.739   4.681  11.953 -1.5987 -1.6876  0.7518
12473TIP3   OH258833   0.823   6.629   0.865  0.6154 -0.1995  0.0833
12473TIP3    H158834   0.842   6.585   0.948  1.8561  0.5031  0.1868
12473TIP3    H258835   0.832   6.722   0.885  0.0044  0.0241 -0.6312
12474TIP3   OH258836   0.169   5.094   1.889  0.2604  0.7482 -0.2831
12474TIP3    H158837   0.118   5.147   1.951  1.3516  2.1391 -0.5170
12474TIP3    H258838   0.136   5.005   1.901 -0.9566  1.3094  0.8442
12475TIP3   OH258839   1.913   6.611   0.928 -0.2958  0.7355 -0.1231
12475TIP3    H158840   1.976   6.590   0.997 -0.0453 -1.2392 -0.8916
12475TIP3    H258841   1.843   6.546   0.939 -1.1507  1.5419 -0.6213
12476TIP3   OH258842   3.178   5.670   5.468 -0.4610 -0.7132 -0.6788
12476TIP3    H158843   3.152   5.722   5.544  2.2555  0.1940 -0.2382
12476TIP3    H258844   3.122   5.593   5.471 -0.6441 -0.5792  2.1224
12477TIP3   OH258845   3.295   0.255   4.870  0.9524  0.0597  0.4994
12477TIP3    H158846   3.305   0.166   4.905  4.0092 -0.8580 -2.1474
12477TIP3    H258847   3.329   0.312   4.939  0.4119 -0.9579  1.6491
12478TIP3   OH258848   2.939   3.355  15.418  0.3171  0.5240 -0.4689
12478TIP3    H158849   2.881   3.423  15.451 -2.9458 -0.8454 -2.9100
12478TIP3    H258850   2.993   3.399  15.351 -0.8108  1.0189 -1.0699
12479TIP3   OH258851   6.184   4.514   0.298 -0.2331  0.0386 -0.6602
12479TIP3    H158852   6.134   4.580   0.346 -0.1253 -0.7462  0.5657
12479TIP3    H258853   6.248   4.565   0.248 -0.8795  0.9209 -0.6145
12480TIP3   OH258854   3.083   3.795   2.854  0.2365 -0.0093  0.3638
12480TIP3    H158855   3.069   3.877   2.901  1.8459  0.9312 -0.7173
12480TIP3    H258856   2.998   3.776   2.814 -0.1378  1.1688  0.5537
12481TIP3   OH258857   1.513   4.730   4.969 -0.4439  0.2851 -0.5209
12481TIP3    H158858   1.589   4.673   4.967  1.1226  2.0309  2.5102
12481TIP3    H258859   1.457   4.694   5.037 -0.5055  1.0650 -0.1425
12482TIP3   OH258860   1.703   2.363  13.509  0.2208  0.3236 -0.0614
12482TIP3    H158861   1.682   2.312  13.587 -2.0360 -1.7578 -1.8757
12482TIP3    H258862   1.727   2.299  13.443 -1.9209  1.5635 -2.2141
12483TIP3   OH258863   4.711   1.920  14.169 -0.4868  0.3073  0.6258
12483TIP3    H158864   4.632   1.867  14.168 -1.6251  1.8693 -1.5475
12483TIP3    H258865   4.680   2.009  14.186  0.4741  1.2412 -1.9920
12484TIP3   OH258866   0.009   6.066   2.900  0.3631 -0.1444  0.1277
12484TIP3    H158867   0.044   6.140   2.850 -0.5619  0.4368  0.3126
12484TIP3    H258868   0.078   6.045   2.963  0.7245  0.4157 -0.0716
12485TIP3   OH258869   1.150   5.828  16.675  0.4277 -0.3003  0.2792
12485TIP3    H158870   1.122   5.870  16.593  1.7319  1.2696  0.5838
12485TIP3    H258871   1.090   5.862  16.741  0.9757  0.4715  0.3889
12486TIP3   OH258872   2.595   0.743  17.177 -0.7586 -0.1990 -0.4921
12486TIP3    H158873   2.609   0.703  17.263  0.9729  0.3332 -0.5036
12486TIP3    H258874   2.676   0.790  17.158 -1.6574  0.9269 -1.7721
12487TIP3   OH258875   1.773   2.847   5.148 -0.2530  0.1983  0.2968
12487TIP3    H158876   1.782   2.875   5.056  0.1593  0.6178  0.4602
12487TIP3    H258877   1.835   2.902   5.195 -0.5473  0.0565  0.8474
12488TIP3   OH258878   4.541   4.222   3.457  0.6688 -0.6393  0.1637
12488TIP3    H158879   4.587   4.264   3.529  0.4297 -2.8433  1.6991
12488TIP3    H258880   4.449   4.242   3.471  0.8356  2.2777 -1.9116
12489TIP3   OH258881   4.359   2.977   5.413 -0.1949 -0.2162 -0.1770
12489TIP3    H158882   4.291   2.999   5.477 -0.8748 -1.5983 -0.3616
12489TIP3    H258883   4.441   3.001   5.456 -0.7678  1.2954  0.1415
12490TIP3   OH258884   0.314   4.485   3.815  0.1202 -0.0006 -0.2162
12490TIP3    H158885   0.251   4.415   3.828  0.0942  0.2719  1.3588
12490TIP3    H258886   0.305   4.541   3.892 -0.1116  1.9607 -1.5885
12491TIP3   OH258887   0.599   6.717  13.775 -0.2784  0.4001  0.1506
12491TIP3    H158888   0.640   6.752  13.854 -2.9031  0.0411  1.8015
12491TIP3    H258889   0.564   6.795  13.730  0.8394  0.5596 -0.4940
12492TIP3   OH258890   5.447   2.022   5.601 -0.3643  0.0576 -0.3941
12492TIP3    H158891   5.472   2.048   5.690 -0.4024  0.2703 -0.4446
12492TIP3    H258892   5.464   2.099   5.547  0.4266 -0.3322 -0.7147
12493TIP3   OH258893   2.650   3.077   6.190  0.1043  0.2688 -0.6790
12493TIP3    H158894   2.678   3.032   6.270 -0.2851  0.5652 -0.3703
12493TIP3    H258895   2.640   3.168   6.216 -0.4727  0.2923 -0.9472
12494TIP3   OH258896   6.351   3.338  16.707  0.2676  0.2663 -0.4816
12494TIP3    H158897   6.437   3.321  16.745  1.0139  1.4686 -1.5716
12494TIP3    H258898   6.316   3.410  16.759 -0.8241 -1.2547  1.0073
12495TIP3   OH258899   5.833   6.413  12.675  0.2672  0.2607 -0.2228
12495TIP3    H158900   5.925   6.438  12.670  0.4989 -0.2250  1.1423
12495TIP3    H258901   5.809   6.430  12.766 -0.8848 -0.0075 -0.4620
12496TIP3   OH258902   2.642   0.597   2.652 -0.2307  1.1456 -0.3236
12496TIP3    H158903   2.707   0.647   2.603 -0.7037  1.3566 -0.7458
12496TIP3    H258904   2.558   0.634   2.625 -0.7867 -1.3191 -2.3993
12497TIP3   OH258905   4.320   6.433  16.143 -0.5548 -0.5207  0.7711
12497TIP3    H158906   4.374   6.401  16.072 -1.6600  1.5671 -1.1536
12497TIP3    H258907   4.381   6.479  16.202  0.0746 -0.0712 -0.2077
12498TIP3   OH258908   1.380   1.067  13.674  0.0487 -0.0899  0.0953
12498TIP3    H158909   1.286   1.048  13.667 -0.1553  1.2496 -1.4718
12498TIP3    H258910   1.419   0.984  13.700 -1.5050 -0.8470  0.1577
12499TIP3   OH258911   1.442   3.791  12.982  0.4547 -0.5751  0.1335
12499TIP3    H158912   1.519   3.815  12.932  0.5222 -0.6786  0.1866
12499TIP3    H258913   1.465   3.811  13.073 -0.0626  0.6273  0.0091
12500TIP3   OH258914   1.128   3.031  13.443  0.2158  0.2530 -0.3007
12500TIP3    H158915   1.197   3.092  13.467 -0.0868  0.1592  0.8526
12500TIP3    H258916   1.153   2.948  13.485 -0.4969  0.1746 -0.0074
12501TIP3   OH258917   1.801   2.949   4.899  0.1289  0.1798  0.0089
12501TIP3    H158918   1.709   2.964   4.879 -0.2774 -1.9437  0.1354
12501TIP3    H258919   1.841   2.926   4.815 -0.0712 -1.6748  0.3978
12502TIP3   OH258920   2.539   0.640   5.617  0.5550 -0.2248 -0.0611
12502TIP3    H158921   2.541   0.548   5.642  0.5944 -0.6224 -1.4705
12502TIP3    H258922   2.594   0.684   5.682 -0.4863 -0.9781  1.3867
12503TIP3   OH258923   2.725   3.882   5.022  0.0441 -0.5749  0.2570
12503TIP3    H158924   2.816   3.854   5.029  1.7087  3.9162 -0.0593
12503TIP3    H258925   2.715   3.910   4.931 -1.4707 -0.4158  0.4500
12504TIP3   OH258926   3.753   1.102   3.160  0.1158 -0.2840 -0.6747
12504TIP3    H158927   3.694   1.126   3.089 -1.4595 -1.3347  0.2153
12504TIP3    H258928   3.756   1.006   3.158  0.4716 -0.3049  0.3308
12505TIP3   OH258929   5.168   0.310   1.192  0.1733  0.0369 -0.1223
12505TIP3    H158930   5.186   0.272   1.106 -0.3231  0.6890 -0.5258
12505TIP3    H258931   5.082   0.352   1.182  0.5811  1.0192  0.3814
12506TIP3   OH258932   3.428   2.777  16.399  0.9930  0.0812  0.5953
12506TIP3    H158933   3.444   2.776  16.494 -0.9386 -0.1019  0.9615
12506TIP3    H258934   3.475   2.855  16.368  0.7377  0.7797  1.8983
12507TIP3   OH258935   0.635   5.692   1.427 -0.5424 -0.8916  0.2521
12507TIP3    H158936   0.654   5.618   1.485 -2.2436 -0.9873  0.7432
12507TIP3    H258937   0.705   5.755   1.445  1.5080 -2.7016 -0.8662
12508TIP3   OH258938   6.774   6.410  17.017 -0.0076 -0.1215 -0.0433
12508TIP3    H158939   6.704   6.384  17.078 -0.4948  2.1284  0.4458
12508TIP3    H258940   6.743   6.491  16.978  0.4837 -1.2844 -3.0929
12509TIP3   OH258941   1.181   3.264   4.850 -0.2215 -0.3938  0.5694
12509TIP3    H158942   1.167   3.170   4.844  0.0125 -0.4083  0.1538
12509TIP3    H258943   1.101   3.303   4.814 -0.3031 -0.4353  0.7080
12510TIP3   OH258944   3.820   1.460  16.710 -0.3377  0.3901 -0.1208
12510TIP3    H158945   3.807   1.409  16.790  2.5520 -1.0894 -0.4583
12510TIP3    H258946   3.740   1.447  16.659  0.0823 -3.6660 -0.0352
12511TIP3   OH258947   1.120   2.333   4.055 -0.6231  0.2325 -0.0119
12511TIP3    H158948   1.184   2.395   4.090 -0.3515  0.2510 -0.5452
12511TIP3    H258949   1.045   2.341   4.114  0.6806 -1.4168  2.0093
12512TIP3   OH258950   2.607   4.012   5.892  0.2553 -0.2766 -0.0635
12512TIP3    H158951   2.561   4.096   5.882 -0.0213 -0.5626 -1.2778
12512TIP3    H258952   2.537   3.948   5.906  0.5208 -0.1591  2.2856
12513TIP3   OH258953   4.835   5.645  12.510  0.7794 -0.5835 -0.0489
12513TIP3    H158954   4.873   5.732  12.524 -0.7795  0.0273  0.5716
12513TIP3    H258955   4.760   5.660  12.452  0.3662 -1.4734  0.2362
12514TIP3   OH258956   4.822   4.039   1.522  0.4247  0.6945  0.5803
12514TIP3    H158957   4.886   3.968   1.520  0.8705  0.9640  2.5881
12514TIP3    H258958   4.806   4.060   1.430 -0.8314 -2.9083 -0.1773
12515TIP3   OH258959   3.168   3.326  12.923 -0.0137  0.1285  0.1357
12515TIP3    H158960   3.249   3.350  12.969 -0.1446 -0.9509  0.9573
12515TIP3    H258961   3.123   3.267  12.982 -1.0283  0.0645 -0.6683
12516TIP3   OH258962   2.198   5.111  15.796 -0.7098  0.6711  0.2086
12516TIP3    H158963   2.292   5.115  15.815 -0.5212  0.0729 -0.5621
12516TIP3    H258964   2.184   5.178  15.729 -0.2906 -1.0879 -1.7391
12517TIP3   OH258965   2.938   1.748   0.295  0.5303  0.5382  0.1296
12517TIP3    H158966   2.895   1.724   0.213  1.7261 -0.3583 -0.2698
12517TIP3    H258967   2.878   1.718   0.364 -0.1431  0.6353 -0.4090
12518TIP3   OH258968   6.140   0.837   2.891 -0.2785  0.2027 -0.3347
12518TIP3    H158969   6.208   0.771   2.872 -0.1276  0.3530 -0.3219
12518TIP3    H258970   6.073   0.789   2.940 -0.5229 -0.1174 -0.9763
12519TIP3   OH258971   0.760   3.360   5.782  0.6306 -0.4086 -0.2211
12519TIP3    H158972   0.789   3.359   5.873 -0.6138 -0.2171  0.1897
12519TIP3    H258973   0.815   3.294   5.739  0.0033 -1.8478  1.0627
12520TIP3   OH258974   1.504   6.495  13.698 -0.1901  0.2090 -0.5664
12520TIP3    H158975   1.469   6.583  13.682  1.4676  1.1483  0.6363
12520TIP3    H258976   1.434   6.436  13.672 -2.0308  1.9304  0.2253
12521TIP3   OH258977   5.441   3.641   3.908 -0.2529  0.1719  0.5730
12521TIP3    H158978   5.477   3.626   3.996 -0.5656 -1.5265  0.4566
12521TIP3    H258979   5.483   3.573   3.854 -2.2732 -0.7320  0.0619
12522TIP3   OH258980   5.993   2.596   2.996 -0.2076 -0.1227 -0.0135
12522TIP3    H158981   6.070   2.554   2.957  0.8151  0.1113  1.6593
12522TIP3    H258982   6.025   2.678   3.031 -1.6326  0.8287 -0.8418
12523TIP3   OH258983   3.599   0.128  10.642 -0.4521  0.5669 -0.1066
12523TIP3    H158984   3.647   0.207  10.666  0.5510 -0.3648  1.1260
12523TIP3    H258985   3.533   0.118  10.711 -1.8119  1.2909 -1.2522
12524TIP3   OH258986   3.624   4.864   4.500 -0.3609 -0.3919 -0.1556
12524TIP3    H158987   3.618   4.948   4.546 -1.0346 -0.6063  0.1557
12524TIP3    H258988   3.703   4.872   4.446  0.2406 -0.0027  0.7618
12525TIP3   OH258989   6.062   3.935   3.604 -0.2274  0.2253  0.3879
12525TIP3    H158990   6.079   3.940   3.698  0.6350  0.0571  0.2499
12525TIP3    H258991   6.027   4.020   3.581  1.1177  0.8609  0.5768
12526TIP3   OH258992   5.044   0.276  14.073  0.4032  0.4577 -0.2718
12526TIP3    H158993   5.014   0.230  13.995 -0.0784  0.7728 -0.2781
12526TIP3    H258994   5.137   0.292  14.058  0.0909  1.4391 -1.2442
12527TIP3   OH258995   2.596   6.191   3.401  0.2205  0.9846  0.8939
12527TIP3    H158996   2.556   6.204   3.487  0.0755  0.7758  0.8567
12527TIP3    H258997   2.539   6.129   3.357 -0.0360  1.5481  0.4228
12528TIP3   OH258998   0.745   3.105  17.080 -0.1152 -0.6883 -0.1963
12528TIP3    H158999   0.742   3.019  17.123  0.0802 -0.5540  0.0936
12528TIP3    H259000   0.767   3.166  17.150  0.6033 -0.5163 -0.5555
12529TIP3   OH259001   0.517   1.972  15.391 -0.4311 -0.1626  0.9070
12529TIP3    H159002   0.600   1.924  15.388 -0.7438 -0.8349 -3.6215
12529TIP3    H259003   0.451   1.905  15.405 -0.5087 -0.4569 -0.6745
12530TIP3   OH259004   3.832   1.760  14.329  0.3355 -0.0898  0.3492
12530TIP3    H159005   3.842   1.671  14.296 -1.5479 -0.1190 -0.2396
12530TIP3    H259006   3.869   1.758  14.417 -0.6202 -1.7082  0.7377
12531TIP3   OH259007   6.136   0.193   5.685  0.1646  0.2283 -0.0349
12531TIP3    H159008   6.160   0.251   5.613 -0.3506  0.1567 -0.2635
12531TIP3    H259009   6.062   0.142   5.653 -0.6231  0.7881  0.8385
12532TIP3   OH259010   3.753   0.374  16.517  0.2540 -0.0608  0.5655
12532TIP3    H159011   3.785   0.363  16.606 -0.7049  1.1799  1.0805
12532TIP3    H259012   3.658   0.369  16.524  0.2040 -2.1766 -0.7354
12533TIP3   OH259013   2.222   3.119   0.379 -0.0407 -0.0109  0.6448
12533TIP3    H159014   2.268   3.195   0.344  0.5991 -0.1703  1.1170
12533TIP3    H259015   2.261   3.105   0.466 -2.4017  1.1221  1.9869
12534TIP3   OH259016   4.404   1.843  15.383  0.7036  0.7162  0.5297
12534TIP3    H159017   4.389   1.937  15.389 -2.3314  0.2770  1.5156
12534TIP3    H259018   4.345   1.814  15.313  1.7499 -0.4517  0.0928
12535TIP3   OH259019   2.466   6.513   0.042  0.6818 -0.4288 -0.0157
12535TIP3    H159020   2.558   6.517   0.017  0.8173 -0.9937  0.3766
12535TIP3    H259021   2.445   6.420   0.047  0.3156 -0.3209  0.6952
12536TIP3   OH259022   3.868   2.652   1.136 -0.0513  0.0537 -0.5245
12536TIP3    H159023   3.930   2.715   1.173 -1.7735  1.0661  0.8010
12536TIP3    H259024   3.827   2.612   1.213  0.5164 -2.2508 -1.3536
12537TIP3   OH259025   5.971   0.239  13.471 -0.7234  0.2409  0.1984
12537TIP3    H159026   5.923   0.238  13.554  0.3217  0.0548  0.8208
12537TIP3    H259027   6.021   0.157  13.471 -0.7982  0.1861 -0.6741
12538TIP3   OH259028   2.129   2.192  16.635 -0.0456 -0.0952 -0.0015
12538TIP3    H159029   2.199   2.254  16.613  0.0244  0.3729  1.4320
12538TIP3    H259030   2.077   2.237  16.702 -0.5481 -1.2206  0.3917
12539TIP3   OH259031   3.216   4.942   5.017 -0.1827  0.7671 -0.0970
12539TIP3    H159032   3.127   4.924   4.984 -0.5778  1.0107  0.8010
12539TIP3    H259033   3.257   4.994   4.948 -0.2711 -0.4540 -1.1130
12540TIP3   OH259034   1.263   0.858   2.248  0.3245  0.5541  0.3255
12540TIP3    H159035   1.350   0.879   2.281  0.1819 -0.4434  1.3999
12540TIP3    H259036   1.279   0.814   2.165  0.9493 -1.0002  1.2305
12541TIP3   OH259037   1.914   3.506   0.840 -0.0786 -0.6774 -0.3315
12541TIP3    H159038   1.893   3.546   0.756 -2.3240 -0.3993  0.2795
12541TIP3    H259039   1.846   3.440   0.852 -0.1081 -0.3753  1.4793
12542TIP3   OH259040   5.916   5.289  16.456  0.1046 -0.1159 -0.0002
12542TIP3    H159041   5.865   5.370  16.464 -0.2877 -0.5732  3.4586
12542TIP3    H259042   5.862   5.222  16.498  1.7069 -1.5515 -0.1063
12543TIP3   OH259043   1.284   5.476  13.291 -0.1419 -0.7222 -0.0221
12543TIP3    H159044   1.217   5.419  13.330 -0.5185 -0.0822  0.2903
12543TIP3    H259045   1.240   5.516  13.216 -0.6709  0.9617  1.1391
12544TIP3   OH259046   0.467   4.584  15.951 -0.1162  0.0692  0.6255
12544TIP3    H159047   0.558   4.580  15.982 -0.2869 -1.7044  1.0299
12544TIP3    H259048   0.451   4.497  15.916 -1.3567  0.6904 -0.4099
12545TIP3   OH259049   3.779   5.089  13.126  0.3577  0.1338 -0.2179
12545TIP3    H159050   3.789   5.113  13.033  0.1346  1.4992  0.0813
12545TIP3    H259051   3.720   5.155  13.161  0.9985  0.0541  1.0631
12546TIP3   OH259052   0.428   6.059  14.538 -0.1758 -0.3488 -0.2406
12546TIP3    H159053   0.405   6.098  14.454 -0.2270 -0.8151 -0.4467
12546TIP3    H259054   0.353   6.078  14.595  0.4620  1.1803  0.1164
12547TIP3   OH259055   6.599   5.750  14.346  0.0670 -0.2469 -0.1534
12547TIP3    H159056   6.588   5.835  14.304 -1.5884  0.4755  1.6229
12547TIP3    H259057   6.686   5.720  14.317  0.8677  2.2020 -0.5090
12548TIP3   OH259058   4.819   5.798  16.382 -0.0559  0.5657  0.6877
12548TIP3    H159059   4.850   5.887  16.394  1.3536  0.3364 -0.8399
12548TIP3    H259060   4.884   5.743  16.426  0.0776  0.2140  0.0690
12549TIP3   OH259061   3.240   2.936   0.932 -0.4524  0.0373 -0.0982
12549TIP3    H159062   3.181   3.008   0.955  0.2826  0.8684 -0.7927
12549TIP3    H259063   3.307   2.937   1.001 -0.2414  0.2520 -0.3051
12550TIP3   OH259064   5.419   1.082   1.560 -0.5395  0.7521 -0.6821
12550TIP3    H159065   5.476   1.038   1.497 -1.0863 -0.1343 -0.5720
12550TIP3    H259066   5.478   1.107   1.631  0.0189  1.4477 -1.3676
12551TIP3   OH259067   6.300   0.698  13.571  0.4660  0.0358 -0.2865
12551TIP3    H159068   6.280   0.616  13.616  2.7745 -0.0258  0.7842
12551TIP3    H259069   6.383   0.681  13.526  0.9899  1.7552 -0.0482
12552TIP3   OH259070   3.662   0.986   3.545  0.6496  0.4441 -0.4959
12552TIP3    H159071   3.707   1.066   3.572  1.5754 -0.1044 -0.3766
12552TIP3    H259072   3.713   0.915   3.585  0.4536 -0.2579 -1.4573
12553TIP3   OH259073   1.399   4.385   1.152 -0.0753  0.0035 -0.2211
12553TIP3    H159074   1.357   4.466   1.122  1.3351  1.2260  0.9204
12553TIP3    H259075   1.327   4.334   1.190 -0.9301  0.8931 -0.5933
12554TIP3   OH259076   1.176   3.180  11.448  0.5482 -0.2499 -0.5032
12554TIP3    H159077   1.107   3.244  11.430 -0.3286 -0.7611  0.9072
12554TIP3    H259078   1.249   3.232  11.482  0.0388  0.0632  0.1238
12555TIP3   OH259079   3.301   6.204  16.517 -0.3529  0.6373  0.2439
12555TIP3    H159080   3.350   6.158  16.586  0.7421  0.7620 -0.4166
12555TIP3    H259081   3.219   6.230  16.559 -0.0193  0.0856  1.2916
12556TIP3   OH259082   3.809   6.458  15.539 -0.1480 -0.6748 -0.4455
12556TIP3    H159083   3.882   6.519  15.542 -1.8898  1.6878  4.0719
12556TIP3    H259084   3.814   6.410  15.622 -3.0210 -1.2508 -0.5034
12557TIP3   OH259085   1.658   5.202  13.775 -0.1494  0.4353  0.0401
12557TIP3    H159086   1.608   5.139  13.827 -0.4205  1.4097  0.9844
12557TIP3    H259087   1.618   5.286  13.795  1.7142  1.2157  0.6490
12558TIP3   OH259088   3.626   2.636  11.825 -0.0793  0.3346  0.4566
12558TIP3    H159089   3.647   2.714  11.875 -2.0469  1.3902 -0.2681
12558TIP3    H259090   3.702   2.578  11.838  0.4136  1.3920  2.8843
12559TIP3   OH259091   4.052   5.127   5.026 -0.1242  0.7488  0.1076
12559TIP3    H159092   4.096   5.148   5.109  1.1846 -0.6141 -0.2026
12559TIP3    H259093   3.960   5.119   5.050 -0.1217  2.6723  0.9699
12560TIP3   OH259094   1.496   0.845  14.073  0.2186  0.1032 -0.2362
12560TIP3    H159095   1.410   0.846  14.032  0.3454 -2.8140 -0.8248
12560TIP3    H259096   1.479   0.830  14.166  0.0500 -0.3201 -0.3303
12561TIP3   OH259097   2.831   5.350   0.547 -0.3331  0.5154  0.2201
12561TIP3    H159098   2.783   5.283   0.499 -0.0550  0.9202 -0.6313
12561TIP3    H259099   2.800   5.341   0.638 -0.4283 -0.6357  0.0864
12562TIP3   OH259100   1.819   1.965  14.176 -0.1943 -0.2416  0.3903
12562TIP3    H159101   1.855   2.041  14.130 -3.8882 -0.5044 -3.6063
12562TIP3    H259102   1.867   1.891  14.139  0.0196 -0.1508  0.4860
12563TIP3   OH259103   0.269   4.258   2.080 -0.4596  0.6732  0.4516
12563TIP3    H159104   0.332   4.322   2.113  0.5286  0.7846 -1.5122
12563TIP3    H259105   0.295   4.175   2.121  2.1164  0.3589 -1.5516
12564TIP3   OH259106   2.955   4.235   2.783 -0.0086  0.3812  0.4149
12564TIP3    H159107   2.868   4.274   2.783 -0.1231  0.2086  2.1968
12564TIP3    H259108   2.950   4.166   2.716 -1.1706  0.5173  0.3371
12565TIP3   OH259109   6.115   3.292   1.707  0.1098 -0.5129  0.2711
12565TIP3    H159110   6.120   3.387   1.719  0.6528 -0.5942  0.7388
12565TIP3    H259111   6.054   3.263   1.774 -2.4212 -0.1838 -1.7411
12566TIP3   OH259112   6.252   3.756   1.289 -0.6819 -0.2507  0.2458
12566TIP3    H159113   6.212   3.687   1.341 -1.2260 -0.0380  0.1177
12566TIP3    H259114   6.304   3.710   1.223  0.3312 -0.5211  1.2041
12567TIP3   OH259115   3.026   3.783  14.362  0.6503  0.7326 -0.4702
12567TIP3    H159116   2.973   3.844  14.413 -1.8460 -2.4150  1.0078
12567TIP3    H259117   3.094   3.754  14.423  0.5069  0.4434 -0.4465
12568TIP3   OH259118   2.007   3.158   1.127 -0.2786  0.2311  0.1767
12568TIP3    H159119   2.015   3.244   1.084 -0.6826  0.1811 -0.0083
12568TIP3    H259120   2.095   3.121   1.124 -0.4813 -0.1806 -1.4816
12569TIP3   OH259121   5.536   1.323   5.461  0.0194 -0.8154  0.4643
12569TIP3    H159122   5.490   1.404   5.485  2.1100  0.4555  0.4669
12569TIP3    H259123   5.540   1.273   5.542 -2.9316 -1.8893  0.0706
12570TIP3   OH259124   1.445   0.207  10.646 -0.5297  1.2628 -0.4272
12570TIP3    H159125   1.391   0.199  10.725 -2.4733  1.3070 -1.6684
12570TIP3    H259126   1.515   0.143  10.658 -1.7358  0.0607  0.6274
12571TIP3   OH259127   4.544   3.696   3.951 -0.1263 -0.0109  0.0820
12571TIP3    H159128   4.449   3.684   3.955 -0.1342  0.3570  1.2093
12571TIP3    H259129   4.579   3.608   3.938 -0.5541 -0.3063  0.9132
12572TIP3   OH259130   6.667   0.378   1.435  0.0514 -0.3138 -0.4408
12572TIP3    H159131   6.607   0.393   1.362 -1.4479 -0.1855  0.7565
12572TIP3    H259132   6.676   0.283   1.439  1.0415 -0.2775 -1.4634
12573TIP3   OH259133   3.590   2.872  16.175 -0.2003 -0.1692 -0.0465
12573TIP3    H159134   3.525   2.802  16.180  0.7613 -1.0040  3.1183
12573TIP3    H259135   3.674   2.828  16.185  0.5426  1.2948  0.4161
12574TIP3   OH259136   4.156   5.513   6.328  0.1414 -0.0132 -0.0816
12574TIP3    H159137   4.144   5.600   6.366  0.5676 -0.4118  0.9970
12574TIP3    H259138   4.075   5.497   6.280 -1.0371 -0.0432  1.8188
12575TIP3   OH259139   3.222   4.756   0.757  0.0544  0.4303 -0.2122
12575TIP3    H159140   3.298   4.719   0.712 -0.6191  0.3782 -1.3541
12575TIP3    H259141   3.258   4.803   0.832  1.5139  2.9175 -2.3222
12576TIP3   OH259142   0.168   2.597   0.302  0.2767  0.7513 -1.0725
12576TIP3    H159143   0.118   2.660   0.249  0.9627  1.7193 -0.6050
12576TIP3    H259144   0.240   2.570   0.245  1.2944  2.1637 -0.5123
12577TIP3   OH259145   0.921   3.697  14.284 -0.1901  0.0155 -0.0096
12577TIP3    H159146   0.989   3.764  14.275  0.1310 -0.2534  0.3272
12577TIP3    H259147   0.967   3.622  14.324 -0.8999  0.1810  1.1513
12578TIP3   OH259148   2.172   6.207  15.222  0.2021  0.5678  0.3740
12578TIP3    H159149   2.134   6.172  15.303 -0.8500  0.5045 -0.1244
12578TIP3    H259150   2.264   6.223  15.244  0.1204 -0.1620  1.3515
12579TIP3   OH259151   3.920   1.853   4.029 -0.1580  0.1606 -0.4433
12579TIP3    H159152   3.911   1.760   4.007 -0.2030 -0.3596  1.5824
12579TIP3    H259153   3.847   1.896   3.984 -1.9766 -1.2678  0.9931
12580TIP3   OH259154   1.884   0.184   2.759 -0.4123  0.4384  0.1236
12580TIP3    H159155   1.792   0.158   2.766 -0.4214  0.6749  1.0576
12580TIP3    H259156   1.908   0.162   2.669 -1.6158  1.1457 -0.3984
12581TIP3   OH259157   0.124   5.120   0.622  0.3262 -0.6205  0.3521
12581TIP3    H159158   0.081   5.054   0.677  1.2296 -0.5578  1.1529
12581TIP3    H259159   0.209   5.082   0.600  0.5008 -0.0936  0.0878
12582TIP3   OH259160   1.286   1.327  13.691 -0.4511 -0.2417 -0.0205
12582TIP3    H159161   1.208   1.330  13.635 -0.8758 -1.3682  0.4760
12582TIP3    H259162   1.300   1.234  13.708 -0.3448  0.0520  1.7298
12583TIP3   OH259163   5.783   6.672  10.808  0.4194 -0.3753  0.2157
12583TIP3    H159164   5.849   6.603  10.797  0.8973  0.1968 -0.6608
12583TIP3    H259165   5.811   6.741  10.747 -1.6497 -0.6293 -1.1197
12584TIP3   OH259166   0.338   6.467  12.960  0.3738 -0.1993 -0.2174
12584TIP3    H159167   0.301   6.481  13.047  1.6107 -2.6980  0.8249
12584TIP3    H259168   0.422   6.514  12.963 -0.0276  0.5485 -0.4487
12585TIP3   OH259169   2.852   5.893   0.746  0.0886 -0.2422  0.3248
12585TIP3    H159170   2.757   5.898   0.759  0.0388  0.5054 -0.3033
12585TIP3    H259171   2.864   5.907   0.652  0.9041  0.7503  0.5719
12586TIP3   OH259172   5.525   2.174   4.438  0.0073 -0.1495  0.0199
12586TIP3    H159173   5.616   2.160   4.464 -0.1384 -0.0904  0.5632
12586TIP3    H259174   5.532   2.222   4.355  0.4730  0.7903  0.5869
12587TIP3   OH259175   0.497   2.534   5.216 -0.0043 -0.3455  0.4573
12587TIP3    H159176   0.550   2.569   5.288 -0.7201 -0.7300  1.1698
12587TIP3    H259177   0.562   2.504   5.152  0.6463 -0.5849  1.2128
12588TIP3   OH259178   6.579   0.909  11.946 -0.0188  0.1000 -0.2873
12588TIP3    H159179   6.560   0.957  11.866  2.2685 -0.1769 -1.0559
12588TIP3    H259180   6.618   0.974  12.005 -0.5212  0.0198  0.1446
12589TIP3   OH259181   2.377   6.601  15.007 -0.2432  0.3081 -0.6574
12589TIP3    H159182   2.369   6.564  15.095 -0.7364  3.8858  0.9979
12589TIP3    H259183   2.466   6.635  15.003  0.2891 -1.1329 -2.2104
12590TIP3   OH259184   4.720   0.109  12.377  0.2222 -0.0607  0.0084
12590TIP3    H159185   4.747   0.067  12.295 -0.9132 -0.8889  0.0241
12590TIP3    H259186   4.772   0.188  12.382  1.1724 -0.6015 -0.9216
12591TIP3   OH259187   2.761   0.802  12.374 -0.2178 -0.2754  0.1983
12591TIP3    H159188   2.675   0.832  12.344  0.7386  2.2798 -0.2773
12591TIP3    H259189   2.802   0.881  12.410  2.9587 -0.7076 -2.0769
12592TIP3   OH259190   1.639   1.085   4.691  0.1122  0.0959 -0.3859
12592TIP3    H159191   1.641   1.162   4.635  1.5327  0.5281  0.2109
12592TIP3    H259192   1.550   1.082   4.725 -0.1852  0.9990 -1.0555
12593TIP3   OH259193   1.649   1.206   2.150 -0.0386 -0.2648 -0.0168
12593TIP3    H159194   1.599   1.248   2.220  1.5903  1.9880 -0.0890
12593TIP3    H259195   1.582   1.173   2.089 -1.4487 -0.8544  1.7515
12594TIP3   OH259196   0.778   2.671  12.401  0.2616 -0.2122  0.0125
12594TIP3    H159197   0.696   2.720  12.404  1.0146  1.0378  1.4174
12594TIP3    H259198   0.822   2.702  12.321  0.6436  1.2976  0.7847
12595TIP3   OH259199   0.797   6.428   3.400  0.3385  0.4668  0.5475
12595TIP3    H159200   0.767   6.461   3.315 -0.7861  0.9882  1.1125
12595TIP3    H259201   0.721   6.439   3.457  1.0491  0.0433  1.6008
12596TIP3   OH259202   6.002   6.044   3.871  0.0390  0.5056 -0.4225
12596TIP3    H159203   5.917   6.081   3.897  0.4307  0.6947  0.6570
12596TIP3    H259204   6.066   6.104   3.909  0.6940 -1.1098  1.1366
12597TIP3   OH259205   1.468   5.392   1.425 -0.2260 -0.0299  0.2905
12597TIP3    H159206   1.424   5.330   1.368  1.1234  1.7967 -3.0116
12597TIP3    H259207   1.402   5.458   1.446 -0.5953 -0.4501  0.4552
12598TIP3   OH259208   6.105   2.521  11.891 -0.2286  0.2606  0.7510
12598TIP3    H159209   6.112   2.432  11.925  0.4990 -0.5946 -1.4661
12598TIP3    H259210   6.195   2.544  11.866 -0.4839  1.4385  0.8430
12599TIP3   OH259211   5.296   1.480   1.989  0.0050  0.2210  0.5706
12599TIP3    H159212   5.216   1.467   1.937  2.1866  0.8248 -3.3374
12599TIP3    H259213   5.288   1.570   2.022 -0.5674  0.6059 -0.5471
12600TIP3   OH259214   3.933   1.544   3.018 -0.1753  0.0599 -0.2101
12600TIP3    H159215   3.962   1.458   3.047 -3.1097 -1.3242 -0.9781
12600TIP3    H259216   3.908   1.590   3.099  0.1766 -0.3179  0.1154
12601TIP3   OH259217   6.410   5.966  12.469 -0.3535 -0.3075  0.3803
12601TIP3    H159218   6.446   6.004  12.549 -2.5279  2.8702  0.0574
12601TIP3    H259219   6.341   5.907  12.499 -0.8863  0.5608  0.9170
12602TIP3   OH259220   4.646   5.731   2.146 -0.6793  0.4046  0.7040
12602TIP3    H159221   4.688   5.800   2.094 -0.8722  0.6421  0.8627
12602TIP3    H259222   4.563   5.770   2.175 -0.2390  0.5293  1.8029
12603TIP3   OH259223   6.658   6.620  11.892 -0.5142 -0.0178  0.4395
12603TIP3    H159224   6.667   6.653  11.981 -0.4462  1.9583 -0.2487
12603TIP3    H259225   6.726   6.665  11.842 -0.1566 -1.5492 -0.5150
12604TIP3   OH259226   2.067   6.346  15.003 -0.2337 -0.2114  0.3914
12604TIP3    H159227   2.078   6.277  15.069 -2.5770 -2.0825 -1.0021
12604TIP3    H259228   2.046   6.425  15.053  2.1924 -0.4893  2.0264
12605TIP3   OH259229   2.210   0.701   3.830 -0.5528  0.0975  0.3252
12605TIP3    H159230   2.182   0.726   3.742  0.9550  0.1960 -0.1563
12605TIP3    H259231   2.214   0.783   3.878 -1.9147 -0.0127  0.6881
12606TIP3   OH259232   1.122   2.972  12.774 -0.5736  0.6320  0.1773
12606TIP3    H159233   1.156   3.046  12.723 -1.4883  0.0582 -1.3540
12606TIP3    H259234   1.027   2.986  12.776 -0.6378  0.1707  1.0014
12607TIP3   OH259235   0.314   2.854  14.137  0.0838  0.4705 -0.5932
12607TIP3    H159236   0.366   2.902  14.073 -1.4655  0.2534 -2.1053
12607TIP3    H259237   0.369   2.780  14.163  0.9812  0.9032 -1.2187
12608TIP3   OH259238   4.418   1.517  14.982  0.0321 -0.0798  0.0993
12608TIP3    H159239   4.464   1.436  14.959  0.7396  0.3703 -0.0964
12608TIP3    H259240   4.479   1.564  15.039 -0.9129 -0.2849  1.3135
12609TIP3   OH259241   2.320   0.376  15.725  0.5443 -0.3796 -0.5618
12609TIP3    H159242   2.239   0.407  15.684 -0.0009  1.2869  1.5413
12609TIP3    H259243   2.384   0.445  15.707  0.5969 -0.1646  0.3569
12610TIP3   OH259244   5.954   2.556  15.527  0.1469  0.2356 -0.1315
12610TIP3    H159245   5.925   2.479  15.479 -0.7326 -0.7317  1.8140
12610TIP3    H259246   6.042   2.533  15.559  0.3626  0.5194 -0.5085
12611TIP3   OH259247   1.355   4.427  10.816  0.3583  0.4157  0.1750
12611TIP3    H159248   1.423   4.476  10.863 -0.1597  0.6016  0.7463
12611TIP3    H259249   1.399   4.394  10.738  1.0583  0.6889  0.4437
12612TIP3   OH259250   5.048   1.100  11.651 -0.0910  0.4893  0.5591
12612TIP3    H159251   5.044   1.172  11.714 -1.0310 -1.3939  2.8251
12612TIP3    H259252   5.119   1.044  11.684 -0.6521 -0.5840 -0.0095
12613TIP3   OH259253   1.778   0.236   3.008  0.3510  0.4027  0.5354
12613TIP3    H159254   1.841   0.277   3.068 -0.4019  1.6792  0.4969
12613TIP3    H259255   1.822   0.236   2.923  1.5002 -1.5859  1.0679
12614TIP3   OH259256   6.525   2.541  14.276 -0.0035 -0.4148 -0.1314
12614TIP3    H159257   6.579   2.618  14.294  0.1189 -0.8244  1.3406
12614TIP3    H259258   6.585   2.478  14.235 -0.3766  0.6725 -2.4962
12615TIP3   OH259259   4.800   6.417  15.465  0.1106  0.3953 -0.1090
12615TIP3    H159260   4.781   6.421  15.559  1.1469 -1.2206  0.1999
12615TIP3    H259261   4.820   6.508  15.441 -2.3458  1.2463  0.7051
12616TIP3   OH259262   1.717   4.545   4.984  0.1840  0.2269 -0.0832
12616TIP3    H159263   1.785   4.596   5.028  1.7356 -1.2618 -0.6951
12616TIP3    H259264   1.764   4.488   4.923 -1.7105  0.1743 -1.5973
12617TIP3   OH259265   1.729   6.504   4.276 -0.3844 -0.3374 -0.1763
12617TIP3    H159266   1.703   6.494   4.368  2.5876  0.6793  0.9222
12617TIP3    H259267   1.699   6.592   4.252  1.4250  0.6516  0.9240
12618TIP3   OH259268   6.664   1.286   3.596  0.3137 -0.6976  0.0119
12618TIP3    H159269   6.665   1.233   3.516  0.3330 -0.6447 -0.0225
12618TIP3    H259270   6.756   1.308   3.611  0.2203  0.0488 -0.4479
12619TIP3   OH259271   6.779   2.737  14.387 -0.3188 -0.2815  0.0139
12619TIP3    H159272   6.715   2.805  14.369 -1.9849 -1.5607  0.8843
12619TIP3    H259273   6.817   2.717  14.301 -0.9240  0.6509 -0.4855
12620TIP3   OH259274   2.025   5.413   1.078  0.1733 -0.1427 -0.2234
12620TIP3    H159275   1.932   5.421   1.056 -0.0013 -0.4623  0.3665
12620TIP3    H259276   2.031   5.334   1.131  0.5996  0.4419  0.6463
12621TIP3   OH259277   3.272   3.157  14.794  0.9510  0.1040 -0.3659
12621TIP3    H159278   3.346   3.213  14.815  1.0633 -0.6316  1.3607
12621TIP3    H259279   3.305   3.068  14.805  0.3043 -0.2913 -1.3926
12622TIP3   OH259280   1.779   2.625  13.431  0.1946  0.2313 -0.6554
12622TIP3    H159281   1.872   2.619  13.455 -0.2788  0.9805  1.6889
12622TIP3    H259282   1.746   2.535  13.442  0.8858 -0.3490 -2.9025
12623TIP3   OH259283   6.102   0.586  15.797 -0.2748  0.4219  0.0136
12623TIP3    H159284   6.013   0.557  15.775  0.0298  0.3722 -1.2079
12623TIP3    H259285   6.145   0.598  15.713  1.8471 -2.4051  0.5536
12624TIP3   OH259286   4.515   5.681   5.166  0.7648  0.5873  0.2286
12624TIP3    H159287   4.483   5.762   5.206  1.5879 -0.0283  2.2425
12624TIP3    H259288   4.603   5.670   5.202  0.0231 -2.1001  1.4743
12625TIP3   OH259289   1.940   5.544  14.552 -0.9794  0.4137 -0.1430
12625TIP3    H159290   2.011   5.525  14.491 -0.6478  1.1931 -0.0230
12625TIP3    H259291   1.980   5.601  14.618 -1.4631  0.0213  0.5036
12626TIP3   OH259292   1.596   1.340  16.724 -0.4377 -0.0055 -0.4238
12626TIP3    H159293   1.623   1.430  16.704 -1.0893  0.0043 -1.3432
12626TIP3    H259294   1.626   1.325  16.813  0.4492  0.8278 -0.5667
12627TIP3   OH259295   4.833   4.724  11.648 -0.2077  1.0064  0.4111
12627TIP3    H159296   4.750   4.756  11.613 -0.4293  0.9592  0.8870
12627TIP3    H259297   4.868   4.799  11.697  0.0950  1.0690  0.1021
12628TIP3   OH259298   4.718   2.712   6.138 -0.4319 -0.1920  0.2431
12628TIP3    H159299   4.640   2.659   6.121 -0.3221 -0.4488  0.5462
12628TIP3    H259300   4.697   2.760   6.219 -0.3134 -0.1829  0.2680
12629TIP3   OH259301   3.571   3.604   4.773 -0.4915 -0.0205 -0.0796
12629TIP3    H159302   3.489   3.564   4.803  0.3160 -0.6413  1.3698
12629TIP3    H259303   3.631   3.530   4.760 -0.0721  0.4491 -0.8963
12630TIP3   OH259304   6.043   3.657  12.974  0.0816  0.3399 -0.2631
12630TIP3    H159305   5.953   3.626  12.980  0.5099 -0.6433  2.5777
12630TIP3    H259306   6.042   3.719  12.901 -2.5015 -0.7940 -1.3237
12631TIP3   OH259307   1.804   2.850   5.855  0.4429  0.2807  0.0810
12631TIP3    H159308   1.759   2.869   5.937 -1.6599 -0.7071 -0.7397
12631TIP3    H259309   1.788   2.927   5.800 -2.0103 -0.7690 -0.8399
12632TIP3   OH259310   3.823   1.993  17.319 -0.0580  0.4906  0.0426
12632TIP3    H159311   3.808   1.994  17.413  1.2158 -1.0883  0.3262
12632TIP3    H259312   3.845   2.083  17.296 -1.9232  1.2079  0.9493
12633TIP3   OH259313   0.807   5.541   2.063  0.5744 -0.7266 -0.1938
12633TIP3    H159314   0.810   5.499   2.148 -1.0375  0.3211  0.4235
12633TIP3    H259315   0.899   5.549   2.037  1.0190 -2.2511  0.8183
12634TIP3   OH259316   2.206   0.449   1.469 -0.6530 -0.0264  0.4212
12634TIP3    H159317   2.175   0.537   1.447  1.1312 -0.2973 -4.2448
12634TIP3    H259318   2.301   0.457   1.471 -0.4590 -1.8856 -0.2146
12635TIP3   OH259319   4.096   5.954   0.643 -0.4401  0.4866  0.0963
12635TIP3    H159320   4.170   5.907   0.603 -2.2771 -3.5987  0.9824
12635TIP3    H259321   4.122   5.964   0.735 -1.0386 -1.3190  0.5018
12636TIP3   OH259322   0.235   3.632   4.663  0.3374 -0.5168 -0.0051
12636TIP3    H159323   0.148   3.612   4.697 -0.0561  1.0099 -0.0369
12636TIP3    H259324   0.293   3.624   4.738 -0.1540  0.4142  0.4910
12637TIP3   OH259325   1.290   3.052   2.360 -0.3126 -0.0461 -0.0309
12637TIP3    H159326   1.200   3.081   2.378 -1.2773 -1.7582 -1.6776
12637TIP3    H259327   1.314   3.095   2.278 -0.0613 -0.4281 -0.1633
12638TIP3   OH259328   4.568   6.639  11.238  0.5290 -0.3042  0.1972
12638TIP3    H159329   4.569   6.665  11.330  2.8574  1.1456 -0.1603
12638TIP3    H259330   4.636   6.572  11.231  0.0928 -0.6902 -0.3869
12639TIP3   OH259331   5.705   0.370  17.194  0.2018  0.0481 -0.2466
12639TIP3    H159332   5.694   0.465  17.191  1.4210  0.2215  0.4785
12639TIP3    H259333   5.710   0.348  17.287 -1.3096 -0.9001 -0.3475
12640TIP3   OH259334   1.953   5.611  12.746 -0.5074  0.3601 -0.9850
12640TIP3    H159335   1.961   5.704  12.768  0.3992 -0.0158  0.3615
12640TIP3    H259336   1.922   5.569  12.826 -2.2240 -0.3433 -1.9586
12641TIP3   OH259337   3.833   3.204  12.612  0.1670  0.1811  0.3224
12641TIP3    H159338   3.925   3.223  12.595 -0.2504  2.2923  0.2645
12641TIP3    H259339   3.785   3.256  12.549 -1.1759  2.5084  3.0296
12642TIP3   OH259340   3.872   1.307  16.430  0.4788 -0.2305  0.1340
12642TIP3    H159341   3.918   1.357  16.497 -0.5611 -0.3684  0.9695
12642TIP3    H259342   3.836   1.372  16.371  1.3999 -0.1078 -0.3070
12643TIP3   OH259343   0.210   3.230  12.044 -0.0075  0.8044 -0.4580
12643TIP3    H159344   0.150   3.281  12.098  0.0349  0.4006 -0.0304
12643TIP3    H259345   0.272   3.191  12.106 -0.3303 -0.1618 -0.7336
12644TIP3   OH259346   3.319   4.146  14.637  0.2744  0.4517  1.1279
12644TIP3    H159347   3.391   4.096  14.677  0.5515  0.2587  0.3938
12644TIP3    H259348   3.352   4.172  14.551 -1.4275 -1.7903 -0.3108
12645TIP3   OH259349   2.407   2.307  15.741 -0.0592  1.2064 -0.9917
12645TIP3    H159350   2.450   2.243  15.684  0.4495 -0.2981  1.0033
12645TIP3    H259351   2.317   2.276  15.748  0.1976  0.6729  0.0109
12646TIP3   OH259352   2.869   1.909  14.292 -0.3250  0.0847 -0.4872
12646TIP3    H159353   2.852   1.965  14.217  1.3568  0.0932 -0.9157
12646TIP3    H259354   2.965   1.907  14.298 -0.3183 -2.6436 -0.4260
12647TIP3   OH259355   5.278   1.982   0.622 -0.3541  0.2225  0.0200
12647TIP3    H159356   5.269   2.055   0.561 -0.7476 -0.5142 -0.8325
12647TIP3    H259357   5.218   1.915   0.588  0.3282 -0.6624  0.5272
12648TIP3   OH259358   4.070   5.320   2.254 -0.1807 -0.2264  0.0846
12648TIP3    H159359   4.117   5.247   2.295  0.8782 -0.6424 -1.7702
12648TIP3    H259360   4.138   5.372   2.212 -1.0637  1.1703  0.3265
12649TIP3   OH259361   5.284   0.503  12.623  0.0033  0.2326  0.1394
12649TIP3    H159362   5.272   0.409  12.607 -1.5660  0.3549  0.4254
12649TIP3    H259363   5.336   0.507  12.704 -0.5605 -0.3931  0.5395
12650TIP3   OH259364   0.678   3.881   3.044  0.1614 -0.4825 -0.6617
12650TIP3    H159365   0.670   3.900   3.137  1.4076 -0.1802 -0.5999
12650TIP3    H259366   0.613   3.938   3.002 -1.4042 -1.6219  0.0883
12651TIP3   OH259367   3.472   0.990  11.440 -0.4539 -0.4036 -0.4842
12651TIP3    H159368   3.480   1.063  11.379  0.4790  0.5154  0.6860
12651TIP3    H259369   3.538   1.007  11.507 -1.3817 -1.4129  0.7482
12652TIP3   OH259370   5.233   4.845  12.167  0.1859  0.2707  0.2173
12652TIP3    H159371   5.168   4.846  12.097  0.8642 -2.3798 -0.5598
12652TIP3    H259372   5.227   4.932  12.207 -2.1257  0.9197 -1.3576
12653TIP3   OH259373   2.388   2.345  16.189 -0.0310 -0.2679 -0.3113
12653TIP3    H159374   2.309   2.377  16.231  1.4202  0.7093  1.8378
12653TIP3    H259375   2.373   2.252  16.176 -0.8126 -0.4999  1.8786
12654TIP3   OH259376   0.042   6.531   5.169  0.2493 -0.2139 -0.3823
12654TIP3    H159377   0.035   6.527   5.264  1.5357 -1.5902 -0.3090
12654TIP3    H259378   0.040   6.439   5.141  1.5900  0.0714 -1.5271
12655TIP3   OH259379   0.377   3.653  16.829 -0.1908  0.1265 -0.8792
12655TIP3    H159380   0.411   3.720  16.888  1.6523 -1.4726  0.0228
12655TIP3    H259381   0.287   3.638  16.858  0.5169 -0.2909  1.2890
12656TIP3   OH259382   6.522   4.106  14.119  0.7869 -0.0051  0.2036
12656TIP3    H159383   6.464   4.031  14.131  0.0450 -0.0191 -2.8447
12656TIP3    H259384   6.465   4.179  14.097  1.6296  1.1265  1.5721
12657TIP3   OH259385   5.286   6.079  15.937  0.2547  0.7353  0.1816
12657TIP3    H159386   5.231   6.046  16.008  0.8383 -0.1136  0.2557
12657TIP3    H259387   5.246   6.046  15.858 -0.5042  1.8391  0.0807
12658TIP3   OH259388   2.283   1.699   2.495 -0.2043 -0.6883 -0.0916
12658TIP3    H159389   2.317   1.764   2.557 -0.1478 -0.4361 -0.3796
12658TIP3    H259390   2.304   1.736   2.409  0.6773 -1.5359 -0.2565
12659TIP3   OH259391   3.049   0.731  14.036  0.5019 -0.6422 -0.5627
12659TIP3    H159392   3.047   0.641  14.002  1.0422 -0.6011 -0.7245
12659TIP3    H259393   3.074   0.722  14.128  1.8108 -0.5907 -0.8970
12660TIP3   OH259394   1.656   2.873   1.499 -0.6723 -0.1384 -0.3062
12660TIP3    H159395   1.741   2.859   1.458 -0.2234  0.4053  0.4230
12660TIP3    H259396   1.593   2.862   1.427  0.0390 -0.0893 -0.9509
12661TIP3   OH259397   2.942   1.954  15.925 -0.6837  0.3704 -0.2476
12661TIP3    H159398   2.933   1.891  15.854  0.0968  1.0170 -0.9517
12661TIP3    H259399   2.962   2.037  15.881  4.1561  0.0353  0.7069
12662TIP3   OH259400   4.291   6.316  14.891  0.3535 -0.0364 -0.3827
12662TIP3    H159401   4.201   6.294  14.865  0.3846 -0.1675 -0.3814
12662TIP3    H259402   4.318   6.242  14.945 -0.4626  1.1705  1.8174
12663TIP3   OH259403   0.872   5.324   1.356  0.3542  0.2856  0.1313
12663TIP3    H159404   0.861   5.412   1.392  0.4772  0.1183  0.5829
12663TIP3    H259405   0.805   5.272   1.401 -0.8694  0.4926 -1.3604
12664TIP3   OH259406   1.958   6.537  16.032  0.7906  0.4536  0.2290
12664TIP3    H159407   1.903   6.615  16.021 -0.6428 -0.5207  0.2755
12664TIP3    H259408   1.924   6.494  16.110 -1.5506 -2.5875 -2.1789
12665TIP3   OH259409   2.680   3.794  17.007 -0.1104  0.1960  0.1322
12665TIP3    H159410   2.648   3.828  16.923 -0.1478  0.8459  0.4072
12665TIP3    H259411   2.604   3.800  17.065 -0.4530 -1.4053 -0.0965
12666TIP3   OH259412   0.683   2.608   5.405 -0.1455  0.8067 -0.0973
12666TIP3    H159413   0.724   2.692   5.386  0.7638  0.2231 -0.7463
12666TIP3    H259414   0.685   2.601   5.500 -0.1304  1.4649 -0.0476
12667TIP3   OH259415   5.954   1.024   2.013  0.3830  0.1905  0.5713
12667TIP3    H159416   5.972   1.071   1.932 -0.8167  1.2123  0.8644
12667TIP3    H259417   5.878   1.070   2.051  0.1945 -0.9881  1.6808
12668TIP3   OH259418   3.896   4.881   0.794  0.1763 -0.1966  0.0466
12668TIP3    H159419   3.874   4.819   0.863  0.1793 -1.5633 -1.1482
12668TIP3    H259420   3.851   4.848   0.716  0.6626  0.9717 -0.7600
12669TIP3   OH259421   4.892   6.164   3.548  0.3238  0.2122 -0.1770
12669TIP3    H159422   4.877   6.072   3.571  0.9927  0.1786  0.1497
12669TIP3    H259423   4.888   6.166   3.452  1.3571 -0.3665 -0.2527
12670TIP3   OH259424   0.867   1.978  17.166 -0.8636  0.2253 -0.3322
12670TIP3    H159425   0.901   2.043  17.104 -1.1584 -1.4104 -2.3612
12670TIP3    H259426   0.931   1.977  17.237  0.5866  0.8528 -1.5583
12671TIP3   OH259427   0.671   1.925   4.383  0.5231  0.2362 -0.3908
12671TIP3    H159428   0.688   1.930   4.477  0.6893 -1.1594 -0.3242
12671TIP3    H259429   0.743   1.872   4.349 -0.4029 -0.6319 -1.0473
12672TIP3   OH259430   2.259   2.281  16.931  0.0108 -0.1084  0.4917
12672TIP3    H159431   2.214   2.209  16.975  0.7667  0.5047  2.3590
12672TIP3    H259432   2.228   2.360  16.977 -2.5416  1.1251 -2.8817
12673TIP3   OH259433   5.071   6.245   1.061  0.3418  0.0234 -0.9394
12673TIP3    H159434   5.003   6.313   1.065  1.2979  0.9467  0.3786
12673TIP3    H259435   5.079   6.213   1.150 -0.0930 -1.8796 -1.5454
12674TIP3   OH259436   2.893   3.032  11.971 -0.4150  0.0342  0.0561
12674TIP3    H159437   2.911   3.033  11.877 -2.1548  0.6727 -0.2982
12674TIP3    H259438   2.816   2.976  11.980 -0.4780  0.2662  1.0670
12675TIP3   OH259439   0.839   4.552   4.985 -0.2024  0.6735 -0.0248
12675TIP3    H159440   0.868   4.548   4.894  1.2343  1.8696  0.3372
12675TIP3    H259441   0.818   4.462   5.008  0.7395  0.1488 -1.1440
12676TIP3   OH259442   0.493   0.996  13.010 -0.3450 -0.2235 -0.1237
12676TIP3    H159443   0.511   1.087  12.986 -2.2060 -0.2879 -2.1196
12676TIP3    H259444   0.577   0.951  13.000  0.2737  0.9912 -0.6291
12677TIP3   OH259445   0.292   5.370  15.774 -0.2909 -0.1810 -0.3018
12677TIP3    H159446   0.199   5.348  15.786 -0.2688  0.3496  1.0700
12677TIP3    H259447   0.339   5.311  15.832  0.2675 -0.6080 -1.1702
12678TIP3   OH259448   6.590   4.638   1.360 -0.3566 -0.1583 -0.3246
12678TIP3    H159449   6.539   4.719   1.363 -1.7334 -0.9159 -1.6378
12678TIP3    H259450   6.538   4.575   1.410  1.3776  0.0593  1.8870
12679TIP3   OH259451   2.969   3.263  13.185  0.1206  0.3060  0.2743
12679TIP3    H159452   2.973   3.326  13.256  0.3897  0.3284  0.2439
12679TIP3    H259453   3.006   3.183  13.222  0.8145  0.4853 -0.0049
12680TIP3   OH259454   0.928   5.051  13.869  0.1592  1.1780 -0.2990
12680TIP3    H159455   0.945   5.066  13.961 -0.5533 -1.5868  0.3906
12680TIP3    H259456   0.886   5.131  13.838  0.3769  2.1394  1.7667
12681TIP3   OH259457   5.939   4.315  13.762  0.2852  0.2102  0.3778
12681TIP3    H159458   5.924   4.244  13.699 -0.7854  1.4344 -0.8216
12681TIP3    H259459   6.023   4.353  13.735  0.1502  0.3087  0.0840
12682TIP3   OH259460   6.533   2.778  17.156  0.0500 -0.1442  0.3510
12682TIP3    H159461   6.438   2.786  17.145  0.0173  0.1503  0.8159
12682TIP3    H259462   6.569   2.796  17.069 -0.4397 -2.8076 -0.4948
12683TIP3   OH259463   0.602   4.734   5.222  0.1578  0.2970 -0.2640
12683TIP3    H159464   0.658   4.799   5.180  2.2827  0.3573  2.3809
12683TIP3    H259465   0.582   4.772   5.307 -0.5631 -1.4971  0.4073
12684TIP3   OH259466   2.512   1.430  13.141 -0.3772 -0.0937 -0.2728
12684TIP3    H159467   2.582   1.397  13.197  0.3758  2.4509  0.4189
12684TIP3    H259468   2.472   1.351  13.104  0.4959 -1.7849  2.1196
12685TIP3   OH259469   3.992   2.904   1.948  0.3877 -0.8922 -0.4590
12685TIP3    H159470   4.039   2.972   1.996  0.0119  0.3508 -1.7750
12685TIP3    H259471   4.061   2.857   1.901  0.5768 -0.8791 -0.1962
12686TIP3   OH259472   4.078   3.141   2.066  0.5432  0.3033  0.0314
12686TIP3    H159473   4.174   3.140   2.066  0.5553  0.2565 -1.3358
12686TIP3    H259474   4.054   3.191   1.988 -0.5385 -1.0455 -0.5409
12687TIP3   OH259475   3.902   2.366   2.701 -0.3987  0.1540  0.0064
12687TIP3    H159476   3.906   2.401   2.612 -2.6383 -0.9794 -0.6201
12687TIP3    H259477   3.987   2.323   2.714  1.3140  3.2008 -0.2378
12688TIP3   OH259478   6.388   3.202  14.945 -0.8193 -0.4389 -0.1431
12688TIP3    H159479   6.447   3.211  14.870 -1.0761 -1.8545 -0.5407
12688TIP3    H259480   6.326   3.274  14.935  1.1908  1.5406  0.6827
12689TIP3   OH259481   3.310   4.045   4.785 -0.7883 -0.1166 -0.6276
12689TIP3    H159482   3.348   3.962   4.759  1.1006  1.0556 -1.8865
12689TIP3    H259483   3.360   4.072   4.862  0.3021  0.9454 -1.6677
12690TIP3   OH259484   2.967   3.934   3.830 -0.0158 -0.2624 -0.4742
12690TIP3    H159485   2.946   4.010   3.884 -2.4968 -1.0296 -0.2395
12690TIP3    H259486   2.911   3.944   3.752 -1.4424 -2.4610  0.1879
12691TIP3   OH259487   6.177   4.356  12.123 -0.1938 -0.1865 -0.4084
12691TIP3    H159488   6.177   4.382  12.216  0.8438  1.1399 -0.7437
12691TIP3    H259489   6.108   4.290  12.117 -0.4843 -0.0912  1.2528
12692TIP3   OH259490   0.698   4.722   3.055 -0.2689 -0.4605  0.6689
12692TIP3    H159491   0.644   4.750   3.129  0.1246  0.0305  0.7773
12692TIP3    H259492   0.777   4.686   3.096 -0.2989 -0.7212  0.4988
12693TIP3   OH259493   5.621   4.491  14.088  0.1722 -0.2482  0.5420
12693TIP3    H159494   5.572   4.414  14.118 -2.7817  0.9799 -0.7167
12693TIP3    H259495   5.580   4.515  14.005  1.9822  1.8496  0.1569
12694TIP3   OH259496   5.635   1.208  15.613 -0.6453  0.5860 -0.5202
12694TIP3    H159497   5.722   1.247  15.619 -0.6895  0.6794 -0.4902
12694TIP3    H259498   5.597   1.245  15.534 -0.5335  0.2957 -0.7096
12695TIP3   OH259499   6.497   0.628  11.546  0.1611  0.5922 -0.4321
12695TIP3    H159500   6.414   0.670  11.522  0.1002  0.0987 -1.0895
12695TIP3    H259501   6.524   0.674  11.625 -1.1285  0.2635  0.2402
12696TIP3   OH259502   0.732   3.147   2.298  0.7876 -0.4062 -0.3248
12696TIP3    H159503   0.733   3.084   2.226  2.2854 -0.0380 -0.6430
12696TIP3    H259504   0.726   3.233   2.255 -0.3288 -0.2518  0.0798
12697TIP3   OH259505   1.697   3.437  15.375  0.0641  0.0561 -0.2292
12697TIP3    H159506   1.681   3.521  15.332  2.3307  0.5489 -0.2167
12697TIP3    H259507   1.704   3.459  15.468 -0.7293 -0.3943 -0.0505
12698TIP3   OH259508   6.365   5.460   4.019  0.4813  0.2427  0.5189
12698TIP3    H159509   6.307   5.520   4.065 -1.1736 -1.4874  0.8072
12698TIP3    H259510   6.328   5.373   4.035  1.9822 -0.7505 -1.0114
12699TIP3   OH259511   1.880   4.817   1.393  0.2340 -0.6489  0.0052
12699TIP3    H159512   1.975   4.800   1.391  0.6779  1.5725 -1.7274
12699TIP3    H259513   1.866   4.879   1.322 -2.4121 -0.2093  0.8379
12700TIP3   OH259514   6.109   1.690  16.424  0.0295 -0.0228  0.3462
12700TIP3    H159515   6.115   1.616  16.363  1.4741 -2.2015  2.9354
12700TIP3    H259516   6.055   1.658  16.496 -1.3276  2.3531  0.4698
12701TIP3   OH259517   0.998   5.663   0.973 -0.0764  0.3558 -0.1312
12701TIP3    H159518   0.919   5.700   0.934  0.0813  0.6734 -0.1492
12701TIP3    H259519   1.063   5.733   0.969  0.0941  0.2247  0.2374
12702TIP3   OH259520   3.623   6.274   2.515 -0.0984 -0.2713  0.0853
12702TIP3    H159521   3.713   6.300   2.494  0.2663 -0.8383  0.9172
12702TIP3    H259522   3.621   6.268   2.610 -0.8030 -1.0499  0.0355
12703TIP3   OH259523   4.950   1.346   2.562 -0.1074  0.2479  0.3672
12703TIP3    H159524   5.044   1.367   2.565 -0.4396  1.7268  2.8470
12703TIP3    H259525   4.913   1.409   2.500  0.3395  0.5068  0.3596
12704TIP3   OH259526   3.248   4.877  11.187  0.1436  0.2342 -0.6273
12704TIP3    H159527   3.337   4.873  11.221  0.0852  3.5368  0.2805
12704TIP3    H259528   3.200   4.810  11.236  1.7311 -0.3794  0.1477
12705TIP3   OH259529   2.634   5.301  15.083 -0.4251 -0.1869  0.2440
12705TIP3    H159530   2.680   5.385  15.080  0.6897 -0.7395  1.1909
12705TIP3    H259531   2.574   5.309  15.157  0.0875 -0.4094  0.6919
12706TIP3   OH259532   5.398   2.761  15.618 -0.1253  0.2319 -0.4387
12706TIP3    H159533   5.332   2.707  15.575  1.8393 -1.6243 -1.3069
12706TIP3    H259534   5.463   2.779  15.550  2.3705 -1.5949  1.2913
12707TIP3   OH259535   6.551   2.974  14.856  0.2427  0.2888  0.0067
12707TIP3    H159536   6.466   3.014  14.838  0.2158  0.5101  0.6222
12707TIP3    H259537   6.547   2.890  14.810 -0.2789  0.3303 -0.0353
12708TIP3   OH259538   2.169   5.506   5.059  0.2977  0.1456 -0.1796
12708TIP3    H159539   2.191   5.443   4.991 -1.2835 -1.7203  0.9279
12708TIP3    H259540   2.092   5.552   5.026  0.2547  0.0924 -0.1531
12709TIP3   OH259541   2.967   2.414   0.881  0.0037 -0.4777 -0.3268
12709TIP3    H159542   3.019   2.348   0.836  1.6244  0.4651  0.0649
12709TIP3    H259543   2.940   2.373   0.963  0.5390 -0.8368 -0.3291
12710TIP3   OH259544   3.155   2.396   0.500 -0.0646 -0.2341  0.6094
12710TIP3    H159545   3.212   2.347   0.441 -0.1700  1.7006 -1.2371
12710TIP3    H259546   3.213   2.423   0.572  1.1782  0.8205 -0.7102
12711TIP3   OH259547   2.623   1.644  12.813 -0.1784 -0.0153 -0.1283
12711TIP3    H159548   2.578   1.660  12.896 -0.6998 -1.0495 -0.1928
12711TIP3    H259549   2.656   1.555  12.821 -2.1794 -0.9919 -1.8781
12712TIP3   OH259550   1.358   1.709  16.388 -0.2099 -0.2878  0.3399
12712TIP3    H159551   1.368   1.746  16.300 -1.3735 -2.3905 -0.7734
12712TIP3    H259552   1.446   1.705  16.423  0.4979 -0.8202 -1.3857
12713TIP3   OH259553   3.365   3.608   4.063  0.2922  0.3775  0.3882
12713TIP3    H159554   3.384   3.632   3.972 -0.4533  0.5136  0.2649
12713TIP3    H259555   3.401   3.520   4.072 -0.6325 -0.0974 -0.3854
12714TIP3   OH259556   2.043   3.522  10.969 -0.7191  0.6255 -0.4661
12714TIP3    H159557   2.076   3.558  10.887  0.9154 -0.4913 -0.3610
12714TIP3    H259558   2.061   3.428  10.963 -0.7383  0.4888  1.0809
12715TIP3   OH259559   5.381   0.450   1.271 -0.1231 -0.1101 -0.5665
12715TIP3    H159560   5.324   0.391   1.221  0.7982  0.4824 -2.4162
12715TIP3    H259561   5.464   0.451   1.222  0.7809  0.6518  0.9018
12716TIP3   OH259562   6.074   0.017  12.835  0.0453  0.1978 -0.7050
12716TIP3    H159563   6.082  -0.060  12.892 -1.2138  0.4017 -0.2318
12716TIP3    H259564   6.127   0.084  12.878 -1.1324  0.4437  0.4289
12717TIP3   OH259565   6.623   4.907   3.815 -0.3210 -0.5245  0.3362
12717TIP3    H159566   6.537   4.949   3.825 -0.3944 -0.7697  0.7872
12717TIP3    H259567   6.670   4.930   3.895 -0.4924 -1.5852  0.7630
12718TIP3   OH259568   2.404   1.054   5.600  0.4223  0.1338  0.6553
12718TIP3    H159569   2.476   0.996   5.625 -0.1285 -0.4124  1.0221
12718TIP3    H259570   2.440   1.142   5.608  1.1107 -0.1334  0.6213
12719TIP3   OH259571   0.733   1.934  13.258  0.0967 -0.2570  0.1139
12719TIP3    H159572   0.673   1.939  13.332  3.6842 -0.3862  3.3885
12719TIP3    H259573   0.758   1.842  13.253  1.2595  0.0382  0.0366
12720TIP3   OH259574   5.674   2.190  12.980 -0.3198  0.4901 -0.0175
12720TIP3    H159575   5.701   2.219  13.067  1.3363  0.6448 -0.5480
12720TIP3    H259576   5.741   2.126  12.954 -1.7612 -0.8862 -0.4673
12721TIP3   OH259577   1.515   4.520  15.229 -0.3056 -0.6359  0.5659
12721TIP3    H159578   1.473   4.589  15.179  0.3587  0.2726  1.2187
12721TIP3    H259579   1.607   4.523  15.202 -0.1745 -0.9135  0.9677
12722TIP3   OH259580   1.801   0.721   1.007 -0.4358  0.4108 -0.1591
12722TIP3    H159581   1.891   0.704   0.980 -0.7227 -0.2228 -0.7348
12722TIP3    H259582   1.758   0.635   1.002 -0.9570  0.6259  0.5440
12723TIP3   OH259583   3.715   3.459   1.121  0.3181 -0.0658  0.2580
12723TIP3    H159584   3.735   3.535   1.176  1.1166 -1.0054  1.3200
12723TIP3    H259585   3.795   3.407   1.123  0.4448 -0.0458 -2.0024
12724TIP3   OH259586   0.973   6.093   0.095  0.0076 -0.4676 -0.3588
12724TIP3    H159587   0.977   6.082   0.190  1.4121  0.5657 -0.2617
12724TIP3    H259588   1.032   6.026   0.060  0.4327 -0.0714 -0.4139
12725TIP3   OH259589   5.587   0.080   2.751  0.0867 -0.1993  0.4658
12725TIP3    H159590   5.504   0.035   2.736 -0.5324  1.2811 -0.8466
12725TIP3    H259591   5.562   0.171   2.771  1.3392 -0.0917  1.7449
12726TIP3   OH259592   1.236   3.456  16.931  0.1235 -0.6952 -0.0069
12726TIP3    H159593   1.143   3.435  16.919 -0.0688 -1.1365  1.8952
12726TIP3    H259594   1.252   3.441  17.024  2.6057 -2.5143 -0.6374
12727TIP3   OH259595   0.485   6.137   2.953  0.3476  0.7740  0.0387
12727TIP3    H159596   0.568   6.130   2.907 -0.8361  0.4393 -2.2158
12727TIP3    H259597   0.419   6.121   2.886 -1.6077  2.5367  1.3966
12728TIP3   OH259598   5.099   4.868  15.460 -0.4423  0.2425  0.0795
12728TIP3    H159599   5.137   4.881  15.547 -0.3372  0.5576 -0.0117
12728TIP3    H259600   5.009   4.842  15.477 -0.4172  0.2844  0.2838
12729TIP3   OH259601   4.749   0.674  13.095  0.1212  0.5246 -0.0710
12729TIP3    H159602   4.731   0.749  13.152 -0.1982  0.5137 -0.1530
12729TIP3    H259603   4.731   0.598  13.150  1.3537  0.4870  0.3072
12730TIP3   OH259604   5.286   4.955  13.757  0.2496  0.4263  0.4801
12730TIP3    H159605   5.229   4.883  13.729 -0.0657  1.4908 -1.8061
12730TIP3    H259606   5.226   5.019  13.794  0.2842  0.3897  0.6003
12731TIP3   OH259607   0.710   0.527   1.879  0.1512  0.1855 -0.3695
12731TIP3    H159608   0.720   0.461   1.949  1.3467  2.1075  1.3846
12731TIP3    H259609   0.707   0.475   1.798  1.1539 -2.0170  0.9040
12732TIP3   OH259610   0.073   3.812  12.794 -0.0015  0.2891  0.8115
12732TIP3    H159611   0.130   3.736  12.800  0.4062  0.2652 -2.1456
12732TIP3    H259612  -0.009   3.779  12.757 -0.0388  1.1502  0.0684
12733TIP3   OH259613   3.448   1.348  16.005  0.0236  0.0451  0.0182
12733TIP3    H159614   3.372   1.314  15.957  0.5348 -1.5283  0.2680
12733TIP3    H259615   3.459   1.437  15.972 -0.5806 -0.4599 -1.6546
12734TIP3   OH259616   5.169   6.472   2.911  0.2232  0.2561  0.4612
12734TIP3    H159617   5.234   6.473   2.841  1.5206 -1.2450  1.5712
12734TIP3    H259618   5.092   6.432   2.871  0.0108  1.8088 -0.7987
12735TIP3   OH259619   0.826   0.981   5.868  0.0593  0.1133  0.4224
12735TIP3    H159620   0.869   0.945   5.945  0.6876  0.8281  0.4169
12735TIP3    H259621   0.735   0.952   5.875  0.7187 -2.2413 -0.0719
12736TIP3   OH259622   0.027   3.297  12.370  0.2878  0.0928 -0.7332
12736TIP3    H159623   0.108   3.256  12.400 -0.2517  0.6142  1.6108
12736TIP3    H259624   0.056   3.374  12.320  1.2497  0.0320 -0.2921
12737TIP3   OH259625   0.830   3.945   5.345  0.0683  0.3718 -0.3425
12737TIP3    H159626   0.782   3.931   5.427  2.7849  1.0362  1.4778
12737TIP3    H259627   0.815   4.037   5.323  0.2562  0.4893  0.0262
12738TIP3   OH259628   6.457   3.409  16.021 -0.1177 -0.1369 -0.0167
12738TIP3    H159629   6.373   3.412  16.068 -0.7351 -0.2924 -1.0691
12738TIP3    H259630   6.522   3.398  16.090 -0.9005  0.6327  0.8809
12739TIP3   OH259631   4.856   2.160  15.087 -0.1119  0.6366  0.0256
12739TIP3    H159632   4.872   2.110  15.007  0.3677  2.0839 -0.8096
12739TIP3    H259633   4.851   2.251  15.058  0.1093  1.1883  1.6514
12740TIP3   OH259634   5.522   1.592  14.550 -0.1958  0.2180  0.6981
12740TIP3    H159635   5.600   1.572  14.498 -0.3059 -1.5381  1.1585
12740TIP3    H259636   5.551   1.656  14.614  0.0231  2.2213 -1.2597
12741TIP3   OH259637   6.062   1.473   1.865 -0.2288  0.4795  0.2579
12741TIP3    H159638   6.036   1.382   1.881 -1.5026  1.0171  1.5344
12741TIP3    H259639   5.980   1.523   1.874 -0.2335  1.4841 -3.6171
12742TIP3   OH259640   0.215   2.678  13.138  0.0940 -0.0200  0.4904
12742TIP3    H159641   0.131   2.711  13.170 -0.9251 -1.2985 -0.7602
12742TIP3    H259642   0.269   2.757  13.128 -0.2979  0.6360  3.0340
12743TIP3   OH259643   6.103   5.049  16.888 -0.4149  0.5374 -0.4744
12743TIP3    H159644   6.085   4.971  16.837  2.5946 -0.5502 -0.0890
12743TIP3    H259645   6.106   5.120  16.823  2.6760 -0.7073 -1.8891
12744TIP3   OH259646   0.771   5.205   4.240  0.2111  0.5001  0.0394
12744TIP3    H159647   0.788   5.273   4.174 -0.4571  0.3160 -0.3315
12744TIP3    H259648   0.749   5.127   4.189  0.8353  0.0372  0.4668
12745TIP3   OH259649   2.510   5.527  11.831 -0.2240  0.2260 -0.0164
12745TIP3    H159650   2.499   5.573  11.748  0.1832  2.5588  1.1476
12745TIP3    H259651   2.420   5.513  11.863 -0.3664 -0.3464 -0.6481
12746TIP3   OH259652   3.254   3.246   3.305  0.1186 -0.5291 -0.0764
12746TIP3    H159653   3.277   3.296   3.383 -1.0758 -0.2138  0.1026
12746TIP3    H259654   3.310   3.281   3.236 -0.0232  0.3842  0.2637
12747TIP3   OH259655   4.245   3.697   2.329  0.2861 -0.4163 -0.0794
12747TIP3    H159656   4.262   3.640   2.404 -1.8118  0.1561  0.9201
12747TIP3    H259657   4.167   3.659   2.288 -0.5126  1.0744 -0.0230
12748TIP3   OH259658   0.503   2.462  11.249  0.1508 -0.6488  0.0201
12748TIP3    H159659   0.536   2.517  11.178  1.1339 -2.6127 -1.1712
12748TIP3    H259660   0.537   2.501  11.329  0.6365  0.5544 -0.7574
12749TIP3   OH259661   3.362   2.206  11.944 -0.2707  0.7147 -0.3188
12749TIP3    H159662   3.367   2.261  11.865 -1.3543  1.7152  0.2722
12749TIP3    H259663   3.292   2.246  11.996  0.6618  0.2923  1.3144
12750TIP3   OH259664   2.624   1.855   4.704  0.5242  0.1643  0.5272
12750TIP3    H159665   2.587   1.943   4.697 -0.7049 -0.3088  0.6668
12750TIP3    H259666   2.669   1.854   4.788  1.1607  0.8743  0.1961
12751TIP3   OH259667   4.796   6.264   1.487  0.2283 -0.0357  0.3678
12751TIP3    H159668   4.705   6.295   1.484  0.3413  0.4146  1.2567
12751TIP3    H259669   4.834   6.308   1.563  0.8290 -1.2079  0.7788
12752TIP3   OH259670   0.778   2.117  16.917  0.4339 -0.1663  0.1427
12752TIP3    H159671   0.865   2.138  16.883  0.4809  0.1283  0.4370
12752TIP3    H259672   0.757   2.032  16.879  0.8199 -0.2054  0.0114
12753TIP3   OH259673   0.102   2.762   5.070  0.1020 -0.1004  0.5023
12753TIP3    H159674   0.128   2.840   5.021 -1.4770  0.4833  0.5385
12753TIP3    H259675   0.054   2.709   5.006  0.3843 -0.6177  0.7176
12754TIP3   OH259676   4.034   6.682  13.389  0.2855 -0.2053  0.3385
12754TIP3    H159677   4.045   6.661  13.296 -1.9729 -1.4795  0.2809
12754TIP3    H259678   3.939   6.686  13.401  0.5424  0.9839  2.3988
12755TIP3   OH259679   3.508   1.124   6.005  0.0919  0.4396 -0.1922
12755TIP3    H159680   3.549   1.057   6.060  1.7280 -0.1421 -2.0144
12755TIP3    H259681   3.504   1.202   6.060  0.2108 -0.5337  1.2447
12756TIP3   OH259682   4.845   5.609  14.772  0.0592 -0.5241 -0.3257
12756TIP3    H159683   4.755   5.631  14.747  0.3543 -0.3074 -1.2406
12756TIP3    H259684   4.884   5.692  14.799 -0.4694 -0.8697  1.6161
12757TIP3   OH259685   5.232   0.170  15.814  0.1935  0.5159 -0.1669
12757TIP3    H159686   5.318   0.177  15.856  0.4280  2.2154 -0.8501
12757TIP3    H259687   5.181   0.242  15.851 -1.0838 -0.6782  0.4820
12758TIP3   OH259688   6.569   2.357  14.849  0.3143  0.2400 -0.4338
12758TIP3    H159689   6.561   2.345  14.754 -1.9758  0.6078 -0.3416
12758TIP3    H259690   6.495   2.414  14.872 -0.8333 -2.0008  1.9263
12759TIP3   OH259691   0.299   4.855   5.272  0.1595  0.0270 -0.6072
12759TIP3    H159692   0.299   4.933   5.217 -1.9589  0.3301 -0.2419
12759TIP3    H259693   0.357   4.878   5.345  1.1066  0.5019 -1.4867
12760TIP3   OH259694   0.831   6.297  14.536 -0.3414 -0.0768 -0.4078
12760TIP3    H159695   0.890   6.316  14.608 -0.6409 -0.7299  0.0293
12760TIP3    H259696   0.774   6.228  14.570  0.2174 -1.1937 -1.6347
12761TIP3   OH259697   0.663   0.013  11.343 -0.1580  0.4853 -0.2229
12761TIP3    H159698   0.575  -0.007  11.311 -0.1449  1.2850 -0.7943
12761TIP3    H259699   0.649   0.047  11.432 -0.7215  3.0063 -1.1808
12762TIP3   OH259700   3.773   4.979   5.053 -0.1315  0.4807 -0.4956
12762TIP3    H159701   3.687   4.942   5.072 -0.1810  0.9705  0.3189
12762TIP3    H259702   3.813   4.918   4.991 -1.7715  1.1962 -2.3573
12763TIP3   OH259703   0.861   2.690  12.791  0.3268 -0.2678  0.5878
12763TIP3    H159704   0.920   2.678  12.716  0.7215  1.6783  0.5313
12763TIP3    H259705   0.786   2.634  12.771 -0.6545  1.8435 -2.4972
12764TIP3   OH259706   4.684   5.306  16.430 -0.3405  0.0025  0.2766
12764TIP3    H159707   4.702   5.326  16.522  1.8250 -1.4258  0.2192
12764TIP3    H259708   4.685   5.391  16.386 -0.3524  0.5999  1.3971
12765TIP3   OH259709   4.346   0.929   4.842  0.2730 -0.1185 -0.3055
12765TIP3    H159710   4.293   0.988   4.896  2.9786  0.9576  1.3880
12765TIP3    H259711   4.365   0.979   4.763 -1.6324 -0.7559 -1.2330
12766TIP3   OH259712   3.440   4.765  17.071 -0.0985 -0.1764 -0.4669
12766TIP3    H159713   3.377   4.754  17.001  1.2979 -1.1152 -1.6305
12766TIP3    H259714   3.502   4.830  17.038  1.3604 -1.6429 -0.7529
12767TIP3   OH259715   2.861   2.005   0.203 -0.5418  0.5755  0.2934
12767TIP3    H159716   2.772   1.970   0.200  0.1047 -1.1197 -0.1884
12767TIP3    H259717   2.915   1.930   0.228  0.8446  1.3818 -0.1867
12768TIP3   OH259718   1.625   3.593   2.393  0.1532 -0.0741  0.5268
12768TIP3    H159719   1.608   3.583   2.299 -0.7704 -1.3086  0.8035
12768TIP3    H259720   1.720   3.586   2.401  0.2915  0.6615 -0.3798
12769TIP3   OH259721   6.141   6.550   4.600 -0.0485 -0.2549  0.0192
12769TIP3    H159722   6.085   6.602   4.659  1.4739  0.5681  0.8030
12769TIP3    H259723   6.207   6.612   4.569  0.7065 -1.3017 -0.5209
12770TIP3   OH259724   1.581   5.869  15.212 -0.6336 -0.1219  0.1709
12770TIP3    H159725   1.514   5.872  15.144 -0.1848  0.3570 -0.2603
12770TIP3    H259726   1.605   5.777  15.217 -3.1065 -0.7643  2.1254
12771TIP3   OH259727   4.999   1.010   6.262 -0.2040 -0.3732 -0.3425
12771TIP3    H159728   5.005   1.099   6.295 -1.1068 -0.6719  0.7116
12771TIP3    H259729   5.049   0.958   6.325  0.4491 -0.5985 -1.0369
12772TIP3   OH259730   5.317   6.109  14.790  0.0242  0.2161 -0.1190
12772TIP3    H159731   5.259   6.145  14.723 -0.4507  0.3270  0.3409
12772TIP3    H259732   5.385   6.175  14.800 -1.3187  1.4629  1.3477
12773TIP3   OH259733   3.950   2.416  16.918 -0.4104 -0.1408 -0.2504
12773TIP3    H159734   3.922   2.466  16.995  0.3451  0.2327 -0.2110
12773TIP3    H259735   4.020   2.468  16.879  0.0530 -0.9252 -0.4958
12774TIP3   OH259736   5.571   3.045  17.004 -0.0827  0.4501  0.2086
12774TIP3    H159737   5.650   3.013  16.961 -0.7076  0.5898 -1.1026
12774TIP3    H259738   5.583   3.022  17.096  1.3334  0.1862 -0.0106
12775TIP3   OH259739   6.678   0.731  12.168 -0.2664 -0.3831 -0.5383
12775TIP3    H159740   6.599   0.707  12.119  0.3097 -0.6728 -1.3492
12775TIP3    H259741   6.696   0.821  12.141 -1.4006  0.3897  1.1285
12776TIP3   OH259742   4.182   3.602  11.451 -0.2734 -0.3117 -0.5197
12776TIP3    H159743   4.256   3.617  11.393  0.1679  0.6780  0.2678
12776TIP3    H259744   4.142   3.521  11.418  1.8264 -1.5266 -0.2624
12777TIP3   OH259745   6.412   6.079   5.426  0.4901  0.1070 -0.3371
12777TIP3    H159746   6.451   6.159   5.391 -1.1797  0.8895 -0.4990
12777TIP3    H259747   6.438   6.078   5.518 -0.9093  1.8212  0.1349
12778TIP3   OH259748   4.542   6.094  17.037 -0.5214 -0.0509  0.2761
12778TIP3    H159749   4.550   6.158  17.108 -3.1684 -0.2779  0.8814
12778TIP3    H259750   4.448   6.093  17.016  0.0128 -0.7652 -2.5319
12779TIP3   OH259751   3.207   2.523  12.348 -0.0034  0.5142 -0.1093
12779TIP3    H159752   3.295   2.551  12.324  0.4510  0.1476  1.0680
12779TIP3    H259753   3.161   2.605  12.368  0.3694  0.6434  0.2378
12780TIP3   OH259754   1.751   3.693   3.801 -0.2249  0.0035 -0.5070
12780TIP3    H159755   1.721   3.611   3.762 -0.6900 -0.0604 -0.0304
12780TIP3    H259756   1.719   3.761   3.742  2.0335 -0.2161 -2.1297
12781TIP3   OH259757   5.291   3.331   3.732  0.2422 -0.7557  0.2889
12781TIP3    H159758   5.361   3.266   3.721 -0.2179 -1.1194 -0.5402
12781TIP3    H259759   5.212   3.278   3.746 -0.2692 -0.4145 -1.1486
12782TIP3   OH259760   2.017   2.215  12.253 -0.1037 -0.0102  0.5088
12782TIP3    H159761   1.986   2.199  12.164  1.1439 -2.3315  0.4017
12782TIP3    H259762   2.104   2.255  12.242  0.1182 -0.4389  0.6644
12783TIP3   OH259763   4.722   6.586  16.031  0.6021  0.1278  0.1233
12783TIP3    H159764   4.723   6.649  15.960 -0.0557  1.0679  0.9255
12783TIP3    H259765   4.797   6.530  16.014  0.9472  0.8591 -0.8427
12784TIP3   OH259766   0.425   5.139   0.129  0.2809  0.3332 -0.0105
12784TIP3    H159767   0.329   5.147   0.127  0.3121  0.9156  0.5670
12784TIP3    H259768   0.446   5.132   0.222  1.0287  3.3501  0.1444
12785TIP3   OH259769   3.710   6.353   4.904  0.7770 -0.1595 -0.7514
12785TIP3    H159770   3.645   6.423   4.910  0.6322 -0.3508  0.0922
12785TIP3    H259771   3.661   6.274   4.930  1.3138 -0.3217 -0.2118
12786TIP3   OH259772   1.935   1.702   1.078 -0.1043 -0.0949  0.0801
12786TIP3    H159773   1.916   1.795   1.066 -0.1775 -0.1776 -0.5060
12786TIP3    H259774   1.884   1.659   1.010  1.7958 -0.3552 -1.2762
12787TIP3   OH259775   3.755   4.370   1.459 -0.0237 -0.1598  0.1504
12787TIP3    H159776   3.724   4.458   1.483  0.0151 -0.2956  0.6990
12787TIP3    H259777   3.834   4.357   1.511 -0.4492 -0.8206  0.6444
12788TIP3   OH259778   4.755   6.306   0.813  1.0254 -0.1494 -0.2490
12788TIP3    H159779   4.748   6.399   0.793  1.3408  0.8012  3.4288
12788TIP3    H259780   4.849   6.288   0.810  0.8452 -1.1819 -3.6902
12789TIP3   OH259781   0.977   3.888  17.064  0.3900 -0.1586  0.2177
12789TIP3    H159782   0.892   3.915  17.096  0.3636 -0.1958  0.1789
12789TIP3    H259783   0.979   3.917  16.972  1.3875  2.0785  0.8849
12790TIP3   OH259784   0.745   1.409   0.295  0.0007 -0.4464 -0.0627
12790TIP3    H159785   0.777   1.486   0.341  0.6351 -0.8158  0.1291
12790TIP3    H259786   0.748   1.433   0.203 -2.2640  0.6739  0.0898
12791TIP3   OH259787   5.288   1.781   4.897 -0.4099 -0.5366 -0.4831
12791TIP3    H159788   5.306   1.738   4.980  1.5297 -0.1949 -0.6801
12791TIP3    H259789   5.255   1.868   4.920  0.9874 -0.1015 -0.0284
12792TIP3   OH259790   2.091   4.569  12.809  0.2303  0.4683  0.8615
12792TIP3    H159791   1.996   4.578  12.814  0.2872  1.8991  0.1006
12792TIP3    H259792   2.124   4.616  12.886  0.3392  0.9514  0.5275
12793TIP3   OH259793   1.878   4.437  14.087 -0.9620 -0.2886 -0.1521
12793TIP3    H159794   1.837   4.376  14.149 -3.7670  1.4247 -0.1156
12793TIP3    H259795   1.922   4.501  14.143 -1.1768 -0.2459 -0.0279
12794TIP3   OH259796   0.210   3.922  12.029 -0.6421 -0.3059 -0.1068
12794TIP3    H159797   0.269   3.857  11.991 -0.7988  0.7234 -2.2759
12794TIP3    H259798   0.235   4.004  11.986 -2.8846  0.3638 -0.2361
12795TIP3   OH259799   4.001   1.244   1.379 -0.2801  0.7072 -0.0095
12795TIP3    H159800   4.090   1.213   1.393 -0.6369  0.2330  1.3426
12795TIP3    H259801   3.975   1.206   1.295 -0.3988 -2.0643  1.1698
12796TIP3   OH259802   2.916   0.249   1.738  0.7270  0.3800 -0.2812
12796TIP3    H159803   2.969   0.215   1.667  1.6185  1.0687  0.0444
12796TIP3    H259804   2.852   0.306   1.696 -0.3459 -1.0968 -0.7619
12797TIP3   OH259805   1.396   2.601  16.003 -0.3875 -0.8692  0.5440
12797TIP3    H159806   1.370   2.659  15.931 -1.0542 -0.6962  0.9124
12797TIP3    H259807   1.481   2.566  15.977  1.8877  3.0841  1.9167
12798TIP3   OH259808   4.939   0.821   3.595  0.1778  0.2833  0.4348
12798TIP3    H159809   4.936   0.762   3.670  1.5696 -0.8220 -0.3205
12798TIP3    H259810   5.010   0.882   3.616 -0.0326  0.5416  0.4025
12799TIP3   OH259811   4.216   2.969   4.982 -0.3098 -0.4798 -0.3949
12799TIP3    H159812   4.177   3.008   4.903  1.8792  1.7523 -0.5148
12799TIP3    H259813   4.266   2.894   4.950 -2.0000 -1.5729 -0.6148
12800TIP3   OH259814   3.294   3.343   3.901  0.4401  0.3983 -0.1506
12800TIP3    H159815   3.228   3.412   3.898  1.6115  1.6883  2.0051
12800TIP3    H259816   3.368   3.377   3.851  0.3538 -0.1025 -0.6394
12801TIP3   OH259817   0.735   4.867  11.547 -0.0075  0.3801 -0.1234
12801TIP3    H159818   0.693   4.877  11.462 -0.1611  0.9897  0.0196
12801TIP3    H259819   0.724   4.952  11.589  1.8822  0.7452 -0.3081
12802TIP3   OH259820   3.582   2.917  11.515 -0.4999 -0.1242  0.1805
12802TIP3    H159821   3.563   2.943  11.425  1.3764 -0.6595 -0.4199
12802TIP3    H259822   3.538   2.832  11.525 -2.4803  0.8836  0.5144
12803TIP3   OH259823   4.220   1.308   0.826 -0.4170 -0.3435 -0.0504
12803TIP3    H159824   4.137   1.287   0.782 -0.2312 -0.5859 -0.2890
12803TIP3    H259825   4.245   1.226   0.868 -0.3356 -0.2496  0.0816
12804TIP3   OH259826   1.078   1.886  15.500  0.4532  0.2880  0.2262
12804TIP3    H159827   1.166   1.919  15.519  1.5078 -1.4014 -1.4781
12804TIP3    H259828   1.080   1.860  15.408 -1.7605 -0.0874  0.2099
12805TIP3   OH259829   6.512   3.885   3.669  0.1525  0.2593  0.0962
12805TIP3    H159830   6.575   3.813   3.675  0.2280  0.3559  0.4915
12805TIP3    H259831   6.466   3.883   3.753 -1.3078 -0.6684 -0.6831
12806TIP3   OH259832   5.621   6.349   6.017  0.1742 -0.0126 -0.5949
12806TIP3    H159833   5.604   6.352   6.111  0.0183 -0.1221 -0.6189
12806TIP3    H259834   5.584   6.266   5.989  2.3389 -1.1389 -0.3385
12807TIP3   OH259835   3.261   5.413  11.457  0.3513 -0.4566  0.3144
12807TIP3    H159836   3.292   5.475  11.391  1.3958 -1.9209 -0.6099
12807TIP3    H259837   3.341   5.381  11.500  0.0886 -2.8558 -0.8062
12808TIP3   OH259838   3.151   1.897  14.156  0.1137 -0.2479  0.0721
12808TIP3    H159839   3.119   1.967  14.099  1.0312  0.0210 -0.1424
12808TIP3    H259840   3.161   1.822  14.097  1.5548  0.1716 -0.2823
12809TIP3   OH259841   4.394   3.938   3.537  0.8030  0.3558  0.3215
12809TIP3    H159842   4.373   4.031   3.535  0.8738  0.3759  0.5261
12809TIP3    H259843   4.420   3.918   3.447 -0.4000  0.2553 -0.0249
12810TIP3   OH259844   4.688   4.306  13.478 -0.2051  0.0442  0.3462
12810TIP3    H159845   4.672   4.312  13.572 -0.8253 -0.3428  0.2736
12810TIP3    H259846   4.748   4.378  13.459 -1.2718  1.0969  0.7829
12811TIP3   OH259847   4.747   4.202  11.656 -0.3091  0.7825  0.0232
12811TIP3    H159848   4.652   4.197  11.671 -0.1502 -1.0156  0.5882
12811TIP3    H259849   4.759   4.287  11.613 -2.3392  0.4721 -1.3245
12812TIP3   OH259850   4.686   2.007  16.549 -0.1530 -0.5780  0.5784
12812TIP3    H159851   4.631   1.995  16.626  0.7795 -1.0460  1.1902
12812TIP3    H259852   4.692   1.920  16.510  0.3603 -0.5836  0.6650
12813TIP3   OH259853   5.854   3.440  16.243 -0.1913 -0.1936 -0.5744
12813TIP3    H159854   5.899   3.483  16.170 -0.6013 -0.5361 -1.0379
12813TIP3    H259855   5.792   3.506  16.275 -0.8856 -0.4475 -1.3436
12814TIP3   OH259856   0.374   4.657   5.074 -0.0767  0.1972 -0.0440
12814TIP3    H159857   0.464   4.667   5.103  0.1285 -1.9221  0.1540
12814TIP3    H259858   0.323   4.712   5.134  1.0202  1.0875  0.0943
12815TIP3   OH259859   1.026   4.294   0.959 -0.5088 -0.1680 -0.1781
12815TIP3    H159860   1.033   4.207   1.000 -0.2346  0.2922  0.7891
12815TIP3    H259861   0.981   4.278   0.876 -2.0456 -1.0128  0.7579
12816TIP3   OH259862   5.071   6.534   1.246  0.2978  0.0227 -0.1143
12816TIP3    H159863   5.084   6.546   1.152  0.1783 -3.7816 -0.7905
12816TIP3    H259864   4.987   6.488   1.252 -0.1312  0.9816  1.9695
12817TIP3   OH259865   6.349   6.439   5.348 -0.2771  0.1231 -0.1350
12817TIP3    H159866   6.391   6.519   5.382 -1.3007  0.9623 -0.7591
12817TIP3    H259867   6.293   6.410   5.420 -0.9899  0.8070 -0.3957
12818TIP3   OH259868   1.785   6.346   2.367  0.5971 -0.3171  0.0977
12818TIP3    H159869   1.806   6.268   2.315  1.7256  1.5467 -2.4836
12818TIP3    H259870   1.702   6.377   2.331  1.0824  0.6509 -0.2368
12819TIP3   OH259871   6.051   0.032   2.012 -0.2933  0.0952  0.0557
12819TIP3    H159872   6.064   0.028   1.917 -0.1334 -0.3105  0.0930
12819TIP3    H259873   6.021  -0.055   2.035  0.9742 -0.2275  0.5699
12820TIP3   OH259874   2.818   1.992  14.572 -0.3840 -0.0526 -0.3611
12820TIP3    H159875   2.835   1.972  14.480 -1.1186  0.2829 -0.5851
12820TIP3    H259876   2.738   1.944  14.593 -0.6263  0.4404 -0.1166
12821TIP3   OH259877   2.957   2.125  16.803 -0.0070 -0.9191  0.2927
12821TIP3    H159878   2.894   2.163  16.742 -0.3047 -1.7945  0.0398
12821TIP3    H259879   3.042   2.131  16.758 -0.2933 -1.9958 -0.4326
12822TIP3   OH259880   5.666   4.362   3.127  0.1137 -1.1208  0.3368
12822TIP3    H159881   5.660   4.454   3.150  0.1400 -1.1387  0.4138
12822TIP3    H259882   5.683   4.317   3.209  0.6495 -1.1399  0.2154
12823TIP3   OH259883   6.578   2.416   4.696 -0.2589  0.6785  0.0300
12823TIP3    H159884   6.528   2.336   4.711  0.5609  0.2861  0.7914
12823TIP3    H259885   6.534   2.458   4.622 -0.3490 -0.7743 -0.7918
12824TIP3   OH259886   0.070   4.276  14.382  0.0248 -0.4124  0.7118
12824TIP3    H159887   0.014   4.354  14.375  0.3794 -0.2171 -0.0406
12824TIP3    H259888   0.050   4.225  14.303  0.1943 -0.8204  0.9307
12825TIP3   OH259889   2.897   5.999   1.821 -0.0125 -0.1431  0.1306
12825TIP3    H159890   2.926   5.913   1.850  0.7592  0.1275  0.1722
12825TIP3    H259891   2.866   5.986   1.731 -0.6835 -0.6188  0.4188
12826TIP3   OH259892   2.302   4.432  14.681 -0.2814 -0.1561 -0.1871
12826TIP3    H159893   2.367   4.367  14.653 -0.2016  0.0870 -0.5806
12826TIP3    H259894   2.240   4.437  14.608 -1.2323 -1.0064  0.5384
12827TIP3   OH259895   4.777   6.127  16.910 -0.2449 -0.5144  0.0742
12827TIP3    H159896   4.779   6.186  16.835  0.5875  0.1528  0.6006
12827TIP3    H259897   4.687   6.133  16.943 -0.4616 -0.3915 -0.5239
12828TIP3   OH259898   5.304   5.568  12.797  0.4482  0.7313 -0.2226
12828TIP3    H159899   5.375   5.519  12.757 -0.7568 -0.9912 -0.3532
12828TIP3    H259900   5.276   5.630  12.729  1.2159  0.7852 -0.4916
12829TIP3   OH259901   3.483   2.739   3.777  0.9672  0.2016  0.3409
12829TIP3    H159902   3.466   2.767   3.866  1.1775 -0.6804  0.6698
12829TIP3    H259903   3.575   2.760   3.762  1.2087 -0.5485  0.6935
12830TIP3   OH259904   2.167   1.077   0.883  0.3425  0.2963  0.0419
12830TIP3    H159905   2.132   1.006   0.830  1.1253  0.1502 -0.2838
12830TIP3    H259906   2.235   1.036   0.936  0.0278  0.5795  0.6731
12831TIP3   OH259907   0.616   0.273   4.644  0.0533 -0.2476  0.1734
12831TIP3    H159908   0.549   0.304   4.582 -0.5407  2.2457  1.8856
12831TIP3    H259909   0.576   0.198   4.688 -1.0858  0.3538  0.2029
12832TIP3   OH259910   2.800   2.759   1.659  0.0374  0.1850  0.0311
12832TIP3    H159911   2.876   2.733   1.607 -0.6789  1.1500 -1.5654
12832TIP3    H259912   2.772   2.678   1.702  0.6491 -0.6683 -1.1146
12833TIP3   OH259913   3.630   1.788  12.845 -0.5245 -0.2699  0.0695
12833TIP3    H159914   3.693   1.840  12.796 -0.9238  3.0043  2.6104
12833TIP3    H259915   3.575   1.746  12.779  0.9261  1.1862 -2.1784
12834TIP3   OH259916   6.236   3.176  10.609  0.5100  0.0805  0.3883
12834TIP3    H159917   6.310   3.233  10.630  0.2551 -0.4524  3.0245
12834TIP3    H259918   6.259   3.091  10.648 -0.5766 -0.7034 -0.5975
12835TIP3   OH259919   6.683   3.529   4.098 -0.6836 -0.5333  0.4513
12835TIP3    H159920   6.777   3.520   4.086 -0.6292  1.8605 -1.6799
12835TIP3    H259921   6.674   3.578   4.179 -0.2888 -2.5672  1.8231
12836TIP3   OH259922   1.473   6.704   3.687  0.1496 -0.5411 -0.3742
12836TIP3    H159923   1.566   6.683   3.682  0.8777  1.9786  0.7974
12836TIP3    H259924   1.444   6.666   3.770  0.0892 -1.4128 -0.7871
12837TIP3   OH259925   2.733   5.610   2.861  0.1427  0.3182 -0.1381
12837TIP3    H159926   2.784   5.546   2.812 -0.7276 -1.3635  1.0422
12837TIP3    H259927   2.756   5.695   2.823  1.5799 -0.6630 -1.5361
12838TIP3   OH259928   6.509   4.364  12.965  0.0238  0.2531 -0.3531
12838TIP3    H159929   6.450   4.314  13.021  0.1398 -0.4944 -0.8717
12838TIP3    H259930   6.530   4.442  13.015 -0.8809  0.2160  0.1119
12839TIP3   OH259931   4.094   2.221   1.783 -0.1311  0.7076 -0.1924
12839TIP3    H159932   4.111   2.275   1.859  0.1227  0.2866  0.0537
12839TIP3    H259933   4.177   2.218   1.736 -0.1763  0.6328 -0.2694
12840TIP3   OH259934   0.262   1.030   5.780 -0.2988 -0.1949  0.5573
12840TIP3    H159935   0.207   0.983   5.718  0.4731  1.2654 -1.3157
12840TIP3    H259936   0.200   1.085   5.829 -0.6652  0.7124 -0.8665
12841TIP3   OH259937   5.328   6.012  13.679  0.2245 -0.0739  0.1081
12841TIP3    H159938   5.314   6.095  13.722  0.3283 -0.4645  0.9049
12841TIP3    H259939   5.244   5.966  13.688  1.2102 -1.5349  2.9649
12842TIP3   OH259940   4.794   4.075   6.093 -0.3508 -0.1825 -0.0722
12842TIP3    H159941   4.816   4.004   6.033  1.1214  1.6228 -1.8045
12842TIP3    H259942   4.726   4.125   6.047  1.9971  2.2231 -1.2221
12843TIP3   OH259943   6.778   0.650  16.068 -0.4843 -0.4416 -0.0988
12843TIP3    H159944   6.849   0.682  16.012 -1.0076  0.4323 -0.2787
12843TIP3    H259945   6.818   0.643  16.155 -0.2237  0.2150 -0.1614
12844TIP3   OH259946   3.963   3.877   3.914 -0.2801  0.4777  0.0744
12844TIP3    H159947   3.893   3.814   3.930 -1.0142  0.9980 -0.9578
12844TIP3    H259948   3.978   3.872   3.819  0.4921  0.9911  0.1590
12845TIP3   OH259949   6.262   4.006   2.764  0.2106 -0.4775  0.6923
12845TIP3    H159950   6.277   4.042   2.677 -1.3799  0.3749  0.7245
12845TIP3    H259951   6.255   4.084   2.820 -2.3992 -0.8166  0.9301
12846TIP3   OH259952   1.910   5.825   1.372  0.0086 -0.0179 -0.2809
12846TIP3    H159953   1.849   5.759   1.340 -0.6266  0.0291  0.7751
12846TIP3    H259954   1.991   5.778   1.388  0.2401 -0.1030 -1.6096
12847TIP3   OH259955   6.686   0.115   1.424 -0.2862  0.3255 -0.0042
12847TIP3    H159956   6.763   0.104   1.368 -0.9653 -0.4227 -0.8155
12847TIP3    H259957   6.631   0.040   1.404 -1.0253  0.6087  0.9127
12848TIP3   OH259958   0.546   0.224  16.221  0.5936  0.3544  0.1716
12848TIP3    H159959   0.467   0.185  16.257  1.1462  0.9106  2.0703
12848TIP3    H259960   0.593   0.149  16.182 -0.3989 -0.1168 -0.1692
12849TIP3   OH259961   5.031   4.156   0.526  0.5910 -0.4164  0.3336
12849TIP3    H159962   5.074   4.123   0.605  1.0599 -1.2438 -0.2563
12849TIP3    H259963   4.977   4.083   0.496 -2.5948  1.0501  1.9403
12850TIP3   OH259964   5.876   6.451  16.383  0.3290  0.1959 -0.3309
12850TIP3    H159965   5.814   6.473  16.452  1.0355  1.1423  0.0250
12850TIP3    H259966   5.822   6.413  16.313 -0.5871  0.6158  0.1354
12851TIP3   OH259967   5.934   2.533   3.913 -0.5212 -0.2013  0.5638
12851TIP3    H159968   5.876   2.573   3.849 -2.1956 -0.6936  1.7089
12851TIP3    H259969   5.922   2.439   3.901  0.3508 -0.3205  0.5624
12852TIP3   OH259970   0.870   5.721   3.068  0.1333  0.4742 -0.1961
12852TIP3    H159971   0.894   5.629   3.075  3.0612  1.2127  1.2782
12852TIP3    H259972   0.779   5.721   3.038 -0.9830 -2.9412  2.5675
12853TIP3   OH259973   0.636   3.144   0.862  0.2719  0.6614  0.1866
12853TIP3    H159974   0.693   3.093   0.804 -1.0809  0.5683 -1.1347
12853TIP3    H259975   0.553   3.096   0.862  0.2794  0.5687  2.3988
12854TIP3   OH259976   5.264   4.025   0.329 -0.0417 -0.1246 -0.2220
12854TIP3    H159977   5.229   3.967   0.397  0.7110 -0.1069  0.1866
12854TIP3    H259978   5.316   3.967   0.273 -0.9136 -0.1988 -0.9810
12855TIP3   OH259979   5.769   1.148  17.266 -0.1555 -0.1152 -0.2228
12855TIP3    H159980   5.745   1.210  17.197  0.4545 -0.7348 -1.0095
12855TIP3    H259981   5.685   1.119  17.302 -0.4461  1.9676  0.9259
12856TIP3   OH259982   0.174   1.268  11.881  0.1001 -0.7559  0.9658
12856TIP3    H159983   0.146   1.178  11.865 -0.6640 -0.2327 -0.9286
12856TIP3    H259984   0.112   1.301  11.946 -0.6803 -1.0946  0.4054
12857TIP3   OH259985   5.457   3.403   4.181 -0.4182  0.1776 -0.3042
12857TIP3    H159986   5.488   3.327   4.231  0.9271  0.7068 -0.2873
12857TIP3    H259987   5.383   3.370   4.131  2.2122 -2.1929 -3.0927
12858TIP3   OH259988   3.505   0.741  13.790  0.2322 -0.0112  0.0284
12858TIP3    H159989   3.447   0.678  13.748  0.5613 -0.5278  0.3377
12858TIP3    H259990   3.537   0.696  13.868 -1.0937  1.2428  1.3787
12859TIP3   OH259991   1.896   4.284   0.244  0.4005 -0.1773 -0.2349
12859TIP3    H159992   1.837   4.331   0.184  2.2498  0.0739 -1.9538
12859TIP3    H259993   1.942   4.221   0.188 -1.2543 -3.4951  1.7995
12860TIP3   OH259994   1.121   3.119  14.806  0.4205 -0.1890  0.1639
12860TIP3    H159995   1.171   3.038  14.819 -0.0019 -0.4487  0.1657
12860TIP3    H259996   1.069   3.103  14.727  2.5034  1.1330 -1.6248
12861TIP3   OH259997   2.105   2.642  12.168 -0.2633  0.4008 -0.4609
12861TIP3    H159998   2.152   2.675  12.244 -1.2809  2.5847 -0.7052
12861TIP3    H259999   2.173   2.630  12.101  0.4324 -0.1665  0.3258
12862TIP3   OH260000   1.811   1.024  15.754 -0.3265  0.6630 -0.1656
12862TIP3    H160001   1.753   0.957  15.717  0.3158 -0.6044  0.9916
12862TIP3    H260002   1.897   1.003  15.718  0.1720 -0.1501  1.3872
12863TIP3   OH260003   6.531   0.592   3.518  0.0117 -0.2046 -0.2753
12863TIP3    H160004   6.553   0.650   3.591 -2.7824 -0.1883  0.6913
12863TIP3    H260005   6.438   0.608   3.502 -0.0737 -2.1084 -2.1392
12864TIP3   OH260006   2.876   1.707  16.777  0.4833  0.3460 -0.1486
12864TIP3    H160007   2.949   1.648  16.796 -0.5588 -0.9459 -0.0570
12864TIP3    H260008   2.900   1.749  16.694  0.6606 -1.1875 -0.9025
12865TIP3   OH260009   0.917   2.192  11.991 -0.6209  0.0400  0.0173
12865TIP3    H160010   0.983   2.155  11.931  0.3975 -0.2112  1.2567
12865TIP3    H260011   0.869   2.254  11.936  0.8600  0.4806 -0.8701
12866TIP3   OH260012   0.988   6.042  14.173  0.0468 -0.0001 -0.5311
12866TIP3    H160013   1.079   6.017  14.159  0.4563  1.0317  0.1198
12866TIP3    H260014   0.979   6.126  14.128 -0.5482 -0.0392 -0.4938
12867TIP3   OH260015   0.002   1.352  15.931 -0.5374 -0.3697  0.3134
12867TIP3    H160016   0.012   1.365  16.025  0.1138  1.9096  0.0106
12867TIP3    H260017   0.092   1.353  15.897 -0.8306  1.5409 -0.5570
12868TIP3   OH260018   5.541   6.400   0.270  0.0411  0.2296 -0.1447
12868TIP3    H160019   5.511   6.313   0.295  0.5409  0.4549  1.3392
12868TIP3    H260020   5.527   6.404   0.175  0.2816 -1.5585 -0.2834
12869TIP3   OH260021   0.833   0.097  13.890  0.1650  0.3545  0.1256
12869TIP3    H160022   0.807   0.158  13.822  0.3563  0.1374 -0.1432
12869TIP3    H260023   0.900   0.043  13.850  0.7666  0.6614  0.6895
12870TIP3   OH260024   6.119   5.668  13.340 -0.0535 -0.1807  0.4997
12870TIP3    H160025   6.099   5.735  13.406  1.8563  0.7499  0.1994
12870TIP3    H260026   6.214   5.668  13.334 -0.1105  1.3240 -3.8066
12871TIP3   OH260027   1.978   5.389   4.706  0.1342 -0.1279 -0.5425
12871TIP3    H160028   1.946   5.339   4.781  1.3900  0.3026  0.3054
12871TIP3    H260029   1.899   5.423   4.664 -0.5639  0.1964  0.9919
12872TIP3   OH260030   4.459   5.158   2.555  0.6406  0.1309 -0.3688
12872TIP3    H160031   4.477   5.231   2.496 -2.2085  0.7130 -0.6601
12872TIP3    H260032   4.388   5.190   2.611 -0.4418 -2.2890 -0.2482
12873TIP3   OH260033   0.217   3.573  12.863  1.0211 -0.4231  0.4648
12873TIP3    H160034   0.211   3.487  12.905  1.5673 -0.5937  0.1990
12873TIP3    H260035   0.255   3.555  12.777  0.3694 -0.0168  0.0842
12874TIP3   OH260036   6.451   0.408  11.748 -0.0156 -0.0054  0.6160
12874TIP3    H160037   6.404   0.333  11.712 -0.4644  0.2940  0.5619
12874TIP3    H260038   6.401   0.484  11.718  0.1192  0.2889  1.1239
12875TIP3   OH260039   1.753   3.956   2.406  0.4651  0.2027 -0.2433
12875TIP3    H160040   1.675   3.915   2.368  0.0242  0.9577 -0.1675
12875TIP3    H260041   1.732   4.049   2.410  0.9632  0.2911  0.7492
12876TIP3   OH260042   3.169   1.440   4.351 -0.4153 -0.6382  0.7957
12876TIP3    H160043   3.212   1.523   4.374  1.0199 -0.3067 -2.5717
12876TIP3    H260044   3.201   1.378   4.416  3.4847  0.1522 -0.1391
12877TIP3   OH260045   6.231   6.689  17.024  0.3218  0.4426 -0.0584
12877TIP3    H160046   6.201   6.620  17.083 -0.9087  0.2073 -0.9347
12877TIP3    H260047   6.205   6.771  17.066 -0.4067  0.2806 -0.1917
12878TIP3   OH260048   2.858   1.831   4.323  0.6962 -0.2024 -0.1631
12878TIP3    H160049   2.948   1.857   4.306  0.1543  2.3963  0.5279
12878TIP3    H260050   2.809   1.859   4.246  0.4499 -1.6628 -0.5674
12879TIP3   OH260051   5.691   2.139   5.294 -0.0573 -0.3058  0.0247
12879TIP3    H160052   5.653   2.201   5.356 -0.9274 -2.0008  1.2308
12879TIP3    H260053   5.714   2.063   5.346  1.5541 -0.8053 -1.3272
12880TIP3   OH260054   4.744   6.068  15.227  1.0835  0.1641  0.3345
12880TIP3    H160055   4.708   6.006  15.290  0.1166  0.4861  0.1132
12880TIP3    H260056   4.691   6.147  15.237  1.9224  0.7611  0.2027
12881TIP3   OH260057   0.802   5.891   1.540 -0.2934  0.3070  0.5255
12881TIP3    H160058   0.780   5.861   1.629 -0.2667 -0.4284  0.2894
12881TIP3    H260059   0.879   5.946   1.552  0.4871 -0.8093  0.8241
12882TIP3   OH260060   1.712   1.949  11.580 -0.4657  0.1980  0.8278
12882TIP3    H160061   1.712   1.990  11.666 -0.2926  0.6713  0.6020
12882TIP3    H260062   1.620   1.945  11.555 -0.3707  2.2930 -0.0207
12883TIP3   OH260063   4.269   4.932  14.065  0.8356  0.2317  0.7763
12883TIP3    H160064   4.235   4.860  14.011  0.3341 -0.1379  1.5706
12883TIP3    H260065   4.318   4.986  14.003  1.8077 -1.1485  0.2713
12884TIP3   OH260066   4.187   5.908   0.161  0.4296 -0.1329 -0.3862
12884TIP3    H160067   4.229   5.940   0.241  0.8438 -0.2469 -0.5546
12884TIP3    H260068   4.105   5.957   0.156  0.5541  0.1167 -0.0692
12885TIP3   OH260069   5.127   1.005  12.422 -0.3820  0.4919 -0.4052
12885TIP3    H160070   5.082   1.088  12.439  3.3527  2.1182  3.1134
12885TIP3    H260071   5.200   1.028  12.365  0.5303 -0.3951  0.3662
12886TIP3   OH260072   1.413   5.876  17.143 -0.3237  0.0536  0.1762
12886TIP3    H160073   1.420   5.861  17.049  1.0014  1.8469 -0.0724
12886TIP3    H260074   1.465   5.955  17.159 -1.3610  0.3984  2.2623
12887TIP3   OH260075   4.497   5.769   4.887 -0.3713 -0.0508 -0.3943
12887TIP3    H160076   4.549   5.849   4.896 -0.0884 -0.1830 -0.8090
12887TIP3    H260077   4.516   5.719   4.967 -2.1421  1.1889  0.8569
12888TIP3   OH260078   2.895   0.421   0.741  0.2474 -0.0919 -0.1589
12888TIP3    H160079   2.841   0.453   0.669  1.1854 -1.2396 -1.4511
12888TIP3    H260080   2.863   0.467   0.818 -0.7528  1.2469 -1.3153
12889TIP3   OH260081   2.318   2.287   5.117  0.4639 -0.1671  0.0477
12889TIP3    H160082   2.272   2.368   5.140 -0.0398 -0.5825  0.5265
12889TIP3    H260083   2.358   2.305   5.032 -1.0034  0.0349 -0.6288
12890TIP3   OH260084   3.426   3.830  16.989 -0.0323 -0.1730 -0.0330
12890TIP3    H160085   3.372   3.764  16.945 -0.4295  0.1063  0.0288
12890TIP3    H260086   3.466   3.880  16.919  0.9132 -0.9809 -0.0943
12891TIP3   OH260087   6.038   1.193  13.838  0.3206 -0.2359 -0.3570
12891TIP3    H160088   5.983   1.197  13.760  1.3803  1.6161 -1.0894
12891TIP3    H260089   6.093   1.116  13.825  1.3105  0.6874 -2.0908
12892TIP3   OH260090   0.948   0.658   1.972 -0.2332  0.0304 -0.5165
12892TIP3    H160091   0.934   0.667   2.066  0.5654 -2.2001 -0.1230
12892TIP3    H260092   0.866   0.622   1.938 -0.9073  1.8224 -0.9054
12893TIP3   OH260093   2.266   6.298   3.893 -0.0082 -0.2919 -0.5599
12893TIP3    H160094   2.282   6.207   3.869  0.0074 -0.3392 -0.3701
12893TIP3    H260095   2.211   6.294   3.971  0.5960 -0.1530 -0.1132
12894TIP3   OH260096   4.393   2.905  12.297 -0.1460 -0.2690  0.1711
12894TIP3    H160097   4.303   2.921  12.325 -0.4122 -0.1855 -0.7224
12894TIP3    H260098   4.422   2.832  12.352 -0.9052 -0.5865  0.1637
12895TIP3   OH260099   4.504   4.259  11.832 -0.0708  0.0825 -0.0127
12895TIP3    H160100   4.464   4.343  11.813  0.7453  0.2548 -1.0710
12895TIP3    H260101   4.500   4.251  11.928  0.7177  1.7865  0.1991
12896TIP3   OH260102   3.005   4.759  11.255  0.7164 -0.6676  0.2192
12896TIP3    H160103   3.022   4.699  11.182 -1.2045 -0.5368 -0.4104
12896TIP3    H260104   2.910   4.755  11.267  0.8463  0.2941  1.8915
12897TIP3   OH260105   6.195   1.963  13.118  0.6238  0.0688 -0.1351
12897TIP3    H160106   6.218   2.043  13.071  0.7305  0.0317 -0.1454
12897TIP3    H260107   6.174   1.900  13.049  0.2580  0.1724 -0.1213
12898TIP3   OH260108   4.365   5.573  14.380  0.1418 -0.0293 -0.5227
12898TIP3    H160109   4.433   5.641  14.375  1.1447 -1.0176 -0.6849
12898TIP3    H260110   4.407   5.495  14.345 -0.9986 -0.7391 -0.3434
12899TIP3   OH260111   2.191   0.893   1.656 -0.1934  0.6692  0.0281
12899TIP3    H160112   2.172   0.920   1.745  0.9958  0.2876  0.4152
12899TIP3    H260113   2.281   0.861   1.659 -0.9547 -1.8022 -0.7343
12900TIP3   OH260114   4.882   6.376   2.542  0.7348 -0.0795 -0.2243
12900TIP3    H160115   4.861   6.469   2.545  1.7023  0.1303  0.7679
12900TIP3    H260116   4.833   6.343   2.467 -1.5742  0.7205  0.8390
12901TIP3   OH260117   5.788   5.699  11.313  0.5705  0.2750  0.0417
12901TIP3    H160118   5.836   5.661  11.239 -0.6556 -1.5278  0.1130
12901TIP3    H260119   5.811   5.644  11.388 -1.2041 -0.3638  0.1610
12902TIP3   OH260120   1.983   2.793   6.177  0.4286 -0.6695 -0.3043
12902TIP3    H160121   1.898   2.751   6.189 -0.2584  0.4298 -1.1512
12902TIP3    H260122   2.035   2.730   6.127 -0.4446 -0.6861 -1.2065
12903TIP3   OH260123   2.491   5.822  13.100  0.0218  0.3446  0.2627
12903TIP3    H160124   2.500   5.913  13.072  0.9135  0.7464  1.7921
12903TIP3    H260125   2.536   5.772  13.032  1.2548  1.2167  0.3982
12904TIP3   OH260126   3.917   0.254  13.147 -0.7324 -0.2990 -0.4150
12904TIP3    H160127   3.995   0.291  13.188  0.0325 -0.8968 -1.2786
12904TIP3    H260128   3.930   0.269  13.053 -1.0554 -1.5280 -0.6685
12905TIP3   OH260129   0.871   0.210  16.945  0.9091  0.1932 -0.7362
12905TIP3    H160130   0.841   0.125  16.913 -1.4940  0.0212  1.5724
12905TIP3    H260131   0.797   0.269  16.929  1.2776  1.0525  0.5635
12906TIP3   OH260132   3.813   2.288  16.703 -0.1959  0.5340 -0.1310
12906TIP3    H160133   3.873   2.308  16.775 -0.3075  0.5666 -0.0477
12906TIP3    H260134   3.733   2.258  16.746 -0.6774  1.6586 -0.2075
12907TIP3   OH260135   5.810   0.561   1.640 -0.6244  0.5595  0.4665
12907TIP3    H160136   5.897   0.531   1.664 -0.6414 -0.6645 -0.8568
12907TIP3    H260137   5.754   0.534   1.713  0.3543  3.1772  2.3098
12908TIP3   OH260138   4.517   3.311   0.715 -0.0550 -0.8654  0.0529
12908TIP3    H160139   4.423   3.329   0.715  0.1972  0.6263 -0.3595
12908TIP3    H260140   4.552   3.369   0.647  1.3513 -0.2313  1.2652
12909TIP3   OH260141   3.336   5.101   4.795  0.4990  0.1033  0.0957
12909TIP3    H160142   3.263   5.135   4.742  1.1021  0.8532 -0.2697
12909TIP3    H260143   3.382   5.041   4.736  0.9665  0.6724 -0.1290
12910TIP3   OH260144   6.773   2.392  10.822 -0.3598  0.0162 -0.0476
12910TIP3    H160145   6.706   2.422  10.762 -0.4633  1.8654  0.9308
12910TIP3    H260146   6.854   2.433  10.791 -0.1086 -0.3436  0.1212
12911TIP3   OH260147   2.764   5.061   6.335  0.8516  0.0438  0.2921
12911TIP3    H160148   2.759   5.048   6.430 -1.2472 -2.1487 -0.0086
12911TIP3    H260149   2.681   5.102   6.313  0.7031 -0.7669 -0.7202
12912TIP3   OH260150   3.357   2.906  14.760 -0.5435  0.3532  0.2076
12912TIP3    H160151   3.403   2.843  14.816  0.6879 -0.0681 -1.2130
12912TIP3    H260152   3.407   2.907  14.679 -2.7703  0.2525 -1.2698
12913TIP3   OH260153   6.255   1.898   1.677  0.6790  0.0297 -0.1787
12913TIP3    H160154   6.212   1.814   1.694  1.0814  0.0120  0.8141
12913TIP3    H260155   6.185   1.954   1.644  0.5340 -0.8687 -1.4725
12914TIP3   OH260156   5.039   5.692  15.132  0.0235 -0.3160  0.3111
12914TIP3    H160157   5.003   5.649  15.209  1.4657  0.3902  1.4236
12914TIP3    H260158   4.963   5.736  15.092 -0.6444 -0.1684  1.6735
12915TIP3   OH260159   5.703   6.672   3.843 -0.0714  0.0870  0.3263
12915TIP3    H160160   5.695   6.586   3.801  1.9945 -0.7027  1.3906
12915TIP3    H260161   5.783   6.709   3.804  0.7224  0.2098  1.9926
12916TIP3   OH260162   2.755   0.032   5.145 -0.0397  0.0951  0.1677
12916TIP3    H160163   2.759  -0.039   5.209 -1.7862 -2.2503 -2.1002
12916TIP3    H260164   2.756   0.112   5.197  3.3753 -1.4360  2.8189
12917TIP3   OH260165   0.462   1.397  12.129  0.3601 -0.3277 -0.2682
12917TIP3    H160166   0.433   1.339  12.058 -0.8052 -0.0987  0.0045
12917TIP3    H260167   0.526   1.454  12.088 -2.7762  2.1896 -2.1577
12918TIP3   OH260168   4.125   2.742   3.664 -0.6175 -0.4194  0.2357
12918TIP3    H160169   4.195   2.798   3.630  0.5328 -0.9977  1.5766
12918TIP3    H260170   4.070   2.800   3.716 -2.0756  0.3579 -1.9809
12919TIP3   OH260171   1.719   2.598   4.070  0.3008  0.1856  0.1926
12919TIP3    H160172   1.659   2.640   4.132  0.7698 -0.8056  1.3740
12919TIP3    H260173   1.676   2.607   3.985 -1.4384 -0.3348  0.9665
12920TIP3   OH260174   5.984   4.254   4.366 -0.8998  0.7539 -0.0544
12920TIP3    H160175   5.900   4.218   4.393 -0.1457 -1.4073 -0.3901
12920TIP3    H260176   6.043   4.237   4.440  0.2431 -1.7778 -1.4016
12921TIP3   OH260177   4.075   4.653   4.527 -0.2246 -0.1990 -0.1466
12921TIP3    H160178   4.134   4.648   4.603 -0.6653 -0.4746  0.1834
12921TIP3    H260179   3.989   4.629   4.562 -0.7984  1.3929 -0.3467
12922TIP3   OH260180   0.878   3.390  12.709 -0.3384 -0.4691  0.1137
12922TIP3    H160181   0.899   3.450  12.782  2.2276  0.0943 -0.9887
12922TIP3    H260182   0.909   3.435  12.631 -1.4938 -1.8050 -1.1829
12923TIP3   OH260183   4.177   2.827   1.742 -0.1010 -0.3401  0.0723
12923TIP3    H160184   4.198   2.917   1.718 -0.6949  0.4959  2.4288
12923TIP3    H260185   4.087   2.814   1.710 -1.6019  1.3971  3.1753
12924TIP3   OH260186   3.041   6.675   6.096  0.2020  0.5954 -0.0661
12924TIP3    H160187   3.054   6.737   6.168  0.5392  0.7187 -0.2296
12924TIP3    H260188   3.087   6.715   6.022  2.3640 -0.9049  0.3795
12925TIP3   OH260189   3.436   4.761   6.484  0.3025  0.0066 -0.4983
12925TIP3    H160190   3.359   4.718   6.448  0.5971 -0.1477 -0.9576
12925TIP3    H260191   3.457   4.711   6.563 -0.5421  0.5474  0.0859
12926TIP3   OH260192   5.262   6.618   1.939  0.2570 -0.0286 -0.1904
12926TIP3    H160193   5.284   6.615   2.032  1.6207 -0.9164 -0.5139
12926TIP3    H260194   5.347   6.614   1.894 -0.0911  3.7005 -1.4851
12927TIP3   OH260195   6.664   3.871  14.828  0.3366 -0.6504  0.6566
12927TIP3    H160196   6.606   3.820  14.771 -0.9348 -2.6150  3.4547
12927TIP3    H260197   6.699   3.940  14.771 -2.1590 -1.3635 -1.9983
12928TIP3   OH260198   5.495   4.488  12.314  0.3851 -0.0484 -0.7622
12928TIP3    H160199   5.423   4.493  12.377  2.2994 -0.9308  1.6809
12928TIP3    H260200   5.490   4.399  12.279  0.2779 -0.1059 -0.6011
12929TIP3   OH260201   5.163   3.804   4.695  0.2258  0.5427 -0.3111
12929TIP3    H160202   5.083   3.798   4.747  0.5665 -0.8334  0.0956
12929TIP3    H260203   5.188   3.897   4.699  0.2950  0.4703  2.0493
12930TIP3   OH260204   5.880   5.995   0.495  0.7753 -0.2876 -0.0181
12930TIP3    H160205   5.820   6.007   0.421  0.5611 -0.7566  0.0800
12930TIP3    H260206   5.967   6.001   0.455  0.7865  3.4419  0.2680
12931TIP3   OH260207   0.129   3.573   6.053 -0.3637 -0.6995  0.0333
12931TIP3    H160208   0.131   3.494   6.107  1.6225  0.0971  1.2099
12931TIP3    H260209   0.214   3.615   6.068 -1.3701  1.6869 -0.5273
12932TIP3   OH260210   2.019   1.548  15.963  0.0050  0.2908  0.0540
12932TIP3    H160211   1.956   1.484  15.998  1.0589 -0.8793 -0.1003
12932TIP3    H260212   2.000   1.550  15.869 -0.7782  1.0899  0.2160
12933TIP3   OH260213   5.686   3.247  11.833 -0.4520  0.0644 -0.3710
12933TIP3    H160214   5.710   3.158  11.810 -1.7864 -0.4986  0.3477
12933TIP3    H260215   5.721   3.259  11.921 -0.0216  0.3784 -0.5743
12934TIP3   OH260216   1.572   4.167   1.232 -0.3714  0.2213  0.0968
12934TIP3    H160217   1.504   4.233   1.223 -0.4086  0.0277 -1.2199
12934TIP3    H260218   1.553   4.104   1.162  0.8396 -0.1209  0.0636
12935TIP3   OH260219   3.877   2.485  13.023  0.2626  0.3850  0.2081
12935TIP3    H160220   3.944   2.535  13.070 -1.0144  2.2445  0.1472
12935TIP3    H260221   3.905   2.394  13.033  2.6897  1.0663  0.3163
12936TIP3   OH260222   0.566   2.612  12.012  0.4756 -0.0441  0.2097
12936TIP3    H160223   0.516   2.637  12.090  1.8730  1.9443  0.5294
12936TIP3    H260224   0.655   2.601  12.043  1.0035  0.4694 -1.0480
12937TIP3   OH260225   2.138   4.897   5.501  0.5199  0.0753 -0.2061
12937TIP3    H160226   2.131   4.984   5.461 -0.6081  0.3696  0.5641
12937TIP3    H260227   2.218   4.900   5.553  1.3785  0.0747 -1.4789
12938TIP3   OH260228   1.853   6.428   2.112 -0.0966  0.0972 -0.0736
12938TIP3    H160229   1.933   6.399   2.155  0.2941  2.1907  0.7425
12938TIP3    H260230   1.856   6.386   2.026  2.3052  0.7188 -0.3751
12939TIP3   OH260231   4.632   1.380   5.464 -0.2076  0.0128  0.2263
12939TIP3    H160232   4.601   1.469   5.480  1.4726  0.5520  0.6452
12939TIP3    H260233   4.590   1.355   5.381 -0.4457  1.3113 -0.0638
12940TIP3   OH260234   4.623   0.859   5.920 -0.0133 -0.5760  0.6123
12940TIP3    H160235   4.605   0.780   5.971 -0.1411 -1.7395 -1.1647
12940TIP3    H260236   4.698   0.899   5.964 -0.8833 -0.8452  2.4265
12941TIP3   OH260237   1.602   5.422   5.692 -0.6924 -0.1365 -0.8665
12941TIP3    H160238   1.602   5.513   5.721 -1.5667 -0.7842  1.4191
12941TIP3    H260239   1.685   5.412   5.645 -0.0214  1.5390 -0.1268
12942TIP3   OH260240   4.532   4.133  12.243 -0.0922  0.0675 -0.1931
12942TIP3    H160241   4.530   4.068  12.313 -0.2579 -0.3326 -0.5652
12942TIP3    H260242   4.539   4.082  12.163 -1.4014  0.4350 -0.5752
12943TIP3   OH260243   5.057   6.113   0.826 -1.1060 -0.5585  0.5824
12943TIP3    H160244   5.076   6.186   0.767  1.6363 -0.1690  1.7816
12943TIP3    H260245   5.071   6.149   0.914 -2.2945 -1.8636  1.3519
12944TIP3   OH260246   2.055   4.670   5.920  0.3518 -0.2048  0.1861
12944TIP3    H160247   2.073   4.677   5.826  0.8173 -0.0204  0.2852
12944TIP3    H260248   2.052   4.761   5.950  1.2568 -0.2861  0.5405
12945TIP3   OH260249   4.954   3.895   2.984  0.2670 -0.5980 -0.1014
12945TIP3    H160250   4.870   3.924   2.946  0.9377 -0.0686 -1.2553
12945TIP3    H260251   5.012   3.971   2.972  0.5620 -0.4648  1.9066
12946TIP3   OH260252   1.878   3.746  12.511  0.6592  0.0764 -0.3154
12946TIP3    H160253   1.897   3.698  12.591 -0.6080  0.2601  0.1172
12946TIP3    H260254   1.843   3.830  12.541 -1.2943 -0.4345 -1.0195
12947TIP3   OH260255   0.019   6.675  11.430 -0.0167  0.3134  0.1690
12947TIP3    H160256   0.043   6.702  11.341 -0.1967 -1.2114 -0.3783
12947TIP3    H260257   0.103   6.656  11.473  0.1250  1.8815  0.6349
12948TIP3   OH260258   0.662   0.242  15.947 -0.4602  0.3235  0.1582
12948TIP3    H160259   0.619   0.161  15.919 -0.3068  0.6706 -1.1589
12948TIP3    H260260   0.589   0.298  15.975 -0.4762 -0.7353  2.5308
12949TIP3   OH260261   3.519   2.082   0.300 -0.1874  0.0168 -0.2892
12949TIP3    H160262   3.453   2.150   0.290  0.9655  0.9626 -2.0622
12949TIP3    H260263   3.488   2.029   0.373 -1.1891  2.3735  1.1193
12950TIP3   OH260264   5.852   2.802   2.432  0.1191  0.1873 -0.1638
12950TIP3    H160265   5.867   2.708   2.420 -1.0747 -0.0646  0.1728
12950TIP3    H260266   5.848   2.838   2.344 -0.4935 -0.2655 -0.3246
12951TIP3   OH260267   6.747   6.606   1.755 -0.2629  0.1753  0.1500
12951TIP3    H160268   6.808   6.595   1.682 -0.1858  0.2395  0.2050
12951TIP3    H260269   6.704   6.690   1.738 -1.0590 -0.3287 -0.4245
12952TIP3   OH260270   6.505   1.478   0.792 -0.1062 -0.7575 -0.3946
12952TIP3    H160271   6.521   1.540   0.720  2.1091  2.3843  2.4380
12952TIP3    H260272   6.590   1.435   0.805  0.2143  0.3460  1.5691
12953TIP3   OH260273   4.929   5.635  12.844  0.3602 -0.6033  0.5165
12953TIP3    H160274   4.854   5.679  12.884 -0.6393 -1.4201 -0.3917
12953TIP3    H260275   5.003   5.658  12.900 -0.7763 -0.7722  2.1670
12954TIP3   OH260276   3.492   6.179  13.014 -0.0369  0.5267 -0.3380
12954TIP3    H160277   3.406   6.215  13.036  0.6799  1.6844  0.7217
12954TIP3    H260278   3.502   6.105  13.074  0.2054  1.1518  0.4068
12955TIP3   OH260279   4.948   3.084  11.310  0.0997 -0.8435 -0.2413
12955TIP3    H160280   4.912   2.996  11.299  0.1449 -0.7317 -1.4776
12955TIP3    H260281   4.878   3.142  11.278  0.1193 -0.4337  0.4422
12956TIP3   OH260282   2.217   3.937   3.967  0.3192  0.8066 -0.3296
12956TIP3    H160283   2.196   3.850   4.001  0.6703  1.0781  0.6233
12956TIP3    H260284   2.282   3.972   4.029  1.9685  0.8299 -1.9764
12957TIP3   OH260285   4.584   2.508   1.098 -0.0273  0.0031 -0.1502
12957TIP3    H160286   4.572   2.418   1.067 -1.3370 -0.0844  0.5307
12957TIP3    H260287   4.559   2.563   1.024  2.2982 -0.1470 -1.1164
12958TIP3   OH260288   6.101   2.498   0.250  0.1367 -0.2426 -0.2799
12958TIP3    H160289   6.136   2.514   0.162 -1.1206  1.9582 -0.4505
12958TIP3    H260290   6.174   2.517   0.309  0.1633  1.1607 -0.7425
12959TIP3   OH260291   4.525   4.760  15.445  0.2177  0.1133  0.3093
12959TIP3    H160292   4.531   4.837  15.387  0.1623  0.0187  0.1778
12959TIP3    H260293   4.598   4.704  15.417 -0.0758 -0.1323  0.0392
12960TIP3   OH260294   1.923   2.811   0.272 -0.4757 -0.1961 -0.6875
12960TIP3    H160295   1.935   2.810   0.367  1.5334  0.8299 -0.8592
12960TIP3    H260296   1.954   2.725   0.243 -0.8255 -0.4067 -0.4425
12961TIP3   OH260297   3.427   1.121  11.701  0.2739 -0.0323 -0.7985
12961TIP3    H160298   3.419   1.213  11.674  1.2113  0.0681 -0.7870
12961TIP3    H260299   3.520   1.102  11.690 -0.0092 -1.1621 -1.3722
12962TIP3   OH260300   4.147   2.204  12.219  0.5683 -0.2717  0.3331
12962TIP3    H160301   4.110   2.195  12.307  1.5050 -1.2486  0.6423
12962TIP3    H260302   4.199   2.125  12.207 -1.0793 -1.1059 -1.8561
12963TIP3   OH260303   2.107   4.706  15.574  0.0361 -0.4938 -0.4263
12963TIP3    H160304   2.116   4.740  15.663 -0.0184  0.9460 -0.9439
12963TIP3    H260305   2.196   4.688  15.546  0.2364  0.8879 -0.7463
12964TIP3   OH260306   5.329   3.412   5.058 -0.0994 -0.3833 -0.1564
12964TIP3    H160307   5.384   3.335   5.048  0.8470  0.4474 -1.7590
12964TIP3    H260308   5.325   3.450   4.970 -2.2817  0.2381  0.1669
12965TIP3   OH260309   6.619   4.249  10.794  0.2242  0.0465  0.5640
12965TIP3    H160310   6.647   4.181  10.733 -0.8027 -0.1347  0.2843
12965TIP3    H260311   6.603   4.326  10.739  0.1895  0.1559  0.7260
12966TIP3   OH260312   5.435   5.237  13.354  0.0970 -0.0963 -0.4329
12966TIP3    H160313   5.487   5.209  13.280 -0.4010 -1.1780 -0.3973
12966TIP3    H260314   5.402   5.324  13.330  1.4632  0.3873 -0.6598
12967TIP3   OH260315   0.840   6.182  17.210  0.1319  0.1889  0.1397
12967TIP3    H160316   0.882   6.166  17.294  1.0641 -0.6396 -0.4655
12967TIP3    H260317   0.800   6.098  17.187  1.3553 -0.1042 -1.0320
12968TIP3   OH260318   1.258   1.757   2.641  0.0591  0.2050  0.0738
12968TIP3    H160319   1.317   1.770   2.567  0.9868  0.4033  0.8178
12968TIP3    H260320   1.316   1.732   2.713 -0.5466  1.8916  1.2253
12969TIP3   OH260321   2.277   5.576  17.045 -0.2105 -0.1933  0.1321
12969TIP3    H160322   2.361   5.616  17.068  0.2298 -2.1424  2.2280
12969TIP3    H260323   2.229   5.570  17.127 -2.2034  0.3342 -0.9322
12970TIP3   OH260324   0.383   5.923   3.281 -0.4005  0.1879  0.1860
12970TIP3    H160325   0.416   5.886   3.198  0.0673 -2.3462  1.3929
12970TIP3    H260326   0.449   5.987   3.307  1.6582 -1.9679  0.5948
12971TIP3   OH260327   5.842   6.745  12.664 -0.3162 -0.2058  0.3438
12971TIP3    H160328   5.796   6.674  12.710  0.2251 -0.9186 -0.1850
12971TIP3    H260329   5.899   6.784  12.731 -1.3506  0.4066  0.8934
12972TIP3   OH260330   1.102   5.304   5.208 -0.3125  0.5578 -0.1109
12972TIP3    H160331   1.030   5.368   5.213 -0.6520  0.5505 -2.9030
12972TIP3    H260332   1.147   5.327   5.127  0.9456 -1.3870 -0.0099
12973TIP3   OH260333   4.851   6.224  11.639  0.1872 -0.1091 -0.6273
12973TIP3    H160334   4.781   6.194  11.696  0.9924  0.2265  0.5636
12973TIP3    H260335   4.851   6.319  11.649  3.1697 -0.2286  2.3666
12974TIP3   OH260336   3.808   2.949  12.733  0.2405 -0.3368 -0.2396
12974TIP3    H160337   3.744   2.935  12.664  0.6952 -0.8137 -0.5792
12974TIP3    H260338   3.850   3.032  12.711 -1.7634  1.1527  1.2137
12975TIP3   OH260339   1.400   2.498  16.569 -0.0217  0.0238 -0.1184
12975TIP3    H160340   1.426   2.541  16.487  0.2156  1.4045  0.6435
12975TIP3    H260341   1.461   2.424  16.577  1.2178  0.9861 -0.2549
12976TIP3   OH260342   1.613   4.993  11.629 -0.0803  0.2050  0.0740
12976TIP3    H160343   1.653   4.944  11.558 -2.8743 -1.4337 -0.4901
12976TIP3    H260344   1.601   5.081  11.594  1.5096  0.3337 -0.2467
12977TIP3   OH260345   3.196   2.760  15.400 -0.0422  0.8767 -0.2711
12977TIP3    H160346   3.205   2.697  15.472  1.3232  0.2457 -0.9647
12977TIP3    H260347   3.164   2.840  15.443  0.2868  0.3722  0.9730
12978TIP3   OH260348   4.008   4.042   0.594 -0.8059 -0.6846  0.2702
12978TIP3    H160349   3.962   3.958   0.598 -0.8055 -0.8494 -1.9554
12978TIP3    H260350   3.945   4.101   0.554  0.3075 -0.4997 -1.3021
12979TIP3   OH260351   3.443   2.865   4.004  0.0268 -0.1024  0.0924
12979TIP3    H160352   3.402   2.952   4.012  0.6236  0.1180  0.7911
12979TIP3    H260353   3.454   2.835   4.094 -1.1877 -1.4016 -0.1519
12980TIP3   OH260354   3.608   3.285  13.818 -0.4228  0.1711 -0.2283
12980TIP3    H160355   3.659   3.312  13.894  0.2267  1.2030 -1.0049
12980TIP3    H260356   3.525   3.255  13.855  0.7231 -1.5888  1.0597
12981TIP3   OH260357   5.163   1.011   3.672  0.5974 -0.1452  0.4354
12981TIP3    H160358   5.107   1.013   3.750  1.1677 -1.1948  0.8928
12981TIP3    H260359   5.238   0.957   3.698  1.2334  0.2275 -0.5574
12982TIP3   OH260360   6.755   3.791   1.362 -0.1885 -0.4746 -0.4409
12982TIP3    H160361   6.675   3.840   1.382  1.9289  1.9645  3.1913
12982TIP3    H260362   6.743   3.707   1.406 -0.7125 -0.1024  0.1433
12983TIP3   OH260363   6.575   0.072   1.677 -0.4888  0.0026 -0.5628
12983TIP3    H160364   6.484   0.093   1.654 -0.4596  0.3677 -0.3598
12983TIP3    H260365   6.627   0.110   1.606 -0.4843 -0.0595 -0.5929
12984TIP3   OH260366   1.890   6.714  16.263  0.0039 -0.6937 -0.7553
12984TIP3    H160367   1.889   6.733  16.357 -1.5933  0.3547 -0.9271
12984TIP3    H260368   1.968   6.759  16.231  0.5756 -1.0726  0.0715
12985TIP3   OH260369   0.710   6.634  16.571 -0.0398 -0.1338  0.6621
12985TIP3    H160370   0.656   6.589  16.507 -1.1156  1.5222  0.3405
12985TIP3    H260371   0.725   6.721  16.533  2.9184 -0.5007  0.7176
12986TIP3   OH260372   1.325   2.338  11.999  0.3670 -0.0156  0.8885
12986TIP3    H160373   1.249   2.395  12.006  0.5329  0.0853  2.0769
12986TIP3    H260374   1.351   2.322  12.089 -1.0609 -3.8538  0.8142
12987TIP3   OH260375   5.796   0.220  14.122 -0.3787  0.2448  0.1775
12987TIP3    H160376   5.731   0.283  14.090  0.4740  0.9516 -0.1791
12987TIP3    H260377   5.846   0.269  14.187 -0.6737 -0.5246  1.0036
12988TIP3   OH260378   0.693   1.366   6.521  0.4779  0.7377 -0.2238
12988TIP3    H160379   0.748   1.440   6.545  1.0524  0.6576 -1.2192
12988TIP3    H260380   0.625   1.403   6.465  0.9818  0.4706 -1.0256
12989TIP3   OH260381   6.086   1.765  12.938 -0.1519  0.1516 -0.3121
12989TIP3    H160382   6.145   1.692  12.951  0.0228  0.6694  2.3135
12989TIP3    H260383   6.126   1.817  12.868  0.4854 -1.4306 -1.1616
12990TIP3   OH260384   1.055   4.592  15.659 -0.3977 -0.7782  0.7221
12990TIP3    H160385   0.990   4.603  15.589 -0.0445 -2.3878  0.0994
12990TIP3    H260386   1.139   4.587  15.614 -0.1345 -1.5621  1.2747
12991TIP3   OH260387   5.831   6.655   5.812  0.1136  0.2403 -0.4147
12991TIP3    H160388   5.877   6.702   5.742  0.0432 -0.6094 -1.0456
12991TIP3    H260389   5.850   6.705   5.891 -0.7930  1.9485 -1.2046
12992TIP3   OH260390   3.563   0.412   4.847 -0.6740 -0.0705 -0.1576
12992TIP3    H160391   3.522   0.375   4.925  1.5400  1.2506  1.7674
12992TIP3    H260392   3.654   0.428   4.872  0.3952 -0.4054 -3.3324
12993TIP3   OH260393   2.738   1.102  12.709  0.0044  0.3981  0.4556
12993TIP3    H160394   2.703   1.017  12.736 -0.7378  0.1399 -1.1897
12993TIP3    H260395   2.675   1.166  12.743 -1.0279  0.0634 -0.7290
12994TIP3   OH260396   3.524   4.509   6.290  0.0655 -0.1521 -0.2161
12994TIP3    H160397   3.472   4.479   6.364  1.0832 -0.3031  0.4624
12994TIP3    H260398   3.523   4.605   6.297 -0.9554 -0.1030 -0.8156
12995TIP3   OH260399   6.247   2.560  14.192 -0.4052 -0.2031  0.3222
12995TIP3    H160400   6.266   2.556  14.099 -1.1767  2.6694 -0.0720
12995TIP3    H260401   6.329   2.535  14.235  0.4370 -0.0567 -1.1493
12996TIP3   OH260402   3.774   1.554  15.053  0.0831 -1.1009 -0.1798
12996TIP3    H160403   3.838   1.548  15.124 -0.6375 -0.6026  0.5488
12996TIP3    H260404   3.691   1.528  15.094 -0.0505 -2.5991 -1.3267
12997TIP3   OH260405   1.772   2.894  11.740 -0.1090 -0.4627 -0.1728
12997TIP3    H160406   1.737   2.896  11.829 -0.9355 -3.1250 -0.3688
12997TIP3    H260407   1.695   2.905  11.684  0.2618  0.0393 -0.5943
12998TIP3   OH260408   6.260   6.748  12.622  0.7138  0.3329 -0.5047
12998TIP3    H160409   6.293   6.819  12.677  1.6674 -0.4100 -0.0860
12998TIP3    H260410   6.194   6.704  12.675 -0.8227  1.6430 -1.2355
12999TIP3   OH260411   3.274   5.199  11.829 -0.1823  0.1163 -0.2424
12999TIP3    H160412   3.290   5.151  11.747 -0.3671 -0.1398 -0.1258
12999TIP3    H260413   3.208   5.265  11.805 -0.8250 -0.4714 -0.1108
13000TIP3   OH260414   1.913   1.961   0.996  0.2052  0.2938  0.4401
13000TIP3    H160415   1.855   2.000   0.930  0.5140  0.2967  0.1707
13000TIP3    H260416   1.904   2.018   1.072 -0.2486  0.2196  0.4468
13001TIP3   OH260417   3.268   1.855  14.655 -0.0176  0.3687 -0.4627
13001TIP3    H160418   3.308   1.781  14.610 -1.6442 -0.1289 -1.1498
13001TIP3    H260419   3.213   1.897  14.589 -3.8487 -1.3770  1.2434
13002TIP3   OH260420   0.561   2.371  16.362 -0.0987 -0.5437 -0.6541
13002TIP3    H160421   0.596   2.359  16.451  0.6591 -0.6493 -0.9575
13002TIP3    H260422   0.543   2.465  16.356  2.4747 -0.0027 -1.2893
13003TIP3   OH260423   3.715   4.650  14.242  0.6948  0.9075  0.1239
13003TIP3    H160424   3.654   4.722  14.223  0.2363  0.0551 -1.8117
13003TIP3    H260425   3.780   4.655  14.172 -0.5826 -1.8662 -1.4070
13004TIP3   OH260426   5.687   3.133   1.616  0.5362  0.2714  0.5657
13004TIP3    H160427   5.596   3.107   1.605  0.4267  1.0897 -0.6719
13004TIP3    H260428   5.720   3.146   1.527  1.2012  2.1641  1.0226
13005TIP3   OH260429   6.744   0.082   6.056  0.5401  0.4725 -0.1492
13005TIP3    H160430   6.741   0.107   5.964 -2.2503  1.5701  0.1478
13005TIP3    H260431   6.664   0.032   6.071  0.1553  1.5856  1.9795
13006TIP3   OH260432   1.130   3.697   4.097 -0.1912 -0.0556  0.1068
13006TIP3    H160433   1.162   3.787   4.086  1.5984 -0.3028  2.4485
13006TIP3    H260434   1.056   3.704   4.157  0.6257 -0.1873  1.1661
13007TIP3   OH260435   5.917   0.799  12.921  0.1446  0.2682 -0.2271
13007TIP3    H160436   5.866   0.725  12.886  0.6175  0.4020 -1.2283
13007TIP3    H260437   5.925   0.780  13.014  0.1421 -0.8812 -0.4427
13008TIP3   OH260438   5.967   1.925   5.646  0.3696 -0.0578 -0.4693
13008TIP3    H160439   6.011   1.952   5.726  0.6810 -0.0412 -0.6479
13008TIP3    H260440   5.969   1.829   5.648  2.3163 -0.1000 -1.5085
13009TIP3   OH260441   0.696   3.675  12.419 -0.3562 -0.0175 -0.3403
13009TIP3    H160442   0.640   3.752  12.412 -0.9067 -0.4521 -0.7972
13009TIP3    H260443   0.725   3.658  12.329  1.8768  1.1812  0.0721
13010TIP3   OH260444   0.718   0.372   6.071  0.2153  0.3155  0.4110
13010TIP3    H160445   0.708   0.294   6.124 -0.3642 -0.8495 -1.3487
13010TIP3    H260446   0.795   0.416   6.109  0.5769 -1.0973  1.4138
13011TIP3   OH260447   2.799   4.624   3.898  0.5383  0.0381 -0.8322
13011TIP3    H160448   2.728   4.561   3.912  0.0924  0.7174  0.0231
13011TIP3    H260449   2.761   4.689   3.838  0.5141  0.2808 -0.5531
13012TIP3   OH260450   3.705   1.727  16.691 -0.6797  0.1965 -0.5714
13012TIP3    H160451   3.797   1.701  16.699 -0.8402 -0.3524 -0.4380
13012TIP3    H260452   3.669   1.668  16.625 -0.5113  1.6044 -1.9881
13013TIP3   OH260453   5.230   2.542  15.413 -0.2002  0.1945  0.3067
13013TIP3    H160454   5.175   2.498  15.478 -2.9857  3.8970  0.7392
13013TIP3    H260455   5.177   2.543  15.333  0.5360  1.1765 -0.1901
13014TIP3   OH260456   0.379   4.255  16.472 -0.4577  0.1777 -0.0422
13014TIP3    H160457   0.417   4.215  16.550  0.6569  2.3075  0.5924
13014TIP3    H260458   0.402   4.196  16.401 -0.9050 -1.4608  1.1045
13015TIP3   OH260459   2.038   1.909  12.312 -0.1142 -0.7515  0.1282
13015TIP3    H160460   2.114   1.875  12.359  1.5408  1.5305 -0.7137
13015TIP3    H260461   2.059   1.894  12.219 -0.2440  0.6856 -0.1541
13016TIP3   OH260462   6.383   6.500   2.606  0.2453  0.0076  0.4896
13016TIP3    H160463   6.467   6.470   2.572  1.0203  2.0072  0.4833
13016TIP3    H260464   6.406   6.551   2.684 -0.8788  1.2217  0.0578
13017TIP3   OH260465   2.964   5.625   5.211 -0.2624 -0.4446  0.4961
13017TIP3    H160466   2.921   5.577   5.282 -1.5157  1.6186  1.2107
13017TIP3    H260467   2.893   5.651   5.153  0.6626 -1.3815 -1.1098
13018TIP3   OH260468   4.441   1.475  15.367 -0.3638 -0.5925 -0.0508
13018TIP3    H160469   4.488   1.405  15.323 -0.1020 -0.9530  0.7978
13018TIP3    H260470   4.496   1.553  15.353 -0.4045 -0.6528 -0.5607
13019TIP3   OH260471   6.435   4.109   2.240 -0.1403 -0.5232 -0.6104
13019TIP3    H160472   6.487   4.156   2.305 -0.1020 -0.8580 -0.3961
13019TIP3    H260473   6.443   4.162   2.160 -1.3296  0.6564  0.0070
13020TIP3   OH260474   4.469   6.039  12.837  0.0804  0.3158 -0.1962
13020TIP3    H160475   4.383   6.061  12.874  1.3071  1.0267  2.5188
13020TIP3    H260476   4.490   5.954  12.874  1.8249  1.5266  1.8849
13021TIP3   OH260477   6.424   6.079   3.321 -0.0477 -0.1936 -0.5768
13021TIP3    H160478   6.352   6.043   3.270  0.9782 -1.1753 -1.3826
13021TIP3    H260479   6.462   6.147   3.265  2.5492 -2.8380 -2.2712
13022TIP3   OH260480   2.005   3.466  17.129 -0.5700  0.3348  0.3116
13022TIP3    H160481   1.916   3.442  17.156 -0.5299  0.0565  0.1964
13022TIP3    H260482   2.019   3.553  17.167 -0.2585 -0.3257  1.7739
13023TIP3   OH260483   6.556   3.827   5.108  0.4343 -0.2276 -0.2274
13023TIP3    H160484   6.491   3.757   5.116  1.9309 -1.6290  0.1666
13023TIP3    H260485   6.639   3.786   5.135  1.1322  2.0671  1.4000
13024TIP3   OH260486   5.938   5.486  11.073 -0.3316 -0.0860  0.3013
13024TIP3    H160487   5.926   5.392  11.061 -0.4650 -0.1205  0.6830
13024TIP3    H260488   6.031   5.496  11.092  0.0417  0.0542 -1.4943
13025TIP3   OH260489   1.725   5.790   5.403  0.0041 -0.2315  0.0819
13025TIP3    H160490   1.688   5.789   5.491  1.2041  1.3169  0.6679
13025TIP3    H260491   1.685   5.715   5.359  0.2702 -1.7781  2.3017
13026TIP3   OH260492   1.920   5.575   3.747 -0.1023 -0.5375  0.3751
13026TIP3    H160493   1.835   5.533   3.737 -0.1350 -0.6583  1.1081
13026TIP3    H260494   1.905   5.646   3.810 -0.4167  1.6819 -2.0330
13027TIP3   OH260495   5.400   3.853   2.738  0.0888 -0.0537 -0.2555
13027TIP3    H160496   5.393   3.818   2.827 -2.5924 -1.2498 -0.8590
13027TIP3    H260497   5.336   3.924   2.735  0.0746 -0.0920 -1.2598
13028TIP3   OH260498   4.469   1.153  12.614  0.0431  0.1770  0.4027
13028TIP3    H160499   4.473   1.218  12.684 -1.3420 -0.0195  0.6914
13028TIP3    H260500   4.469   1.069  12.660 -0.1234  0.0237  0.1255
13029TIP3   OH260501   4.511   4.655   2.998  0.1474 -0.2363 -0.3291
13029TIP3    H160502   4.518   4.620   2.909  0.4694  0.0426 -0.4138
13029TIP3    H260503   4.423   4.629   3.027 -0.4348  0.7199 -1.1789
13030TIP3   OH260504   1.099   3.788  14.526 -0.0936  0.0966  0.4878
13030TIP3    H160505   1.186   3.768  14.560  0.4981 -1.1278 -1.5900
13030TIP3    H260506   1.040   3.735  14.579  0.6140 -0.5401  0.6610
13031TIP3   OH260507   4.327   6.033   4.244 -0.3146  0.3639  0.1448
13031TIP3    H160508   4.238   6.068   4.246 -0.4237  0.0600  0.6592
13031TIP3    H260509   4.383   6.111   4.252 -0.5046  0.6430 -1.0302
13032TIP3   OH260510   4.476   2.391   4.801  0.1658  0.1583  0.1963
13032TIP3    H160511   4.466   2.320   4.737 -0.3250  0.2598  0.1595
13032TIP3    H260512   4.412   2.457   4.773  0.5966  0.6012  0.2491
13033TIP3   OH260513   3.904   3.761  14.264 -0.1499 -0.2255 -0.2046
13033TIP3    H160514   3.810   3.752  14.280 -0.3077  2.2715  0.7066
13033TIP3    H260515   3.945   3.722  14.340 -0.4619 -0.7765 -0.3146
13034TIP3   OH260516   6.089   3.457   2.697  0.3740 -0.2587 -0.4762
13034TIP3    H160517   6.007   3.496   2.726  0.0024 -2.0597  1.1578
13034TIP3    H260518   6.066   3.408   2.618  0.5919  1.6705 -1.8114
13035TIP3   OH260519   0.089   2.565  15.419 -0.2073  0.1055  0.2283
13035TIP3    H160520   0.133   2.649  15.429  0.6958 -0.3276 -0.0194
13035TIP3    H260521   0.150   2.502  15.456 -0.2828 -0.6012 -0.8106
13036TIP3   OH260522   4.923   6.082   2.102 -0.2037  0.3861  0.1784
13036TIP3    H160523   4.923   6.175   2.077 -0.5418 -0.2878 -2.5545
13036TIP3    H260524   4.994   6.043   2.051 -0.5714 -1.0244  0.7072
13037TIP3   OH260525   5.458   4.260  12.122 -0.4053 -0.0214 -0.0656
13037TIP3    H160526   5.544   4.263  12.079 -0.5349  0.1217 -0.3170
13037TIP3    H260527   5.395   4.264  12.050 -0.6246 -0.7377  0.0772
13038TIP3   OH260528   0.997   2.942   6.235 -0.0160 -0.1930  0.1383
13038TIP3    H160529   0.996   3.019   6.179 -0.0406 -1.0894 -1.1290
13038TIP3    H260530   0.980   2.976   6.323  0.6489  1.3116 -0.2902
13039TIP3   OH260531   3.010   4.969  15.132 -0.4625  0.3486 -0.5699
13039TIP3    H160532   2.964   4.887  15.151  1.7720 -0.8544 -0.1061
13039TIP3    H260533   2.947   5.020  15.080 -2.2794 -1.2151 -0.0024
13040TIP3   OH260534   5.182   5.877   3.882  0.2885  0.5191  0.0191
13040TIP3    H160535   5.227   5.884   3.798 -0.7717 -0.9383 -0.7182
13040TIP3    H260536   5.251   5.848   3.943  0.5593 -0.9416 -0.9202
13041TIP3   OH260537   6.590   0.525  15.331  0.3495  0.0591 -0.0534
13041TIP3    H160538   6.616   0.570  15.251 -0.9811  0.1015 -0.4871
13041TIP3    H260539   6.495   0.536  15.335  0.5087  1.0794  2.1677
13042TIP3   OH260540   2.379   0.905   4.930 -0.2183 -0.4637 -0.5295
13042TIP3    H160541   2.301   0.949   4.964 -0.2619 -1.3718  0.6303
13042TIP3    H260542   2.354   0.813   4.925  0.3363 -0.5711 -1.4979
13043TIP3   OH260543   3.546   3.925   5.558 -0.3660 -0.0954 -0.1578
13043TIP3    H160544   3.551   3.859   5.488 -0.5770 -1.2250  0.8627
13043TIP3    H260545   3.455   3.955   5.556 -0.2779  0.1518 -0.6060
13044TIP3   OH260546   3.947   3.386  11.485 -0.2213 -0.8261  0.1914
13044TIP3    H160547   3.873   3.326  11.484 -0.7209 -0.2284 -1.0042
13044TIP3    H260548   3.908   3.473  11.476  0.5946 -0.4823 -0.1615
13045TIP3   OH260549   1.543   0.878  16.675  0.3813 -0.1240  0.3036
13045TIP3    H160550   1.470   0.839  16.724 -0.0696 -1.0931 -1.0709
13045TIP3    H260551   1.505   0.955  16.633  0.1764 -0.5004 -0.2261
13046TIP3   OH260552   1.747   1.685  11.366 -0.4882  0.1227 -0.7437
13046TIP3    H160553   1.654   1.704  11.378 -0.3904  0.6647 -0.8538
13046TIP3    H260554   1.750   1.590  11.355 -0.7721 -0.2485  1.8163
13047TIP3   OH260555   5.269   5.622  16.723  0.0780  0.1228  0.2111
13047TIP3    H160556   5.284   5.536  16.682 -0.5035  0.6313 -1.1378
13047TIP3    H260557   5.278   5.684  16.651 -2.0288  0.9776  0.6257
13048TIP3   OH260558   0.977   4.347  11.281  0.0626  0.0025 -0.3028
13048TIP3    H160559   0.968   4.378  11.191  1.0856  2.7383  0.4403
13048TIP3    H260560   1.048   4.400  11.317  0.2256 -1.5992  1.9022
13049TIP3   OH260561   6.238   1.777  14.219  0.3651  0.0461 -0.2497
13049TIP3    H160562   6.219   1.797  14.127 -0.5847 -1.4224 -0.4019
13049TIP3    H260563   6.330   1.800  14.230  0.3893  0.6217 -1.4534
13050TIP3   OH260564   0.886   0.137   4.074  0.2677  0.3547  0.1282
13050TIP3    H160565   0.902   0.228   4.047 -1.8254  0.4779 -0.9084
13050TIP3    H260566   0.829   0.145   4.150 -1.7229 -0.0351 -1.2443
13051TIP3   OH260567   0.624   5.819  12.447 -0.0669  0.2251  0.2963
13051TIP3    H160568   0.681   5.752  12.484  0.0265  0.7958  1.2165
13051TIP3    H260569   0.683   5.877  12.398 -0.0269  0.1441  0.2483
13052TIP3   OH260570   4.815   5.605  14.471  0.0618 -0.0760 -0.5208
13052TIP3    H160571   4.803   5.514  14.444 -0.3082 -0.0250 -0.5244
13052TIP3    H260572   4.775   5.610  14.557 -0.2957  0.1870 -0.7009
13053TIP3   OH260573   2.691   2.215   0.348 -0.3645  0.2916 -0.2708
13053TIP3    H160574   2.754   2.168   0.293 -0.6370  0.4119 -0.6895
13053TIP3    H260575   2.606   2.193   0.311 -0.7912 -1.6724  1.6075
13054TIP3   OH260576   5.922   4.609   3.088  0.0257  0.8450  0.1189
13054TIP3    H160577   5.971   4.652   3.159 -0.9704  2.0080  0.1273
13054TIP3    H260578   5.831   4.628   3.108 -0.5329 -1.8064  0.4441
13055TIP3   OH260579   1.181   1.289   5.399  0.1494 -0.0818  0.6938
13055TIP3    H160580   1.192   1.360   5.461  1.3468 -0.6363  1.1506
13055TIP3    H260581   1.224   1.320   5.319 -0.8160  0.3720  0.3445
13056TIP3   OH260582   2.635   6.016  14.726 -0.4531 -0.2671  0.4329
13056TIP3    H160583   2.598   6.036  14.812 -0.6971  1.5687 -0.0474
13056TIP3    H260584   2.727   6.044  14.733 -0.7069  0.7755 -0.1557
13057TIP3   OH260585   1.437   1.602  13.043  0.0390  0.1022  0.0530
13057TIP3    H160586   1.480   1.568  12.964 -0.8166 -0.1114 -0.3261
13057TIP3    H260587   1.408   1.524  13.089 -0.7006  0.2639 -0.1259
13058TIP3   OH260588   1.512   3.204   3.894  0.5010 -0.5584 -0.4572
13058TIP3    H160589   1.464   3.200   3.811  1.1137  0.6763 -0.9011
13058TIP3    H260590   1.446   3.230   3.959  0.4518  0.7271 -0.9901
13059TIP3   OH260591   5.574   1.288   0.611 -0.3028  0.3098  0.5537
13059TIP3    H160592   5.535   1.367   0.576 -2.2231 -0.9739 -0.3306
13059TIP3    H260593   5.597   1.311   0.701 -2.0306  1.4915  0.7385
13060TIP3   OH260594   0.496   5.579  15.992 -0.2278  0.6005  0.6546
13060TIP3    H160595   0.584   5.617  15.995 -0.0518  0.1639  1.3877
13060TIP3    H260596   0.509   5.494  15.949  0.2462 -0.7440  3.2446
13061TIP3   OH260597   1.614   5.037   3.162  0.7406  0.6213 -0.0007
13061TIP3    H160598   1.609   4.953   3.118  0.0511 -0.1679  1.4958
13061TIP3    H260599   1.699   5.073   3.136  0.5846 -0.0215 -1.5115
13062TIP3   OH260600   5.995   0.370  13.201 -0.4002 -0.3159 -1.0855
13062TIP3    H160601   6.058   0.298  13.207  0.4460  0.3890 -1.1670
13062TIP3    H260602   5.957   0.377  13.288  1.4383  0.7855 -0.2959
13063TIP3   OH260603   4.214   3.318  12.158 -0.3120  0.0786  1.0214
13063TIP3    H160604   4.300   3.296  12.123 -0.3774  1.2223  0.0783
13063TIP3    H260605   4.226   3.319  12.253  0.3152 -1.3159  0.9849
13064TIP3   OH260606   3.645   4.886  14.110 -0.1418 -0.2594  1.1906
13064TIP3    H160607   3.736   4.872  14.082 -0.1465 -0.1556  1.1250
13064TIP3    H260608   3.631   4.980  14.100  0.1262 -0.0844  2.3585
13065TIP3   OH260609   2.023   2.555  16.531 -0.4238  0.3137  0.4060
13065TIP3    H160610   2.083   2.559  16.456  0.6027  0.2294  1.1973
13065TIP3    H260611   2.048   2.631  16.584  0.4391 -0.8853  1.7988
13066TIP3   OH260612   3.497   4.179  16.081 -0.0229 -0.0998 -0.3987
13066TIP3    H160613   3.584   4.154  16.113  0.0951 -1.0168 -1.3825
13066TIP3    H260614   3.491   4.273  16.100 -0.1344 -0.6262  2.6528
13067TIP3   OH260615   1.174   0.470  15.554  0.1259 -0.3014  0.3173
13067TIP3    H160616   1.087   0.511  15.557  1.2918  2.4354 -0.1780
13067TIP3    H260617   1.161   0.390  15.503 -2.2769 -0.5060  1.1279
13068TIP3   OH260618   5.295   4.910   4.553  0.5596  0.0166  0.0004
13068TIP3    H160619   5.218   4.886   4.501  0.1104 -1.3800  1.2409
13068TIP3    H260620   5.277   5.000   4.581  1.4436  1.3579 -3.2680
13069TIP3   OH260621   5.657   5.094   0.191  0.2285  0.0735  0.0188
13069TIP3    H160622   5.572   5.138   0.198 -0.8113 -1.9436  0.6424
13069TIP3    H260623   5.669   5.080   0.097 -1.8348 -2.6426  0.0367
13070TIP3   OH260624   2.005   3.603   5.858  0.5381 -0.5201  0.3580
13070TIP3    H160625   2.033   3.600   5.766  1.1260  1.8408  0.4006
13070TIP3    H260626   2.086   3.614   5.907  0.0708 -0.0702  1.0338
13071TIP3   OH260627   3.742   4.595   2.296 -0.4161  0.1281  0.3866
13071TIP3    H160628   3.835   4.605   2.277 -0.6784  0.9830 -0.4807
13071TIP3    H260629   3.698   4.657   2.238 -1.5305 -0.2476  0.8002
13072TIP3   OH260630   3.273   3.972   3.625  0.2803  0.0643 -0.7917
13072TIP3    H160631   3.256   3.989   3.717  0.7810 -2.6422 -0.1089
13072TIP3    H260632   3.268   4.058   3.583  2.1107  1.7049  2.0290
13073TIP3   OH260633   0.287   5.760  13.925 -0.2544 -0.0972  0.1166
13073TIP3    H160634   0.239   5.813  13.989 -0.8032  0.3674 -0.6696
13073TIP3    H260635   0.225   5.692  13.899  0.4866 -1.2455  1.2136
13074TIP3   OH260636   0.864   6.086   4.458  0.3264 -0.4233  0.1005
13074TIP3    H160637   0.890   6.062   4.369  2.3762  0.8917  0.2819
13074TIP3    H260638   0.918   6.163   4.479 -1.2379  0.2720  1.9077
13075TIP3   OH260639   6.145   1.073  15.981  0.2954 -0.5159  0.3717
13075TIP3    H160640   6.051   1.083  15.972  0.3241 -1.2566 -0.9608
13075TIP3    H260641   6.182   1.140  15.923  0.5484 -1.6474 -0.8172
13076TIP3   OH260642   6.005   2.472  16.144  0.5221  0.1090  0.3846
13076TIP3    H160643   5.960   2.445  16.224  0.7403 -0.7666  0.2266
13076TIP3    H260644   5.966   2.556  16.122  0.0363  0.0815  1.0807
13077TIP3   OH260645   6.413   2.874   3.446  0.0218  0.0478  0.3838
13077TIP3    H160646   6.476   2.943   3.469 -0.9874  0.6993  1.3421
13077TIP3    H260647   6.331   2.903   3.486 -0.9038 -0.7575 -0.8487
13078TIP3   OH260648   2.938   3.651  12.422 -0.0672 -0.0388  0.0758
13078TIP3    H160649   3.033   3.653  12.411  0.4021 -0.2327  3.2389
13078TIP3    H260650   2.910   3.573  12.373  1.7950 -1.5331  1.2755
13079TIP3   OH260651   2.193   4.299   6.241  0.2675 -0.0632  0.0603
13079TIP3    H160652   2.123   4.243   6.208  1.3141 -1.5557  0.2888
13079TIP3    H260653   2.182   4.381   6.193 -0.5850 -0.8558 -1.1528
13080TIP3   OH260654   3.227   5.369  14.325 -0.4243 -0.0557 -0.2850
13080TIP3    H160655   3.286   5.294  14.338 -0.6161  0.0538  1.5547
13080TIP3    H260656   3.144   5.340  14.363 -1.7846 -0.3777 -3.2492
13081TIP3   OH260657   4.616   5.374  16.080  0.0616 -0.6343  0.5371
13081TIP3    H160658   4.640   5.450  16.132  3.5473  0.4558 -2.2056
13081TIP3    H260659   4.522   5.384  16.064  0.1597  2.4192  1.2945
13082TIP3   OH260660   4.425   2.548   0.738 -0.3224 -0.4605  0.2797
13082TIP3    H160661   4.480   2.475   0.710  1.0586  0.0720  1.4994
13082TIP3    H260662   4.401   2.593   0.657  2.2634  0.1423 -0.2465
13083TIP3   OH260663   5.978   0.219  14.561  0.6039 -0.5633  0.6623
13083TIP3    H160664   5.885   0.225  14.580  0.0920  0.2322 -1.7049
13083TIP3    H260665   5.992   0.128  14.536  0.2526 -0.5005  0.2130
13084TIP3   OH260666   1.323   6.553  12.288  0.0213 -0.1112 -0.6436
13084TIP3    H160667   1.298   6.462  12.270  0.2656 -0.4273  0.5819
13084TIP3    H260668   1.392   6.571  12.224  0.7054 -1.1315 -0.2153
13085TIP3   OH260669   2.099   6.525  11.764  0.7233  0.0765 -0.5467
13085TIP3    H160670   2.175   6.491  11.811  0.4863  0.7608  0.3484
13085TIP3    H260671   2.024   6.501  11.819  0.5408  1.9262  0.0558
13086TIP3   OH260672   1.146   3.593   2.321  0.1590  0.0118  0.2877
13086TIP3    H160673   1.055   3.620   2.309  1.3263  3.3873 -3.2303
13086TIP3    H260674   1.169   3.625   2.408 -1.8444 -0.5616  1.0846
13087TIP3   OH260675   5.509   3.323  16.954  0.0969 -0.3936  0.2030
13087TIP3    H160676   5.535   3.232  16.963  1.1263 -0.0297  1.1335
13087TIP3    H260677   5.425   3.320  16.908  0.3421 -1.7719 -0.1906
13088TIP3   OH260678   6.325   4.128   2.518  0.1281  0.6381 -0.0615
13088TIP3    H160679   6.302   4.156   2.430 -2.6893  1.0192  0.6976
13088TIP3    H260680   6.294   4.199   2.575 -0.2540 -0.6181  1.3767
13089TIP3   OH260681   4.613   0.891   5.644  0.0992  0.1359 -0.0023
13089TIP3    H160682   4.680   0.826   5.621 -0.3321 -0.1482 -0.4809
13089TIP3    H260683   4.596   0.875   5.737  0.9991  0.5010  0.2423
13090TIP3   OH260684   2.838   4.791  14.047 -0.6651  0.8650 -0.3184
13090TIP3    H160685   2.759   4.747  14.078  0.2819  0.0695  1.1072
13090TIP3    H260686   2.809   4.844  13.973 -2.3961  0.0935 -0.2380
13091TIP3   OH260687   5.406   2.830   4.315  0.0117 -0.1600 -0.0821
13091TIP3    H160688   5.325   2.812   4.267  0.2475 -2.5308  0.2776
13091TIP3    H260689   5.382   2.822   4.407  0.6986 -1.4263  0.0221
13092TIP3   OH260690   3.563   3.517   6.983 -0.1166 -0.2430  0.4578
13092TIP3    H160691   3.527   3.438   6.942 -1.3127  0.4241  0.1926
13092TIP3    H260692   3.641   3.486   7.029  0.3137 -1.3150 -0.9133
13093TIP3   OH260693   4.772   1.659   3.438 -0.8256  0.0385  0.3410
13093TIP3    H160694   4.803   1.613   3.516 -0.2331 -0.6195 -0.2618
13093TIP3    H260695   4.682   1.630   3.427 -0.7370 -0.2992  0.4777
13094TIP3   OH260696   3.646   0.409   5.931  0.1562 -0.1810 -0.1624
13094TIP3    H160697   3.666   0.324   5.972  1.1376  0.6657  1.1832
13094TIP3    H260698   3.716   0.422   5.867 -0.2581 -0.5835 -0.7087
13095TIP3   OH260699   6.265   2.579   1.701  0.0867 -0.3673 -0.0635
13095TIP3    H160700   6.266   2.501   1.645  0.0928  0.0841 -0.6972
13095TIP3    H260701   6.357   2.601   1.714  0.0781 -0.3165 -0.0887
13096TIP3   OH260702   4.948   5.584   3.173  0.0196  0.5725  0.0857
13096TIP3    H160703   5.026   5.550   3.128 -0.0686 -0.2195  0.5095
13096TIP3    H260704   4.940   5.674   3.142  0.4282  0.2961 -0.8622
13097TIP3   OH260705   2.335   3.244  12.230 -0.1570  0.4449 -0.7936
13097TIP3    H160706   2.341   3.208  12.319 -0.0296  0.7096 -0.6944
13097TIP3    H260707   2.305   3.334  12.243 -2.1319 -0.1167 -1.1345
13098TIP3   OH260708   3.734   4.650  11.817 -0.4191 -0.2058 -1.1122
13098TIP3    H160709   3.743   4.740  11.848  0.4671 -0.5996 -0.1741
13098TIP3    H260710   3.767   4.652  11.727 -0.0261  0.3208 -0.9579
13099TIP3   OH260711   6.467   0.116  13.922 -0.4013  0.1606 -0.4411
13099TIP3    H160712   6.444   0.175  13.850  0.3175  0.5019 -0.4026
13099TIP3    H260713   6.419   0.150  13.997  0.0698  0.7609 -0.3995
13100TIP3   OH260714   2.953   6.579  16.200 -0.2661 -0.2834 -0.4229
13100TIP3    H160715   2.934   6.590  16.293 -1.4568  1.8715 -0.8653
13100TIP3    H260716   3.043   6.610  16.190 -0.2148 -0.3028 -0.0372
13101TIP3   OH260717   2.750   0.671  14.269 -0.1635 -0.5645  0.1827
13101TIP3    H160718   2.841   0.641  14.272  0.2848  0.8024  2.0781
13101TIP3    H260719   2.723   0.676  14.361 -1.4243  1.1599 -0.2211
13102TIP3   OH260720   5.067   4.228  11.539 -0.5530 -0.4583  0.1455
13102TIP3    H160721   4.972   4.237  11.530 -0.6364 -1.6370 -0.3840
13102TIP3    H260722   5.102   4.253  11.453 -0.4633 -0.8691  0.0573
13103TIP3   OH260723   4.705   0.816  14.877 -0.4389 -0.1450  0.7361
13103TIP3    H160724   4.652   0.736  14.877  1.6502 -1.6057  0.9312
13103TIP3    H260725   4.702   0.846  14.967  0.5141 -1.2772  1.1745
13104TIP3   OH260726   4.047   3.535  14.945 -0.2817  0.6947 -0.2084
13104TIP3    H160727   4.044   3.486  15.028  0.3948  0.7393 -0.1540
13104TIP3    H260728   3.997   3.482  14.884 -1.4806  1.0482  0.4261
13105TIP3   OH260729   2.691   1.234  13.312  0.3050  0.0634 -0.1095
13105TIP3    H160730   2.721   1.160  13.366 -1.8253 -1.3002 -0.6385
13105TIP3    H260731   2.754   1.304  13.329  3.5719 -2.4131 -1.0005
13106TIP3   OH260732   4.876   0.653  15.087  0.3623 -0.1701  0.4206
13106TIP3    H160733   4.912   0.672  15.173 -0.1001 -0.0843  0.5990
13106TIP3    H260734   4.864   0.558  15.087 -0.5372 -0.0734  0.8231
13107TIP3   OH260735   2.837   3.793  13.991  0.2431  0.2794 -0.1820
13107TIP3    H160736   2.847   3.868  14.049 -1.8234  1.5350 -1.3198
13107TIP3    H260737   2.874   3.822  13.907  0.9591 -0.5978 -0.1759
13108TIP3   OH260738   4.830   2.720   4.276  0.0520 -0.1763 -0.0599
13108TIP3    H160739   4.851   2.789   4.213  0.5121 -2.6514 -2.8311
13108TIP3    H260740   4.761   2.758   4.331  0.0442  2.3375 -1.6523
13109TIP3   OH260741   3.969   0.087  16.775 -0.2056  0.4599  0.3383
13109TIP3    H160742   4.062   0.108  16.768  0.5572 -1.7365  2.3274
13109TIP3    H260743   3.923   0.168  16.754  2.2147  2.1527  1.2311
13110TIP3   OH260744   6.691   4.996   5.284 -0.0087 -0.2749 -0.3354
13110TIP3    H160745   6.650   5.018   5.367  0.8367 -1.0384  0.3110
13110TIP3    H260746   6.759   5.064   5.272 -0.7062  0.3502 -0.8617
13111TIP3   OH260747   1.852   1.312  15.124  0.0347 -0.4061 -0.4207
13111TIP3    H160748   1.807   1.270  15.197  1.0780 -1.2325 -0.2334
13111TIP3    H260749   1.786   1.371  15.086 -0.1666  1.0542  1.9870
13112TIP3   OH260750   0.300   6.758   2.085 -0.1685 -0.2454  0.1760
13112TIP3    H160751   0.263   6.672   2.064  0.0931 -0.4582  0.5728
13112TIP3    H260752   0.224   6.816   2.092 -0.3240 -0.3761 -0.3912
13113TIP3   OH260753   3.371   0.842  12.480 -0.3025  0.4481  0.3558
13113TIP3    H160754   3.340   0.759  12.514  1.7917 -0.2744  0.6307
13113TIP3    H260755   3.334   0.908  12.538 -0.2917 -0.4580  1.4124
13114TIP3   OH260756   1.867   0.756  17.316 -0.0788  0.1495  0.0932
13114TIP3    H160757   1.838   0.689  17.378  0.6751  0.3196  0.6376
13114TIP3    H260758   1.890   0.707  17.237 -4.0769  0.1731 -1.2928
13115TIP3   OH260759   0.159   3.230  11.455  0.5946  0.2583 -0.7767
13115TIP3    H160760   0.066   3.230  11.433  0.3717  0.4986  0.1348
13115TIP3    H260761   0.188   3.321  11.439  0.4710  0.3918 -0.2640
13116TIP3   OH260762   6.636   0.713   6.732  0.2006  0.2764 -0.0184
13116TIP3    H160763   6.572   0.778   6.762 -0.1795  0.0615 -0.3416
13116TIP3    H260764   6.721   0.752   6.751 -0.0242  0.8397 -0.1560
13117TIP3   OH260765   3.742   1.289   3.375  0.0531  0.0877  0.3138
13117TIP3    H160766   3.786   1.241   3.446  0.6407  0.4707  0.2122
13117TIP3    H260767   3.756   1.235   3.298 -0.6202 -0.3495  0.4828
13118TIP3   OH260768   3.845   0.561  15.296 -0.5560  0.3848 -0.0731
13118TIP3    H160769   3.850   0.510  15.214  0.0158 -2.1716  1.4442
13118TIP3    H260770   3.902   0.514  15.357 -2.0526  1.3910  2.2327
13119TIP3   OH260771   4.370   5.668   4.382  0.0512  0.0451 -0.8656
13119TIP3    H160772   4.297   5.650   4.442  0.2531 -2.3328 -1.2284
13119TIP3    H260773   4.443   5.691   4.439 -0.5006  0.6984 -0.4032
13120TIP3   OH260774   6.003   2.880   1.115  0.3432 -0.0431 -0.3975
13120TIP3    H160775   6.042   2.842   1.036 -0.1551  0.5419 -0.9322
13120TIP3    H260776   6.078   2.898   1.172  0.7255 -0.2840 -0.8136
13121TIP3   OH260777   1.693   4.958   4.733 -0.0272 -0.4435 -0.2342
13121TIP3    H160778   1.676   4.879   4.783  0.5648 -0.2054  0.3642
13121TIP3    H260779   1.618   5.015   4.751 -1.3019 -1.4713 -1.9904
13122TIP3   OH260780   6.130   5.436  12.500  0.3424  0.3242 -0.0963
13122TIP3    H160781   6.057   5.455  12.560  1.1156  0.0054  0.9700
13122TIP3    H260782   6.165   5.522  12.477 -0.5507  0.4983 -0.8693
13123TIP3   OH260783   0.958   6.305   2.496  0.4426  0.1766 -0.2913
13123TIP3    H160784   0.957   6.230   2.437  0.2429 -0.7127  0.8139
13123TIP3    H260785   0.937   6.269   2.582 -2.8007  1.9107 -0.1954
13124TIP3   OH260786   4.606   2.779   5.691  0.0820  0.2977  0.0417
13124TIP3    H160787   4.545   2.706   5.704  0.2945 -0.0732 -0.9546
13124TIP3    H260788   4.686   2.738   5.657 -0.0919  1.0708 -1.3667
13125TIP3   OH260789   3.079   5.766  13.349  0.0049 -0.3365  0.5139
13125TIP3    H160790   3.101   5.777  13.256 -2.1506 -1.3518 -0.1955
13125TIP3    H260791   3.095   5.851  13.388  0.9276  0.1279 -0.8044
13126TIP3   OH260792   3.111   3.449   3.189 -0.1405  0.3263 -0.0136
13126TIP3    H160793   3.131   3.365   3.231  2.1968  1.2128  0.7750
13126TIP3    H260794   3.101   3.510   3.262 -0.0042  1.0991 -0.6293
13127TIP3   OH260795   2.133   6.333  12.881  0.1094 -0.2819  0.0410
13127TIP3    H160796   2.161   6.244  12.900  0.9550  0.1770  1.0470
13127TIP3    H260797   2.176   6.354  12.798  1.4060 -0.1909  0.7135
13128TIP3   OH260798   2.304   5.428  14.220  0.7767 -0.9135  0.0154
13128TIP3    H160799   2.330   5.517  14.195  1.3057 -1.0658  0.0198
13128TIP3    H260800   2.379   5.373  14.198  0.6989 -1.2689  0.6073
13129TIP3   OH260801   0.159   5.812   4.208  0.6174  0.0812 -0.6166
13129TIP3    H160802   0.070   5.821   4.243  0.8096 -0.6949  0.1166
13129TIP3    H260803   0.169   5.885   4.147 -0.2651  0.6036 -0.1520
13130TIP3   OH260804   2.173   0.797   5.233 -0.3757  0.2318  0.1695
13130TIP3    H160805   2.110   0.745   5.284 -1.0137  0.0945 -0.7358
13130TIP3    H260806   2.245   0.814   5.294 -1.8028  1.4232  1.6223
13131TIP3   OH260807   0.075   1.699  13.556 -0.1040 -0.0661 -0.2557
13131TIP3    H160808   0.022   1.735  13.627 -0.8074 -1.8526  0.1809
13131TIP3    H260809   0.035   1.732  13.476 -0.0890  0.9227  0.1343
13132TIP3   OH260810   6.120   1.065   4.960  0.2266 -0.2592 -0.3336
13132TIP3    H160811   6.085   1.091   5.045  0.2670  0.0125 -0.4010
13132TIP3    H260812   6.052   1.009   4.922 -0.1395  0.2724 -0.4651
13133TIP3   OH260813   3.015   3.567   5.293  0.1289 -0.1017 -0.1231
13133TIP3    H160814   3.042   3.500   5.355 -1.1014  1.7273  2.5771
13133TIP3    H260815   2.927   3.592   5.321  0.2909  2.1964 -1.4027
13134TIP3   OH260816   5.196   3.415  15.212 -0.8235  0.3025  0.0545
13134TIP3    H160817   5.184   3.383  15.301 -0.2314  1.4822  0.5842
13134TIP3    H260818   5.133   3.486  15.203 -1.3457 -0.2381 -0.7157
13135TIP3   OH260819   4.666   1.596  15.111  0.6170  0.1383 -0.3342
13135TIP3    H160820   4.746   1.546  15.124  1.3670  1.0334 -1.2299
13135TIP3    H260821   4.685   1.652  15.035 -0.1341  1.8189  0.6619
13136TIP3   OH260822   5.934   0.450   0.796  0.5219 -0.4166 -0.0299
13136TIP3    H160823   5.908   0.450   0.704 -1.7020  1.5550  0.5006
13136TIP3    H260824   5.926   0.358   0.823 -1.8533 -0.6099 -1.0835
13137TIP3   OH260825   0.690   5.487   0.296 -0.1123  0.0540 -0.3280
13137TIP3    H160826   0.768   5.541   0.290 -0.3172  0.2848 -1.0199
13137TIP3    H260827   0.632   5.520   0.228 -0.2019 -1.0862 -0.8380
13138TIP3   OH260828   3.407   5.426  15.126  0.2067 -0.4021 -0.1408
13138TIP3    H160829   3.377   5.476  15.202 -0.5823  2.5921 -2.2347
13138TIP3    H260830   3.327   5.392  15.086  0.1047  1.8177 -1.9844
13139TIP3   OH260831   4.317   3.369   0.404 -0.5487  0.2128 -0.1044
13139TIP3    H160832   4.281   3.339   0.488 -0.4552 -1.4880 -0.6427
13139TIP3    H260833   4.402   3.406   0.427 -0.5141 -0.2549  0.5602
13140TIP3   OH260834   5.844   6.641  11.250  0.6187 -0.0060  0.7751
13140TIP3    H160835   5.908   6.683  11.192  0.2814  2.5092  2.0833
13140TIP3    H260836   5.759   6.661  11.211  0.4312  1.0177  1.6599
13141TIP3   OH260837   2.109   2.043  14.074 -0.1289 -0.1223 -0.1965
13141TIP3    H160838   2.151   2.116  14.030  0.2512 -1.2166 -1.7268
13141TIP3    H260839   2.133   1.966  14.022 -2.6506 -1.0178 -0.1615
13142TIP3   OH260840   2.581   5.585   0.918 -0.7515 -0.2362 -0.6378
13142TIP3    H160841   2.551   5.505   0.961 -1.6192  0.6697  0.5399
13142TIP3    H260842   2.521   5.653   0.950  0.6597  1.0935 -0.6646
13143TIP3   OH260843   2.338   2.246   2.120 -0.5959 -0.3979 -0.3531
13143TIP3    H160844   2.244   2.265   2.122 -0.7548 -1.1934  2.1659
13143TIP3    H260845   2.369   2.266   2.208  1.2479 -1.8710 -0.6027
13144TIP3   OH260846   2.649   4.632   5.514 -0.1428  0.4295  0.0002
13144TIP3    H160847   2.610   4.547   5.533 -1.6893  1.1558  0.1962
13144TIP3    H260848   2.646   4.639   5.419  0.1562  0.1952 -0.0281
13145TIP3   OH260849   2.138   5.143   3.697  0.6857  0.2768  0.6114
13145TIP3    H160850   2.062   5.122   3.642 -0.0193  4.0709 -0.0859
13145TIP3    H260851   2.204   5.176   3.636  1.8074 -0.1351  1.5623
13146TIP3   OH260852   6.110   5.161   4.956 -0.6226  0.1993 -0.4891
13146TIP3    H160853   6.120   5.153   4.861  1.2371  0.9876 -0.4011
13146TIP3    H260854   6.124   5.072   4.989  1.2980  0.3231 -0.8226
13147TIP3   OH260855   0.182   3.726   2.157 -0.1451  0.2945 -0.1834
13147TIP3    H160856   0.201   3.633   2.169  0.3861  0.5163  0.7973
13147TIP3    H260857   0.096   3.739   2.196  0.6828  0.6034  1.6421
13148TIP3   OH260858   1.476   3.052   0.878 -0.0255  0.1879  0.3592
13148TIP3    H160859   1.411   2.983   0.881  1.9707 -1.7833  0.6993
13148TIP3    H260860   1.500   3.058   0.785 -0.7901  1.0434  0.2060
13149TIP3   OH260861   5.637   5.870  11.514  0.0969  0.7275  0.4638
13149TIP3    H160862   5.692   5.809  11.466  1.8896  0.8918  2.1629
13149TIP3    H260863   5.586   5.815  11.573 -1.0636  0.6313 -0.6002
13150TIP3   OH260864   3.205   1.132   6.410 -0.3931 -0.4924  0.1971
13150TIP3    H160865   3.209   1.226   6.396 -0.4987 -0.3009  1.3855
13150TIP3    H260866   3.130   1.118   6.467 -1.2866 -1.4682 -1.1333
13151TIP3   OH260867   0.275   0.022  11.907  0.1742  0.1294  0.1087
13151TIP3    H160868   0.299   0.086  11.840 -0.9717 -2.8514 -3.5214
13151TIP3    H260869   0.351  -0.036  11.912  0.3691  0.4582  1.7731
13152TIP3   OH260870   0.165   1.844   5.043  0.1362  0.1793  0.4947
13152TIP3    H160871   0.073   1.870   5.037  0.3359  0.6647 -0.8238
13152TIP3    H260872   0.211   1.924   5.068  0.3648  0.2937 -0.2802
13153TIP3   OH260873   4.672   0.577  10.913  0.0898  0.3291 -0.0991
13153TIP3    H160874   4.584   0.588  10.948  0.0910  0.7823 -0.2313
13153TIP3    H260875   4.699   0.665  10.887  0.5021  0.1627 -0.2482
13154TIP3   OH260876   2.313   3.720  16.898 -0.1290  0.0440 -0.1180
13154TIP3    H160877   2.269   3.652  16.846 -1.8109  0.2071  1.0074
13154TIP3    H260878   2.339   3.786  16.834 -0.3264 -0.6970 -0.9889
13155TIP3   OH260879   5.194   0.568  13.027  0.2794 -0.6456  0.0778
13155TIP3    H160880   5.175   0.617  13.108 -0.3960 -0.4773 -0.1747
13155TIP3    H260881   5.185   0.634  12.958  1.6888 -0.5901 -0.0743
13156TIP3   OH260882   3.370   1.865  16.837 -0.0584  0.3134  0.2323
13156TIP3    H160883   3.351   1.840  16.747 -0.1413 -1.4083  0.6919
13156TIP3    H260884   3.463   1.888  16.837  0.2462 -0.8384 -0.0910
13157TIP3   OH260885   6.685   6.680  12.144 -0.1516  0.3915 -0.2663
13157TIP3    H160886   6.688   6.649  12.234  3.1707  0.9967 -0.0322
13157TIP3    H260887   6.763   6.735  12.135 -0.8051  1.0232 -3.2959
13158TIP3   OH260888   3.636   0.493  13.928  0.1920 -0.5832  0.0789
13158TIP3    H160889   3.653   0.425  13.862 -0.7488 -0.1159 -0.6768
13158TIP3    H260890   3.652   0.449  14.012  1.4890 -1.1748 -0.4423
13159TIP3   OH260891   1.831   3.055  16.342  0.0268  0.0332 -0.0160
13159TIP3    H160892   1.845   3.014  16.428  0.3360 -0.1384 -0.1461
13159TIP3    H260893   1.781   3.134  16.361  2.6259  1.6000  0.6958
13160TIP3   OH260894   3.863   0.228   5.289  0.2687  0.1693 -0.2077
13160TIP3    H160895   3.928   0.174   5.244 -1.2756 -2.4471  0.4810
13160TIP3    H260896   3.875   0.208   5.382 -0.2140  1.2316  0.1000
13161TIP3   OH260897   5.195   1.522  16.766  0.1738  0.0951 -0.1910
13161TIP3    H160898   5.231   1.492  16.850  1.0302  1.9702  0.1828
13161TIP3    H260899   5.248   1.478  16.700  1.3209  0.6366  0.3235
13162TIP3   OH260900   4.627   3.243   5.401  0.2927  0.1677  0.3391
13162TIP3    H160901   4.576   3.170   5.438 -0.2177 -0.2061 -1.0128
13162TIP3    H260902   4.561   3.306   5.372  0.7236  1.0468  1.2073
13163TIP3   OH260903   0.411   1.331  15.616 -0.1325  0.2448  0.2349
13163TIP3    H160904   0.452   1.255  15.575  0.3684 -0.4194  1.8806
13163TIP3    H260905   0.480   1.397  15.619  0.0181  0.0785  0.5318
13164TIP3   OH260906   2.270   5.203  12.408  0.2023  0.3201 -0.2524
13164TIP3    H160907   2.277   5.215  12.313 -1.3657  0.4188 -0.3729
13164TIP3    H260908   2.177   5.212  12.427  0.5543  0.8989  1.3891
13165TIP3   OH260909   0.618   0.314  16.901 -0.4840 -0.0854  0.0641
13165TIP3    H160910   0.550   0.267  16.949  0.3420 -0.3521  1.0071
13165TIP3    H260911   0.586   0.318  16.811 -0.5454 -2.5657 -0.0842
13166TIP3   OH260912   4.780   5.402   5.139  0.1728  0.3564  0.2855
13166TIP3    H160913   4.707   5.428   5.084 -0.6315 -1.2475  0.5399
13166TIP3    H260914   4.747   5.328   5.189  1.8102 -0.0637  0.8025
13167TIP3   OH260915   1.011   4.200  11.976  0.6101 -0.2930  0.4403
13167TIP3    H160916   0.988   4.159  11.893  0.0524  0.4234  0.2320
13167TIP3    H260917   1.029   4.127  12.035 -2.7416 -0.9543  0.8060
13168TIP3   OH260918   4.480   2.607   0.231 -0.6958 -0.3236  0.0133
13168TIP3    H160919   4.509   2.656   0.155  2.1908 -0.3105  0.9838
13168TIP3    H260920   4.466   2.673   0.299 -0.2000 -0.5618  0.3536
13169TIP3   OH260921   3.632   6.307   6.410  0.3199  0.5486  0.3092
13169TIP3    H160922   3.713   6.274   6.450 -0.9551 -1.7916  1.1624
13169TIP3    H260923   3.568   6.307   6.482 -0.2897  3.2475 -0.1044
13170TIP3   OH260924   1.615   0.647  12.017 -0.4081 -0.0656  0.0811
13170TIP3    H160925   1.632   0.730  12.061  0.7129 -0.5574  0.6361
13170TIP3    H260926   1.549   0.667  11.950  0.8694  1.5781 -0.7599
13171TIP3   OH260927   4.943   3.680  12.599 -0.2867 -0.2972  0.5240
13171TIP3    H160928   5.038   3.690  12.606 -0.3658 -0.3745  2.0658
13171TIP3    H260929   4.918   3.744  12.532  0.8923 -0.6127 -0.2534
13172TIP3   OH260930   5.692   5.980   3.848 -0.2639 -0.0019  0.3327
13172TIP3    H160931   5.669   6.047   3.913 -1.2648  1.3546 -1.3219
13172TIP3    H260932   5.643   6.005   3.770  2.5573 -0.2521 -1.6743
13173TIP3   OH260933   0.421   3.156   2.834 -0.1007  0.2031  0.3051
13173TIP3    H160934   0.336   3.127   2.802  0.6565 -1.4743 -0.3453
13173TIP3    H260935   0.420   3.251   2.823 -2.2104  0.3299  1.2018
13174TIP3   OH260936   3.305   6.494  12.423  0.2669 -0.0642  0.4542
13174TIP3    H160937   3.265   6.477  12.338  2.1700 -0.5142 -0.4049
13174TIP3    H260938   3.330   6.586  12.419  0.9436 -0.2538  0.2610
13175TIP3   OH260939   3.063   0.184   0.625 -0.1701 -0.0339 -0.3472
13175TIP3    H160940   3.156   0.171   0.608 -0.3272 -0.0722 -1.1996
13175TIP3    H260941   3.059   0.264   0.677  0.2234  0.8740 -1.6681
13176TIP3   OH260942   2.770   6.386  12.010 -0.1129 -0.4453 -0.0674
13176TIP3    H160943   2.726   6.341  11.938 -1.4815 -0.6617  0.8643
13176TIP3    H260944   2.699   6.414  12.068  0.8438  1.1423  0.4061
13177TIP3   OH260945   5.282   1.886   1.768  0.2117  0.2866 -0.1943
13177TIP3    H160946   5.295   1.981   1.763  0.0372  0.3603  0.6291
13177TIP3    H260947   5.320   1.861   1.852 -2.2548  0.0584  0.9291
13178TIP3   OH260948   2.558   3.239  14.803  0.5007  0.3374 -1.0566
13178TIP3    H160949   2.636   3.203  14.760  0.7984 -0.3843  0.0399
13178TIP3    H260950   2.586   3.326  14.832  0.5820  0.4663 -1.5066
13179TIP3   OH260951   3.631   5.438   3.467  0.4118 -0.6203  0.4731
13179TIP3    H160952   3.569   5.430   3.540 -1.5477 -0.0839 -1.0179
13179TIP3    H260953   3.639   5.349   3.432  1.0118 -0.8023  1.0635
13180TIP3   OH260954   6.189   4.515  15.849  0.4726  0.3243  0.2600
13180TIP3    H160955   6.132   4.484  15.779  0.3377  0.5390  0.2770
13180TIP3    H260956   6.209   4.436  15.899  2.0448 -0.1765 -1.0562
13181TIP3   OH260957   4.092   5.224  15.180 -0.3575 -0.2169  0.1012
13181TIP3    H160958   4.008   5.236  15.223 -0.1348 -0.0257  0.4968
13181TIP3    H260959   4.081   5.262  15.093 -0.3133  0.9406  0.5794
13182TIP3   OH260960   1.691   0.065  12.519 -0.3600  0.3077  0.6717
13182TIP3    H160961   1.696   0.117  12.439 -1.4085 -1.6497 -0.7313
13182TIP3    H260962   1.774   0.017  12.521 -0.5542 -0.0364  0.4748
13183TIP3   OH260963   0.502   1.281   0.325  0.1914  0.4253  0.6089
13183TIP3    H160964   0.586   1.327   0.333  1.6318 -1.7979 -0.8779
13183TIP3    H260965   0.519   1.194   0.361 -1.2093 -0.3593 -0.5381
13184TIP3   OH260966   2.618   5.770   3.949  0.0717 -0.7886 -1.0949
13184TIP3    H160967   2.540   5.760   4.003  0.3729  1.0789 -0.2592
13184TIP3    H260968   2.584   5.777   3.860 -0.9131  1.7867 -0.5908
13185TIP3   OH260969   2.640   0.891  13.155  0.3246  0.1557 -0.2864
13185TIP3    H160970   2.592   0.827  13.207  1.7620  1.2044  2.5781
13185TIP3    H260971   2.640   0.856  13.066 -1.9243 -1.9839  0.4495
13186TIP3   OH260972   0.229   2.900   0.603 -0.2847 -0.1528 -0.4261
13186TIP3    H160973   0.139   2.874   0.623 -0.9634  0.8108 -2.0326
13186TIP3    H260974   0.237   2.988   0.640 -0.1782 -0.0470 -0.6956
13187TIP3   OH260975   0.427   3.603   0.274  0.9073 -0.4548  0.2948
13187TIP3    H160976   0.401   3.593   0.182  0.3416 -1.2372  0.5301
13187TIP3    H260977   0.364   3.551   0.323  2.6769 -2.1647  0.9279
13188TIP3   OH260978   5.099   0.230  16.383  0.1301 -0.0771 -0.4037
13188TIP3    H160979   5.009   0.262  16.392  0.2991  0.2260  0.3336
13188TIP3    H260980   5.148   0.305  16.350  0.3967  0.2563  0.6832
13189TIP3   OH260981   4.574   0.443   0.967 -0.2749 -0.2620  0.0369
13189TIP3    H160982   4.583   0.497   0.889 -1.6330  0.9421  0.6546
13189TIP3    H260983   4.583   0.353   0.936  0.3923  0.2368 -1.2943
13190TIP3   OH260984   1.961   5.627   4.925  0.5691  0.3314 -0.3454
13190TIP3    H160985   1.934   5.657   4.838  1.4094  1.2289 -0.3062
13190TIP3    H260986   1.942   5.701   4.983  3.3917  1.1723 -0.3728
13191TIP3   OH260987   2.011   2.905  16.929 -0.4163  0.0025 -0.1089
13191TIP3    H160988   1.952   2.981  16.937  0.1451  0.4060  0.2780
13191TIP3    H260989   2.097   2.944  16.914 -0.0741 -0.5625  0.3805
13192TIP3   OH260990   3.590   4.322   5.237 -0.1568 -0.1955 -0.3091
13192TIP3    H160991   3.509   4.373   5.246 -0.3942 -0.2658 -1.7951
13192TIP3    H260992   3.654   4.384   5.202  0.7352  0.0988  1.6861
13193TIP3   OH260993   2.603   5.316  15.695  0.3789  0.0351  0.6795
13193TIP3    H160994   2.653   5.318  15.614 -2.9006 -1.1234 -1.5582
13193TIP3    H260995   2.572   5.225  15.702 -0.8080  0.5189  2.3332
13194TIP3   OH260996   6.667   1.281  12.007 -0.4608 -0.3892  0.2959
13194TIP3    H160997   6.574   1.271  11.990 -0.0351  0.6038 -3.6365
13194TIP3    H260998   6.675   1.366  12.052 -1.4924 -1.2840  2.2628
13195TIP3   OH260999   2.244   2.757  11.923  0.3302  0.3640 -0.5645
13195TIP3    H161000   2.157   2.796  11.922  0.2715  0.2311 -0.9341
13195TIP3    H261001   2.273   2.761  11.832 -0.2550 -1.7283 -0.8889
13196TIP3   OH261002   2.231   5.044   5.095 -0.3417  0.3481  0.3716
13196TIP3    H161003   2.209   5.020   5.005  0.5399  1.4651 -0.1749
13196TIP3    H261004   2.149   5.031   5.144 -1.9732  3.0454 -1.3050
13197TIP3   OH261005   3.158   1.188  14.805 -0.3344 -0.2076  0.0538
13197TIP3    H161006   3.155   1.206  14.899 -0.8478 -0.2660  0.0496
13197TIP3    H261007   3.159   1.275  14.764  0.1675 -0.1799  0.1176
13198TIP3   OH261008   0.592   4.981  13.809 -0.2156 -0.5874  0.4018
13198TIP3    H161009   0.582   5.075  13.824 -1.7558 -0.7490  0.5372
13198TIP3    H261010   0.544   4.964  13.729  1.3381 -1.0435 -0.4779
13199TIP3   OH261011   5.221   2.645  12.715  0.4587  0.9912  0.0929
13199TIP3    H161012   5.164   2.722  12.718 -2.9765 -1.3044 -0.1282
13199TIP3    H261013   5.254   2.643  12.625 -0.4839  1.4958 -0.2771
13200TIP3   OH261014   4.918   3.829   0.595  0.0911  0.0464  0.2723
13200TIP3    H161015   4.856   3.773   0.642 -0.7829 -1.2588 -2.2528
13200TIP3    H261016   4.866   3.871   0.527  2.0613 -2.2212 -2.9257
13201TIP3   OH261017   6.220   3.390   4.054 -0.5101 -0.4183  0.1616
13201TIP3    H161018   6.295   3.397   3.995 -0.1829 -1.4119  0.4442
13201TIP3    H261019   6.226   3.469   4.109  1.9384 -1.7508  1.9804
13202TIP3   OH261020   1.583   3.737  12.458 -0.1848  0.3712  0.1972
13202TIP3    H161021   1.541   3.673  12.516 -1.3633  0.8912 -0.0523
13202TIP3    H261022   1.676   3.717  12.465 -0.5406 -1.7845 -0.3623
13203TIP3   OH261023   1.677   2.351  14.488  0.0490 -0.3699  0.6011
13203TIP3    H161024   1.639   2.438  14.496  0.5338  0.0413 -1.0946
13203TIP3    H261025   1.633   2.299  14.555 -1.3536  0.7918  0.6253
13204TIP3   OH261026   4.516   2.093  14.887 -0.1599 -0.0049  0.3571
13204TIP3    H161027   4.426   2.092  14.854  0.3279 -0.2263 -1.0374
13204TIP3    H261028   4.570   2.072  14.811  1.1027  0.4383  1.0944
13205TIP3   OH261029   6.188   4.448   3.900 -0.0539  0.0500 -0.2652
13205TIP3    H161030   6.096   4.477   3.896 -0.7937 -2.2402 -1.5434
13205TIP3    H261031   6.185   4.367   3.951  1.1584 -0.3482 -0.8012
13206TIP3   OH261032   6.116   1.115   4.079  0.3524  0.0794  0.1340
13206TIP3    H161033   6.059   1.192   4.073  0.5340  0.3269  1.2393
13206TIP3    H261034   6.069   1.046   4.034  0.2408  0.8653 -0.9926
13207TIP3   OH261035   0.572   0.553  12.213 -0.2129 -0.1630  0.2943
13207TIP3    H161036   0.541   0.468  12.244 -0.7168 -0.4755 -1.0066
13207TIP3    H261037   0.521   0.617  12.263  0.6305 -0.5836  1.7564
13208TIP3   OH261038   6.108   5.423  14.322 -0.3107 -0.2148 -0.0324
13208TIP3    H161039   6.068   5.469  14.247 -1.0278 -1.1361 -0.2403
13208TIP3    H261040   6.103   5.485  14.394  1.5529  1.1779 -1.0241
13209TIP3   OH261041   3.812   3.229  11.246 -0.4640 -0.2876 -0.5403
13209TIP3    H161042   3.817   3.234  11.151 -1.8800 -0.1858 -0.6298
13209TIP3    H261043   3.743   3.290  11.270 -0.7876 -1.0156  0.4637
13210TIP3   OH261044   2.643   3.391  15.072  0.4291 -0.0418  0.0824
13210TIP3    H161045   2.660   3.343  15.153 -0.3683 -0.2453  0.1381
13210TIP3    H261046   2.700   3.351  15.007  0.1330 -0.7489  0.2453
13211TIP3   OH261047   6.392   4.320  11.043  0.1230  0.0340 -0.0533
13211TIP3    H161048   6.487   4.310  11.046  0.4205  1.7959 -1.7240
13211TIP3    H261049   6.370   4.372  11.120  0.3786 -0.9976  0.7433
13212TIP3   OH261050   5.608   6.338  12.538 -0.3507  0.3717  0.4024
13212TIP3    H161051   5.697   6.350  12.571 -0.7235  0.8515  1.2346
13212TIP3    H261052   5.609   6.251  12.499  0.5065  0.4037  0.3355
13213TIP3   OH261053   0.243   6.478   0.518 -0.0341 -0.3058  0.0862
13213TIP3    H161054   0.250   6.548   0.583  2.3215 -1.1325  0.8252
13213TIP3    H261055   0.251   6.523   0.434  2.0417  0.3442  0.5629
13214TIP3   OH261056   6.115   3.883  14.410 -0.2275  0.0666  0.3321
13214TIP3    H161057   6.105   3.966  14.364 -0.7438 -0.8631 -1.3194
13214TIP3    H261058   6.150   3.907  14.496 -2.2882  2.1729  0.6754
13215TIP3   OH261059   1.589   4.698   0.089 -0.3406  1.4294  0.1436
13215TIP3    H161060   1.569   4.738   0.174 -0.0159  1.4051  0.2309
13215TIP3    H261061   1.512   4.718   0.035 -0.8781  0.8273  0.6610
13216TIP3   OH261062   4.802   4.412   0.490  0.0367 -0.1763 -0.0570
13216TIP3    H161063   4.894   4.439   0.490  0.3131 -1.0741 -0.0631
13216TIP3    H261064   4.754   4.491   0.467  0.8582  0.1607 -0.6819
13217TIP3   OH261065   4.541   5.386  14.852  0.1955 -0.0777 -0.7390
13217TIP3    H161066   4.521   5.450  14.920 -0.6825  0.0460 -1.1048
13217TIP3    H261067   4.497   5.418  14.774 -0.7208 -1.3919 -0.8025
13218TIP3   OH261068   1.521   1.651   6.453  0.0627  0.7002  0.1269
13218TIP3    H161069   1.443   1.615   6.496  0.2317 -0.1059 -0.2216
13218TIP3    H261070   1.579   1.677   6.525 -0.5384  1.3488  0.3872
13219TIP3   OH261071   2.041   0.436  15.084 -0.6493 -0.5163  0.0034
13219TIP3    H161072   2.007   0.513  15.130  0.6606 -0.0330  0.1995
13219TIP3    H261073   2.106   0.400  15.144 -1.1622 -1.7133 -0.1427
13220TIP3   OH261074   6.518   4.186  16.320 -0.2397  0.0163 -0.2969
13220TIP3    H161075   6.575   4.127  16.369  0.7727 -0.0848 -1.5499
13220TIP3    H261076   6.466   4.231  16.387 -0.4795 -1.7058  0.7252
13221TIP3   OH261077   1.069   6.773  14.272 -0.0761 -0.1965 -0.2510
13221TIP3    H161078   1.034   6.740  14.354 -0.8791 -1.2401 -0.9815
13221TIP3    H261079   1.161   6.746  14.273 -0.5211 -1.8981 -0.4810
13222TIP3   OH261080   3.354   1.085   1.744 -0.3044 -0.5714  0.0100
13222TIP3    H161081   3.404   1.157   1.781 -0.6592  0.5125 -1.5350
13222TIP3    H261082   3.420   1.022   1.716  0.4667  1.3799 -3.1419
13223TIP3   OH261083   6.535   5.880  16.732  0.2850 -0.3098 -0.1461
13223TIP3    H161084   6.498   5.833  16.807 -0.0968  0.2894  0.0447
13223TIP3    H261085   6.478   5.956  16.720  0.2757 -0.4629 -1.1277
13224TIP3   OH261086   0.124   5.763   2.242  0.1230 -0.0378 -0.0042
13224TIP3    H161087   0.173   5.696   2.290  1.0766  0.4331 -0.2998
13224TIP3    H261088   0.180   5.785   2.168  1.3741  3.3850  1.7690
13225TIP3   OH261089   5.748   2.595   3.582  0.1099  0.0755 -0.3412
13225TIP3    H161090   5.666   2.555   3.553 -0.8349  1.9500 -0.3788
13225TIP3    H261091   5.793   2.619   3.501  0.0266  0.3481 -0.3068
13226TIP3   OH261092   1.233   3.514   4.561  0.1834 -0.0899 -0.0545
13226TIP3    H161093   1.271   3.503   4.474  1.1603 -1.5759  0.5185
13226TIP3    H261094   1.251   3.605   4.584  3.6904 -0.7271  0.2472
13227TIP3   OH261095   2.545   0.587   4.109 -0.1856 -0.1578  0.1464
13227TIP3    H161096   2.531   0.526   4.182  0.3080 -1.2560 -0.6481
13227TIP3    H261097   2.532   0.534   4.031  0.8497  0.6067 -0.5751
13228TIP3   OH261098   4.007   5.560  12.748 -0.2589  0.0358 -0.3877
13228TIP3    H161099   3.975   5.625  12.810 -0.8611 -0.9268  0.3428
13228TIP3    H261100   3.928   5.527  12.704 -0.4995 -2.8700  1.9358
13229TIP3   OH261101   6.211   1.785   3.774  0.2318  0.0122  0.0481
13229TIP3    H161102   6.157   1.813   3.700  1.5369  1.3743 -0.4629
13229TIP3    H261103   6.172   1.828   3.850 -0.7970 -0.9558  0.0825
13230TIP3   OH261104   1.526   4.027   1.474  0.1090 -0.2641 -0.5256
13230TIP3    H161105   1.522   4.053   1.382 -0.9992 -2.2540 -1.0986
13230TIP3    H261106   1.603   3.971   1.479  0.8532  0.7732  0.0622
13231TIP3   OH261107   4.857   1.960   4.164 -0.0881  0.1015 -0.2561
13231TIP3    H161108   4.813   1.912   4.094  0.7534  1.4000 -1.7350
13231TIP3    H261109   4.922   1.899   4.198  1.5626  0.3564 -2.6893
13232TIP3   OH261110   4.211   0.177   6.839 -0.3066  0.2320  0.0353
13232TIP3    H161111   4.148   0.146   6.903 -3.4191  0.8919 -2.4385
13232TIP3    H261112   4.222   0.104   6.778 -0.0462  0.7138 -0.5137
13233TIP3   OH261113   2.835   5.656   2.149  0.0097 -0.9165 -0.2846
13233TIP3    H161114   2.901   5.588   2.164 -0.1542 -0.8872  0.6425
13233TIP3    H261115   2.880   5.737   2.173 -0.7631 -1.0304  1.6983
13234TIP3   OH261116   2.132   6.332   0.188 -0.4268  0.0151  0.2828
13234TIP3    H161117   2.163   6.255   0.141 -0.6581  1.0335 -1.6135
13234TIP3    H261118   2.122   6.399   0.121 -3.2571  0.8020  1.3643
13235TIP3   OH261119   2.430   1.105  15.334  0.0041 -0.0048  0.3499
13235TIP3    H161120   2.368   1.130  15.266 -2.0430 -1.8985  1.4065
13235TIP3    H261121   2.515   1.134  15.301 -0.9063 -0.7076 -2.9322
13236TIP3   OH261122   0.654   0.037   2.418 -0.2709  0.3001  0.5479
13236TIP3    H161123   0.595  -0.033   2.394  0.2402  0.4017 -1.0959
13236TIP3    H261124   0.717  -0.004   2.478 -1.1474 -0.1304  1.2013
13237TIP3   OH261125   3.036   5.500   2.455 -0.3700  0.2687  0.5951
13237TIP3    H161126   3.021   5.569   2.390 -1.2668  0.5952  1.1340
13237TIP3    H261127   3.105   5.535   2.512  0.7862 -0.2270 -0.4574
13238TIP3   OH261128   5.530   4.717   4.424  0.1972  0.2382  0.2706
13238TIP3    H161129   5.483   4.761   4.495 -0.8790 -0.2759 -0.1032
13238TIP3    H261130   5.469   4.718   4.350  0.7360 -0.5394 -0.2038
13239TIP3   OH261131   6.271   1.301   5.841  0.3357  0.4087  0.0199
13239TIP3    H161132   6.180   1.298   5.869  0.7498 -1.7651  1.4757
13239TIP3    H261133   6.304   1.213   5.861  2.4349  0.7578 -1.5817
13240TIP3   OH261134   6.097   1.013   5.319  0.2005 -0.3323  0.1645
13240TIP3    H161135   6.071   1.096   5.281 -0.4977  0.1372  1.5910
13240TIP3    H261136   6.164   1.035   5.384  0.8681 -1.0267 -0.2643
13241TIP3   OH261137   0.872   6.371   5.957 -0.3057 -0.4579  0.6030
13241TIP3    H161138   0.863   6.357   5.863 -0.7708 -1.9086  0.8358
13241TIP3    H261139   0.800   6.322   5.996  1.6631 -2.5590  1.8640
13242TIP3   OH261140   5.757   0.975  15.216 -0.1295 -0.4520  0.0763
13242TIP3    H161141   5.715   0.925  15.286 -1.5504 -0.6397 -0.8577
13242TIP3    H261142   5.809   1.041  15.261  0.1411 -1.4714  1.3130
13243TIP3   OH261143   3.283   0.680   5.581  0.3670 -0.3337  0.3076
13243TIP3    H161144   3.269   0.715   5.669  0.6187 -2.0001  1.0594
13243TIP3    H261145   3.237   0.596   5.582  1.9517 -1.2545 -0.5086
13244TIP3   OH261146   2.969   2.693  11.198 -0.4233  0.3088 -0.0712
13244TIP3    H161147   3.036   2.633  11.163 -0.6209 -1.3759  2.2145
13244TIP3    H261148   2.914   2.714  11.122 -0.9064 -3.2375 -0.8839
13245TIP3   OH261149   6.253   5.601  11.233  0.1528 -0.5468  0.7632
13245TIP3    H161150   6.339   5.622  11.269 -0.2520 -0.2200  1.5570
13245TIP3    H261151   6.248   5.506  11.236  0.4798 -0.5641  0.7395
13246TIP3   OH261152   1.237   4.041  15.920  0.0374 -0.3488 -0.4169
13246TIP3    H161153   1.308   4.079  15.972 -0.6289  0.6685 -0.2217
13246TIP3    H261154   1.191   4.117  15.883 -2.6434 -0.7849  1.6901
13247TIP3   OH261155   5.931   1.384   1.266 -0.2607 -0.1000  0.2907
13247TIP3    H161156   5.927   1.357   1.174 -0.2162  2.7297 -0.6414
13247TIP3    H261157   6.025   1.398   1.282 -0.4429  1.6535 -0.0077
13248TIP3   OH261158   6.300   4.092  10.642  0.9592 -0.3507 -0.5561
13248TIP3    H161159   6.252   4.016  10.672  2.0371 -1.2074 -0.9377
13248TIP3    H261160   6.378   4.056  10.599  4.1885  0.9117  3.5300
13249TIP3   OH261161   6.186   0.335  12.590  0.0476 -0.0562 -0.0349
13249TIP3    H161162   6.200   0.424  12.558 -1.6005  1.0251  2.0182
13249TIP3    H261163   6.155   0.287  12.513  1.5327  0.9373 -1.3220
13250TIP3   OH261164   2.584   0.603   0.944 -0.2017  0.3245  0.3296
13250TIP3    H161165   2.631   0.674   0.989  1.0217 -0.5912  0.5549
13250TIP3    H261166   2.574   0.634   0.854  0.0722  0.8865  0.4846
13251TIP3   OH261167   5.173   1.814  11.832  0.0934 -0.6485  0.4602
13251TIP3    H161168   5.265   1.839  11.839  0.3778 -1.7273  0.7125
13251TIP3    H261169   5.134   1.841  11.915 -0.0721  0.7540 -0.0456
13252TIP3   OH261170   4.119   3.061  11.521  0.5162  0.4460 -0.1594
13252TIP3    H161171   4.038   3.057  11.471 -0.0855  1.1035  0.7325
13252TIP3    H261172   4.120   2.979  11.570 -0.0151  0.7760  0.4182
13253TIP3   OH261173   6.607   2.982  16.627 -0.1820  0.0674 -0.0279
13253TIP3    H161174   6.600   2.900  16.580  2.1032 -0.0546 -0.2856
13253TIP3    H261175   6.691   2.976  16.674  0.6768  2.6896 -1.0278
13254TIP3   OH261176   2.345   0.345  15.313 -0.9363 -0.4171  0.5042
13254TIP3    H161177   2.395   0.274  15.354 -0.0764 -1.7848 -2.6325
13254TIP3    H261178   2.264   0.303  15.282 -0.3520 -0.1526 -1.5253
13255TIP3   OH261179   2.865   2.851  16.284  0.2618 -0.2371  0.6445
13255TIP3    H161180   2.908   2.776  16.242  1.2679 -0.3087  1.7400
13255TIP3    H261181   2.924   2.875  16.356  0.0230  1.6858  0.2496
13256TIP3   OH261182   3.086   4.936   6.371 -0.2841 -0.5961 -0.0384
13256TIP3    H161183   3.171   4.943   6.329 -0.4929  0.3005 -0.3398
13256TIP3    H261184   3.070   4.842   6.378 -0.6099 -0.8291 -2.7468
13257TIP3   OH261185   0.333   6.390   1.510  0.3808 -0.5124  0.0867
13257TIP3    H161186   0.323   6.338   1.430 -0.8387 -2.6126  1.4893
13257TIP3    H261187   0.427   6.405   1.518  0.4702  0.6198 -2.1964
13258TIP3   OH261188   4.416   6.102  11.464 -0.2805 -0.0659  0.0030
13258TIP3    H161189   4.446   6.150  11.541  0.7392 -0.4115 -0.1594
13258TIP3    H261190   4.490   6.046  11.441 -0.8866 -0.5822 -0.7269
13259TIP3   OH261191   3.935   1.662   5.914  0.3858 -0.1748 -0.3239
13259TIP3    H161192   3.996   1.614   5.970 -0.5914  0.9365  1.8222
13259TIP3    H261193   3.983   1.740   5.886  0.7622 -0.5632 -0.7820
13260TIP3   OH261194   3.358   1.425  13.124 -0.1400 -0.1857 -0.0694
13260TIP3    H161195   3.417   1.409  13.051  0.3769  0.0791  0.2853
13260TIP3    H261196   3.401   1.386  13.200 -1.0063 -1.0865 -0.0196
13261TIP3   OH261197   0.515   4.965  14.860 -0.5747  0.1814  0.1924
13261TIP3    H161198   0.486   4.876  14.881  0.5220 -0.2660 -0.1260
13261TIP3    H261199   0.434   5.015  14.855 -1.1862 -0.6987  0.8235
13262TIP3   OH261200   2.499   6.316  13.931  0.1884 -0.3137  0.7266
13262TIP3    H161201   2.542   6.294  13.848 -1.2178  0.7778 -0.3653
13262TIP3    H261202   2.444   6.240  13.951  1.4459 -1.0920  1.3447
13263TIP3   OH261203   5.820   6.277  14.255 -0.2932 -0.4788  0.1729
13263TIP3    H161204   5.905   6.314  14.277 -0.1381  0.0209 -1.1971
13263TIP3    H261205   5.817   6.194  14.303  0.3924  0.1214  1.2828
13264TIP3   OH261206   2.978   0.291  13.852 -0.2972 -0.3666  0.4701
13264TIP3    H161207   2.916   0.218  13.856  0.1255 -0.8125 -0.6864
13264TIP3    H261208   3.055   0.259  13.900  0.3421 -1.1739 -1.0294
13265TIP3   OH261209   4.223   2.865   4.342  0.1022  0.2622 -0.3678
13265TIP3    H161210   4.277   2.907   4.274 -1.0006  1.0843 -0.7631
13265TIP3    H261211   4.287   2.835   4.407  0.9912  2.4315 -0.1418
13266TIP3   OH261212   0.236   2.566   5.851 -0.3295 -0.9038 -0.1414
13266TIP3    H161213   0.182   2.493   5.881 -0.2913 -0.3384  1.4297
13266TIP3    H261214   0.220   2.635   5.915  0.9698 -0.1430 -0.5974
13267TIP3   OH261215   6.720   1.595   1.725 -0.0589 -0.4856  0.8732
13267TIP3    H161216   6.628   1.603   1.748 -0.3596 -1.7894  0.2248
13267TIP3    H261217   6.741   1.675   1.677 -0.5688  0.2818  1.9023
13268TIP3   OH261218   2.408   1.944   1.743 -0.0354 -0.5327 -0.1976
13268TIP3    H161219   2.459   1.863   1.746 -1.0494 -1.1596  0.6166
13268TIP3    H261220   2.453   1.998   1.677  1.3256 -1.2802  0.0859
13269TIP3   OH261221   6.055   3.369   0.674  0.4513 -0.0757 -0.2536
13269TIP3    H161222   5.974   3.420   0.672  1.2925  1.3534  0.2405
13269TIP3    H261223   6.033   3.292   0.727 -0.4894  0.4763  0.1949
13270TIP3   OH261224   3.477   1.143   4.778 -0.2532  0.5220 -0.8346
13270TIP3    H161225   3.520   1.175   4.857  0.3303  0.0452 -0.9501
13270TIP3    H261226   3.435   1.062   4.805 -1.6569  1.2997 -0.5645
13271TIP3   OH261227   2.191   3.803  15.568 -0.6455  0.7477  0.0775
13271TIP3    H161228   2.244   3.864  15.516 -0.1176 -0.9737 -1.5177
13271TIP3    H261229   2.250   3.730  15.587 -2.6152 -1.8965 -2.9251
13272TIP3   OH261230   3.489   6.101  11.521 -0.3104 -0.0969 -0.1867
13272TIP3    H161231   3.425   6.057  11.578 -2.7407  0.3901 -2.3491
13272TIP3    H261232   3.509   6.036  11.454 -0.4963  0.5837 -0.9179
13273TIP3   OH261233   1.586   5.764   4.196  0.4537  0.1663 -0.5309
13273TIP3    H161234   1.515   5.747   4.134  0.0205  0.0622 -0.0128
13273TIP3    H261235   1.543   5.802   4.272  1.2472  2.6249 -1.2074
13274TIP3   OH261236   5.041   5.552   2.082 -0.1567 -0.1752 -0.5183
13274TIP3    H161237   4.997   5.573   2.165  0.3371  0.4773 -0.4140
13274TIP3    H261238   5.004   5.468   2.056  0.2248 -0.7784  0.7677
13275TIP3   OH261239   0.141   2.086   2.735 -0.0433 -0.4781  0.5314
13275TIP3    H161240   0.092   2.154   2.781  0.6612  0.6797 -0.3693
13275TIP3    H261241   0.193   2.133   2.670 -0.5424 -1.9951 -1.0558
13276TIP3   OH261242   5.473   2.375   0.409  0.0317 -0.3865  0.0497
13276TIP3    H161243   5.474   2.339   0.498  0.5272 -1.2781 -0.3016
13276TIP3    H261244   5.384   2.408   0.398  0.0610  0.0208  0.9887
13277TIP3   OH261245   5.030   0.091  11.636  0.4550  0.6687  0.0650
13277TIP3    H161246   5.120   0.125  11.629  1.0002 -0.7235 -0.1225
13277TIP3    H261247   5.016   0.045  11.553 -0.1790  0.2936  0.3755
13278TIP3   OH261248   6.083   3.817  12.763 -0.5714 -0.0713 -0.0480
13278TIP3    H161249   6.076   3.794  12.671  2.2760 -0.6839 -0.2158
13278TIP3    H261250   6.071   3.912  12.765 -2.8888 -0.3063 -0.6844
13279TIP3   OH261251   0.881   3.535   1.813  0.7394  0.0186  0.3380
13279TIP3    H161252   0.807   3.585   1.781  0.5722  1.0403  2.1897
13279TIP3    H261253   0.887   3.460   1.753 -0.9125  0.6288 -0.6573
13280TIP3   OH261254   2.348   4.909   0.139  0.0879  0.1199 -0.2358
13280TIP3    H161255   2.380   4.826   0.173 -2.2498 -1.5517 -1.7528
13280TIP3    H261256   2.317   4.957   0.215 -1.7035 -1.9451  0.4311
13281TIP3   OH261257   5.702   4.284  15.006  0.4115 -0.2187  0.0953
13281TIP3    H161258   5.705   4.289  14.911  0.8935  2.4539  0.1656
13281TIP3    H261259   5.791   4.308  15.034  0.0144 -0.0092  1.2211
13282TIP3   OH261260   2.217   1.358   1.862  0.0304 -0.6854 -0.3564
13282TIP3    H161261   2.225   1.329   1.952 -2.5244 -0.2352  0.0891
13282TIP3    H261262   2.185   1.448   1.869 -0.1794 -0.6342 -1.6986
13283TIP3   OH261263   5.492   5.634   6.947 -0.4097 -0.0242 -0.0375
13283TIP3    H161264   5.536   5.718   6.931 -1.5267  0.2150 -2.3792
13283TIP3    H261265   5.544   5.570   6.899 -0.0548 -0.5309  1.0136
13284TIP3   OH261266   0.411   1.085  13.269 -0.0443  0.2219 -0.7691
13284TIP3    H161267   0.462   1.052  13.194  0.0560 -3.8913  0.8159
13284TIP3    H261268   0.467   1.068  13.345 -1.3863  1.3351  0.5322
13285TIP3   OH261269   4.511   4.110   5.116 -0.4469  0.3355  0.0092
13285TIP3    H161270   4.451   4.136   5.045  0.3719  0.3104 -0.7172
13285TIP3    H261271   4.575   4.181   5.120  2.0878 -1.5564 -2.2941
13286TIP3   OH261272   3.360   2.848   0.252 -0.6656  0.9437  0.5678
13286TIP3    H161273   3.361   2.800   0.336  0.9839 -2.8719 -1.3759
13286TIP3    H261274   3.423   2.919   0.264  0.3069 -0.1434  2.2676
13287TIP3   OH261275   2.803   1.819  12.706 -0.3428  0.2591 -0.2577
13287TIP3    H161276   2.750   1.751  12.748 -1.4850  0.6549 -0.9947
13287TIP3    H261277   2.775   1.900  12.746 -1.5002  0.6512 -1.7573
13288TIP3   OH261278   0.431   2.286   0.662 -0.0573  0.3690 -0.1637
13288TIP3    H161279   0.416   2.348   0.734  2.5207  1.3773 -0.3783
13288TIP3    H261280   0.364   2.308   0.597  0.1264  2.2468  0.2277
13289TIP3   OH261281   0.413   6.468  16.669  0.4812  1.0550 -0.4258
13289TIP3    H161282   0.445   6.537  16.611  3.3885  0.1909 -0.0138
13289TIP3    H261283   0.472   6.470  16.744  0.2362 -1.3961 -0.0765
13290TIP3   OH261284   3.600   1.431  14.028 -0.5715  0.2548 -0.2033
13290TIP3    H161285   3.527   1.482  14.062 -1.0320 -1.7123  2.0661
13290TIP3    H261286   3.678   1.482  14.051 -1.0956  1.3431 -0.7423
13291TIP3   OH261287   0.831   2.872   5.316  0.0713  0.0065 -0.3351
13291TIP3    H161288   0.890   2.868   5.391 -0.1307 -2.6178 -0.2198
13291TIP3    H261289   0.762   2.933   5.343  1.8411  1.8887  0.1366
13292TIP3   OH261290   1.797   5.744   3.550  0.0526  0.2560 -0.4434
13292TIP3    H161291   1.842   5.812   3.600  2.6169 -0.1293 -2.0576
13292TIP3    H261292   1.834   5.662   3.582 -0.3259 -0.1579 -1.0520
13293TIP3   OH261293   2.250   4.238  17.282  0.3247 -0.1353 -0.1762
13293TIP3    H161294   2.325   4.206  17.232 -0.2320 -0.3587 -0.8812
13293TIP3    H261295   2.245   4.331  17.259  1.3771  0.2714  1.1514
13294TIP3   OH261296   4.126   6.097   6.688  0.7406 -0.6560 -0.2145
13294TIP3    H161297   4.172   6.027   6.733  1.1578 -0.3736 -0.1894
13294TIP3    H261298   4.170   6.103   6.603  0.7999 -0.3383 -0.1637
13295TIP3   OH261299   4.700   4.863   5.037  0.6036 -0.1087 -0.2439
13295TIP3    H161300   4.630   4.817   4.992  1.5972 -1.3570 -0.6026
13295TIP3    H261301   4.743   4.794   5.090 -0.0992  1.1415  2.1066
13296TIP3   OH261302   0.450   2.633  16.656 -0.2032 -0.0358  0.0546
13296TIP3    H161303   0.539   2.667  16.659  0.0575 -0.7509  1.8619
13296TIP3    H261304   0.394   2.710  16.669  0.1327  0.3932 -0.9584
13297TIP3   OH261305   6.465   0.233  16.857  0.6268  0.3839  0.3148
13297TIP3    H161306   6.428   0.154  16.898  0.3946 -0.0003 -0.6041
13297TIP3    H261307   6.557   0.232  16.884  1.1540 -1.3596 -1.3286
13298TIP3   OH261308   1.800   0.142  13.383 -0.2895  0.3523  0.0547
13298TIP3    H161309   1.761   0.223  13.415  0.1031 -0.0547  1.6357
13298TIP3    H261310   1.830   0.096  13.462 -0.7842 -1.4880 -0.7643
13299TIP3   OH261311   2.343   4.493  16.367 -0.2599 -0.3414 -0.1891
13299TIP3    H161312   2.319   4.553  16.438 -1.4951 -1.6740  0.5646
13299TIP3    H261313   2.438   4.494  16.366 -0.2064 -0.3535  1.5633
13300TIP3   OH261314   0.066   2.576   6.698 -0.3591  0.2296  0.0199
13300TIP3    H161315   0.119   2.496   6.699 -0.2092  0.3327  0.8149
13300TIP3    H261316   0.103   2.628   6.626  0.8832  0.4663  0.7864
13301TIP3   OH261317   3.508   3.111   3.784 -0.1548 -0.9766 -0.0753
13301TIP3    H161318   3.589   3.084   3.825  1.0788 -0.3496 -1.9699
13301TIP3    H261319   3.517   3.205   3.772 -2.1317 -0.4885  1.6416
13302TIP3   OH261320   5.497   6.290  13.776 -0.1173  0.3276 -0.1842
13302TIP3    H161321   5.532   6.356  13.715  1.7905  0.1191  0.6048
13302TIP3    H261322   5.443   6.339  13.837  0.1203  0.9530 -0.4709
13303TIP3   OH261323   0.193   5.045  17.209 -0.0976 -0.1392  0.1389
13303TIP3    H161324   0.269   5.076  17.159 -1.3514  0.8120 -1.2886
13303TIP3    H261325   0.174   5.116  17.270 -0.6855  0.2805 -0.5135
13304TIP3   OH261326   1.794   5.535  13.146 -0.0542 -1.1330  0.0534
13304TIP3    H161327   1.800   5.563  13.238 -0.0173 -2.7020  0.5614
13304TIP3    H261328   1.846   5.600  13.098  0.8771 -0.9115  1.2962
13305TIP3   OH261329   1.659   5.215   1.119 -0.3158 -0.1365 -0.0091
13305TIP3    H161330   1.648   5.134   1.069  0.5713 -1.2639  1.5264
13305TIP3    H261331   1.614   5.198   1.202  1.3562  0.2630  1.0159
13306TIP3   OH261332   2.700   1.809   5.661 -0.2284  0.3433 -0.0653
13306TIP3    H161333   2.710   1.896   5.699 -1.2146  0.4465 -0.0040
13306TIP3    H261334   2.782   1.792   5.615  0.8138  0.4162  1.7013
13307TIP3   OH261335   1.873   0.229  16.123 -0.7941 -0.2450 -1.0507
13307TIP3    H161336   1.812   0.264  16.188 -0.2089 -0.5699 -0.3161
13307TIP3    H261337   1.958   0.227  16.168 -0.2541  0.1285 -2.0355
13308TIP3   OH261338   2.474   0.126   1.595 -0.1744  0.0080  0.1115
13308TIP3    H161339   2.503   0.185   1.525 -0.3046  1.4133  1.2049
13308TIP3    H261340   2.535   0.053   1.591  2.0319  1.7154  0.7443
13309TIP3   OH261341   5.448   1.282   3.755  0.6532  0.2897 -0.3355
13309TIP3    H161342   5.439   1.187   3.762  1.7322  0.1650 -0.4139
13309TIP3    H261343   5.534   1.294   3.715 -0.1305  1.2625 -1.8131
13310TIP3   OH261344   2.135   6.663   2.246  0.3399  0.2866 -0.4623
13310TIP3    H161345   2.140   6.758   2.253 -0.5558  0.3583 -0.5979
13310TIP3    H261346   2.071   6.648   2.176  0.9948 -0.4129 -0.9196
13311TIP3   OH261347   0.890   0.729  14.837  0.2295 -0.4055  0.7987
13311TIP3    H161348   0.967   0.770  14.876 -1.7195  2.4772  1.9928
13311TIP3    H261349   0.825   0.730  14.907 -1.5712 -0.6599 -0.7824
13312TIP3   OH261350   4.877   1.517  14.739 -0.2456  0.5628  0.0322
13312TIP3    H161351   4.852   1.607  14.759  0.7790  0.9478 -0.3462
13312TIP3    H261352   4.874   1.513  14.643  0.9458  0.5746 -0.0109
13313TIP3   OH261353   2.110   2.888   2.910  0.0213 -0.3268 -0.0711
13313TIP3    H161354   2.110   2.951   2.838  2.6656 -0.9571 -0.7574
13313TIP3    H261355   2.155   2.934   2.982 -0.3762 -0.5487  0.3218
13314TIP3   OH261356   6.282   5.281  11.651 -0.6335  0.0395 -0.7036
13314TIP3    H161357   6.347   5.317  11.711 -1.2148  0.8439 -0.5231
13314TIP3    H261358   6.226   5.227  11.707 -0.8599  0.3639 -0.6092
13315TIP3   OH261359   6.638   3.398   5.264  0.0871  0.2702 -0.2575
13315TIP3    H161360   6.553   3.433   5.290  0.2760 -0.4123  1.3558
13315TIP3    H261361   6.700   3.439   5.324  0.8204  0.2042 -0.9527
13316TIP3   OH261362   6.640   6.017  16.192  0.1986 -0.2884  0.1579
13316TIP3    H161363   6.662   5.984  16.105  0.8669  1.9363 -0.5778
13316TIP3    H261364   6.724   6.046  16.229 -0.3188  0.4131  0.8133
13317TIP3   OH261365   4.008   2.514   6.066  0.0287  0.0889 -0.2468
13317TIP3    H161366   3.998   2.450   6.136  0.2790 -2.2757 -2.2556
13317TIP3    H261367   4.103   2.523   6.055 -0.0083  0.4756 -0.2567
13318TIP3   OH261368   5.609   4.968   5.144  0.0430  0.3559  0.1055
13318TIP3    H161369   5.676   5.030   5.115  0.8659 -0.3003  0.5744
13318TIP3    H261370   5.636   4.942   5.232 -0.2776 -0.6660 -0.0838
13319TIP3   OH261371   3.871   3.121  12.277  0.0653  0.5485  1.0552
13319TIP3    H161372   3.788   3.073  12.276  0.9647 -1.0866  1.8061
13319TIP3    H261373   3.849   3.205  12.317 -1.2430  0.1936  1.1326
13320TIP3   OH261374   0.222   6.022   1.828 -0.1883 -0.2858  0.2411
13320TIP3    H161375   0.221   5.959   1.756  0.8321 -0.2785  0.2085
13320TIP3    H261376   0.134   6.018   1.865 -0.5813 -0.6410 -0.7000
13321TIP3   OH261377   0.412   4.525   1.913 -0.3324 -0.1251 -0.4190
13321TIP3    H161378   0.424   4.524   2.008 -1.3847  0.1152 -0.2611
13321TIP3    H261379   0.382   4.614   1.894 -0.7147 -0.3498 -0.8822
13322TIP3   OH261380   3.956   6.088   0.105  0.3964  0.2130 -0.3822
13322TIP3    H161381   3.877   6.096   0.052  1.6060  0.5971 -2.2366
13322TIP3    H261382   3.999   6.173   0.097  1.3599 -0.2271 -0.0366
13323TIP3   OH261383   2.334   4.344  11.516 -0.2552  0.1885  0.0919
13323TIP3    H161384   2.267   4.302  11.462 -0.5626 -0.0928  0.6831
13323TIP3    H261385   2.285   4.399  11.577  0.0009 -0.6238  1.0492
13324TIP3   OH261386   3.557   0.936   1.621 -0.6156 -0.4233  0.1069
13324TIP3    H161387   3.565   0.930   1.526 -0.8605  0.7148  0.0080
13324TIP3    H261388   3.643   0.910   1.654  0.0380  0.8973 -0.5047
13325TIP3   OH261389   3.112   1.342  14.398  0.1118 -0.1431  0.2197
13325TIP3    H161390   3.157   1.260  14.421 -0.5989 -0.3293  1.0124
13325TIP3    H261391   3.024   1.331  14.432 -0.1764  0.7179 -0.2141
13326TIP3   OH261392   3.015   5.599  12.996 -0.4124 -0.1033 -0.1194
13326TIP3    H161393   3.086   5.661  13.010  0.3001 -1.0265  0.4443
13326TIP3    H261394   3.056   5.524  12.952 -1.1803 -0.3344 -0.4604
13327TIP3   OH261395   4.599   0.058  16.173 -0.1252  0.2083 -0.1184
13327TIP3    H161396   4.614   0.064  16.079 -0.0664  1.4815 -0.0483
13327TIP3    H261397   4.663  -0.006  16.204  1.0206  1.0438 -0.7033
13328TIP3   OH261398   5.765   5.627   6.013  0.2571  0.0373 -0.1365
13328TIP3    H161399   5.771   5.723   6.006  1.3910  0.1259  1.6597
13328TIP3    H261400   5.793   5.596   5.927  0.7614  1.3002 -0.4599
13329TIP3   OH261401   3.197   4.471  16.573 -0.4836 -0.4934 -0.1092
13329TIP3    H161402   3.139   4.518  16.514  0.4031 -0.2029 -0.7635
13329TIP3    H261403   3.238   4.539  16.626  0.5672 -0.5312 -0.8468
13330TIP3   OH261404   4.103   5.288  16.830 -0.0572 -0.0652  0.4227
13330TIP3    H161405   4.114   5.382  16.811 -0.7221 -0.0413  0.1361
13330TIP3    H261406   4.189   5.260  16.862  0.3075  0.5199 -0.0242
13331TIP3   OH261407   5.213   2.084   5.396  0.1574 -0.0876 -0.3096
13331TIP3    H161408   5.206   2.167   5.348 -1.2891 -0.3233 -0.5572
13331TIP3    H261409   5.205   2.109   5.488  0.5347  0.1240 -0.3326
13332TIP3   OH261410   0.318   1.038   1.446 -0.4268 -0.6065  0.4080
13332TIP3    H161411   0.411   1.022   1.465  0.0362  1.7582  0.4568
13332TIP3    H261412   0.298   1.120   1.493 -2.0320 -0.0918 -1.0845
13333TIP3   OH261413   4.711   0.754   4.753  0.1240  0.4206 -0.4342
13333TIP3    H161414   4.653   0.681   4.772  1.2115 -0.4504 -0.3467
13333TIP3    H261415   4.736   0.742   4.662 -0.7745  1.4832 -0.8374
13334TIP3   OH261416   2.052   4.787   6.565  0.0767 -0.2676  0.0285
13334TIP3    H161417   2.076   4.743   6.484 -0.1713 -0.1463 -0.1127
13334TIP3    H261418   2.127   4.774   6.623  0.5337  0.1989 -0.4446
13335TIP3   OH261419   3.171   0.813  15.682 -0.7115  0.4301 -0.4638
13335TIP3    H161420   3.179   0.718  15.674  0.2016  0.4815 -0.2928
13335TIP3    H261421   3.261   0.845  15.681 -0.9408  1.1955  0.7286
13336TIP3   OH261422   2.141   4.837  11.271  0.6445 -0.0792 -0.0050
13336TIP3    H161423   2.131   4.865  11.362  0.7885 -0.9521  0.2847
13336TIP3    H261424   2.213   4.774  11.272  1.1613  0.4745 -0.8526
13337TIP3   OH261425   4.063   2.993  14.361 -0.0294  0.1020 -0.0802
13337TIP3    H161426   4.072   2.902  14.331  0.3648 -1.1282  3.3574
13337TIP3    H261427   3.971   3.001  14.386  0.4198 -0.1555  1.7743
13338TIP3   OH261428   5.566   2.656  14.142  0.8036 -0.0392 -0.2466
13338TIP3    H161429   5.584   2.703  14.223  0.8065  0.0143 -0.2781
13338TIP3    H261430   5.475   2.630  14.149  0.8365 -0.1353 -0.1746
13339TIP3   OH261431   4.311   3.406   5.160 -0.0772  0.2697 -0.5955
13339TIP3    H161432   4.397   3.421   5.121  2.4444 -2.2007  3.3284
13339TIP3    H261433   4.293   3.485   5.210  1.3692 -0.2265  0.7800
13340TIP3   OH261434   1.490   3.968   1.044  0.6579 -0.6754 -0.0813
13340TIP3    H161435   1.398   3.994   1.046  0.9470  0.3612  0.0467
13340TIP3    H261436   1.527   4.016   0.971  1.1920 -0.7731  0.1234
13341TIP3   OH261437   0.980   3.628  11.546 -0.0457 -0.3715  0.3102
13341TIP3    H161438   0.982   3.635  11.641  2.4344 -3.4178  0.6738
13341TIP3    H261439   0.891   3.599  11.525 -1.1840  2.0697  1.3929
13342TIP3   OH261440   5.298   3.332  15.704  0.6280  0.1059 -0.0150
13342TIP3    H161441   5.369   3.296  15.756  0.1409  0.1184  0.6802
13342TIP3    H261442   5.223   3.333  15.763 -0.2483 -0.9484 -1.0557
13343TIP3   OH261443   6.033   4.969  13.345 -0.4705 -0.3172  0.0053
13343TIP3    H161444   6.037   4.935  13.435  1.7660  0.3320  0.2247
13343TIP3    H261445   6.031   5.065  13.356  0.6630 -0.2075 -0.6143
13344TIP3   OH261446   5.363   6.485  17.106  0.0992  0.0076  0.3891
13344TIP3    H161447   5.341   6.411  17.162  0.2188 -0.6663 -0.4271
13344TIP3    H261448   5.437   6.528  17.150  1.4092 -1.5942 -0.1480
13345TIP3   OH261449   2.416   4.057   3.426 -0.1920 -0.0201  0.3548
13345TIP3    H161450   2.441   4.072   3.518  1.9019 -3.5722  0.5451
13345TIP3    H261451   2.498   4.034   3.382 -1.6638 -2.1642 -1.4811
13346TIP3   OH261452   2.949   5.664  17.160 -0.1536 -0.1970 -0.2522
13346TIP3    H161453   2.884   5.618  17.107 -0.7360  2.0121 -1.5932
13346TIP3    H261454   3.033   5.626  17.133 -0.6920 -1.4172 -0.2580
13347TIP3   OH261455   5.477   0.982   5.331 -0.1354  0.1085 -0.4179
13347TIP3    H161456   5.502   0.961   5.421 -1.0678 -1.6199 -0.5360
13347TIP3    H261457   5.384   1.002   5.335  0.4636  3.6104 -0.4772
13348TIP3   OH261458   0.695   2.553  16.033  0.5201  0.3514 -0.1748
13348TIP3    H161459   0.656   2.620  16.089 -0.0829 -0.1667  0.0439
13348TIP3    H261460   0.759   2.510  16.088  0.6671  0.5241 -0.2101
13349TIP3   OH261461   2.306   5.193   2.822  0.5643  0.5318  0.0877
13349TIP3    H161462   2.219   5.153   2.829  1.2959 -1.0498  0.7357
13349TIP3    H261463   2.289   5.287   2.818 -1.2096  0.2127 -0.7568
13350TIP3   OH261464   5.122   4.451   0.228  0.4335 -0.5819 -0.7784
13350TIP3    H161465   5.084   4.364   0.242 -2.1993  0.5479 -0.2234
13350TIP3    H261466   5.215   4.434   0.212  0.6759 -3.2775  2.3066
13351TIP3   OH261467   4.215   0.267   4.981 -0.2481  0.2174 -0.2360
13351TIP3    H161468   4.148   0.335   4.974 -0.4565  0.0248 -0.1214
13351TIP3    H261469   4.196   0.207   4.909  0.7726  1.0029 -1.1917
13352TIP3   OH261470   0.177   2.220   6.357  0.2496  0.6332  0.5039
13352TIP3    H161471   0.232   2.246   6.284  1.3664 -3.2687 -0.2824
13352TIP3    H261472   0.095   2.191   6.317  0.2281  0.0737  0.9332
13353TIP3   OH261473   4.357   4.249  16.589  0.2780 -0.1218 -0.0688
13353TIP3    H161474   4.412   4.179  16.554  1.8440  1.4246 -0.8990
13353TIP3    H261475   4.268   4.226  16.562  0.8606 -1.3579 -1.0522
13354TIP3   OH261476   6.130   5.812   2.469 -0.0789 -0.2006  0.6384
13354TIP3    H161477   6.202   5.873   2.489 -1.4417  0.8626  2.5917
13354TIP3    H261478   6.132   5.805   2.374  1.9635  0.5899  0.5554
13355TIP3   OH261479   1.664   0.342  13.478  0.3729  0.2386 -0.3009
13355TIP3    H161480   1.655   0.382  13.564  1.4690 -0.1955  0.0401
13355TIP3    H261481   1.575   0.319  13.452 -0.2997  2.6913 -0.4392
13356TIP3   OH261482   3.816   4.684   0.330  0.1035 -0.3239 -0.7693
13356TIP3    H161483   3.769   4.712   0.251 -0.0728 -0.0497 -0.5704
13356TIP3    H261484   3.907   4.673   0.302  0.0986  0.0641 -0.9425
13357TIP3   OH261485   2.971   6.736  14.332 -0.3945 -0.5219 -0.1036
13357TIP3    H161486   3.021   6.771  14.405 -2.0665  0.4350  0.6329
13357TIP3    H261487   2.879   6.754  14.354 -0.9990 -1.0043 -2.0151
13358TIP3   OH261488   5.062   6.108   4.901 -0.1344 -0.6774 -0.8173
13358TIP3    H161489   4.980   6.069   4.931  0.1772  0.3707  1.6472
13358TIP3    H261490   5.120   6.034   4.887 -0.8203 -1.3223 -0.3402
13359TIP3   OH261491   6.008   0.106   0.175  0.4279  0.1701  0.1864
13359TIP3    H161492   6.089   0.132   0.219 -0.2716  0.9867  1.0361
13359TIP3    H261493   5.997   0.170   0.105  1.2391 -0.7912 -0.8708
13360TIP3   OH261494   3.559   5.812  13.538 -0.1736 -0.2245 -0.2966
13360TIP3    H161495   3.574   5.897  13.496 -0.6274  0.3511  0.6869
13360TIP3    H261496   3.465   5.809  13.552 -0.0731 -0.5902  0.3027
13361TIP3   OH261497   6.356   0.469   5.279 -0.2144  0.1571  0.2958
13361TIP3    H161498   6.323   0.558   5.293  2.8024  1.3949  0.4095
13361TIP3    H261499   6.345   0.454   5.185 -3.5827 -0.7221  0.6964
13362TIP3   OH261500   0.586   6.590   4.911  0.2448 -0.7255  0.4670
13362TIP3    H161501   0.548   6.524   4.853 -0.8868  0.5440 -0.2978
13362TIP3    H261502   0.549   6.570   4.997 -0.4844 -0.8025  0.1457
13363TIP3   OH261503   0.217   2.238  16.758 -0.6066 -0.0782 -0.2521
13363TIP3    H161504   0.255   2.193  16.833 -1.1756 -0.7333 -0.3487
13363TIP3    H261505   0.127   2.256  16.784 -0.7364 -0.0967 -0.6909
13364TIP3   OH261506   2.869   3.488   1.823  0.1442 -0.4515 -0.5424
13364TIP3    H161507   2.864   3.398   1.854  1.0500 -0.2939  0.0897
13364TIP3    H261508   2.809   3.536   1.879  0.1473 -0.5485 -0.4550
13365TIP3   OH261509   5.228   1.962  14.716  0.3404  0.3211  0.6100
13365TIP3    H161510   5.188   1.877  14.702  1.0594  0.0613  0.0528
13365TIP3    H261511   5.296   1.968  14.649  2.4013 -0.0083  2.5205
13366TIP3   OH261512   1.768   5.282   2.863  0.0451 -0.0444  0.3759
13366TIP3    H161513   1.785   5.198   2.906  1.4400 -0.3391 -0.6735
13366TIP3    H261514   1.845   5.335   2.882 -1.1152  1.2781  1.5961
13367TIP3   OH261515   6.358   4.296   4.276 -0.3868 -0.0606  0.6935
13367TIP3    H161516   6.317   4.381   4.254 -1.0863 -0.0685  1.8648
13367TIP3    H261517   6.438   4.320   4.323  0.1780 -0.0547 -0.2509
13368TIP3   OH261518   2.847   4.754  17.064  0.2612 -0.4166  0.0194
13368TIP3    H161519   2.801   4.837  17.074 -0.0915 -0.3885 -1.5743
13368TIP3    H261520   2.792   4.690  17.110  0.2344  0.1269  0.7481
13369TIP3   OH261521   6.397   4.855  14.739 -0.4116 -0.5999 -0.0541
13369TIP3    H161522   6.351   4.937  14.752  0.3868 -0.3286  1.2038
13369TIP3    H261523   6.331   4.795  14.706 -1.5107 -0.0447  1.0670
13370TIP3   OH261524   3.847   2.624  15.983 -0.0918 -0.4586 -0.4495
13370TIP3    H161525   3.932   2.593  16.013  0.9913  2.2222 -0.4902
13370TIP3    H261526   3.794   2.631  16.062 -0.2322 -1.8869 -0.3931
13371TIP3   OH261527   4.385   3.234   1.485 -0.3819  0.1340  0.4806
13371TIP3    H161528   4.433   3.168   1.435 -0.9567 -0.9901  1.3651
13371TIP3    H261529   4.403   3.212   1.577 -0.5681  1.2314  0.7975
13372TIP3   OH261530   3.662   6.134  14.848 -0.6143 -0.4824  0.3445
13372TIP3    H161531   3.713   6.182  14.913 -1.5587 -0.7871  1.3400
13372TIP3    H261532   3.651   6.046  14.885  0.9552 -1.4745 -1.3787
13373TIP3   OH261533   1.754   0.447   2.678  0.1045 -0.1273 -0.0182
13373TIP3    H161534   1.752   0.418   2.587 -0.3010  0.7328 -0.2898
13373TIP3    H261535   1.846   0.447   2.701  0.2681  0.3618 -0.6617
13374TIP3   OH261536   1.126   1.244   5.060 -0.0747 -0.2854  0.4189
13374TIP3    H161537   1.132   1.154   5.093  0.0314 -1.4024 -2.3414
13374TIP3    H261538   1.033   1.256   5.041 -0.0063 -0.0249  0.2442
13375TIP3   OH261539   4.379   3.065  14.229  0.0494  0.3583 -0.3747
13375TIP3    H161540   4.287   3.042  14.211  0.2111 -0.4212 -0.2702
13375TIP3    H261541   4.426   3.037  14.151  0.4312 -0.9129  0.2781
13376TIP3   OH261542   5.865   6.267  13.033  0.2232  0.0567 -0.5730
13376TIP3    H161543   5.785   6.215  13.042 -1.4433  2.6808  1.2260
13376TIP3    H261544   5.868   6.321  13.112  3.2172  0.8774 -1.1057
13377TIP3   OH261545   0.350   0.859  16.229  0.5879 -0.3765 -0.2293
13377TIP3    H161546   0.263   0.820  16.239  0.0120  0.9969  0.4092
13377TIP3    H261547   0.341   0.920  16.156  0.8754  0.0995  0.1212
13378TIP3   OH261548   2.883   5.773  10.696 -0.9341 -0.1640 -0.0331
13378TIP3    H161549   2.820   5.797  10.628 -0.2045  2.0936 -0.0044
13378TIP3    H261550   2.840   5.798  10.778 -0.0192  1.4980 -0.0227
13379TIP3   OH261551   6.688   2.374  14.154  0.2966  0.9013  0.4411
13379TIP3    H161552   6.768   2.343  14.196 -0.1847 -2.8796 -1.0633
13379TIP3    H261553   6.719   2.428  14.081  1.4262  0.6678  0.7263
13380TIP3   OH261554   1.332   5.617   3.107 -0.3259 -0.4864 -0.0607
13380TIP3    H161555   1.330   5.623   3.202  2.1007  0.9618  0.0033
13380TIP3    H261556   1.244   5.642   3.079 -0.6998  0.4113  1.7750
13381TIP3   OH261557   0.429   5.484  14.325 -0.4033  0.2046 -0.1900
13381TIP3    H161558   0.454   5.538  14.250  0.7904 -0.0487  0.0110
13381TIP3    H261559   0.408   5.547  14.394 -0.3269  0.4304 -0.3717
13382TIP3   OH261560   2.262   6.373   1.979  0.5274 -0.1109  0.0433
13382TIP3    H161561   2.348   6.415   1.979  0.5581 -0.1352 -1.1324
13382TIP3    H261562   2.200   6.444   1.997  0.7104  0.1032 -0.1744
13383TIP3   OH261563   5.506   0.763  14.291  0.0838  0.3290  0.7400
13383TIP3    H161564   5.569   0.691  14.285  0.1595  0.3812  0.9175
13383TIP3    H261565   5.421   0.722  14.274  0.2183  0.3531 -0.0597
13384TIP3   OH261566   1.704   3.547   4.574  0.0856 -0.1696 -0.5610
13384TIP3    H161567   1.637   3.533   4.508  2.4417 -1.8504 -2.8010
13384TIP3    H261568   1.683   3.485   4.644 -0.7677 -0.5536 -1.1513
13385TIP3   OH261569   5.036   5.023   3.744  0.3736 -0.1520 -0.3290
13385TIP3    H161570   5.010   4.962   3.812  0.1035 -0.2871 -0.5487
13385TIP3    H261571   4.955   5.070   3.721  0.1945 -0.9417 -1.3905
13386TIP3   OH261572   0.411   5.148   3.242 -0.0241  0.4908  0.2349
13386TIP3    H161573   0.341   5.085   3.258 -0.3586  0.5632 -0.8399
13386TIP3    H261574   0.366   5.227   3.210  0.4313  1.0905  1.0423
13387TIP3   OH261575   0.091   5.653  14.257  0.1403  0.8406  0.2755
13387TIP3    H161576   0.094   5.589  14.186 -1.6072  0.3511  0.6022
13387TIP3    H261577   0.117   5.604  14.335  1.9474  1.3498  0.0388
13388TIP3   OH261578   4.087   1.953   5.041  0.5026 -0.1205 -0.8560
13388TIP3    H161579   4.151   2.023   5.049  0.3232 -0.1207  0.8050
13388TIP3    H261580   4.003   1.998   5.032  0.6076 -0.1295 -2.0458
13389TIP3   OH261581   5.564   4.394   4.922 -0.1384  0.3086  0.3583
13389TIP3    H161582   5.524   4.340   4.854 -1.1299  0.5626  0.7206
13389TIP3    H261583   5.581   4.334   4.994  0.0290  0.2190  0.2439
13390TIP3   OH261584   4.407   3.608  14.693 -0.3697 -0.1418 -0.3660
13390TIP3    H161585   4.502   3.601  14.703 -0.3617  0.9758  0.5395
13390TIP3    H261586   4.391   3.596  14.600  0.5925 -0.9629 -0.4401
13391TIP3   OH261587   3.728   4.807   4.786  0.0376  0.4629 -0.3028
13391TIP3    H161588   3.698   4.873   4.725 -1.2547  0.2920  0.1216
13391TIP3    H261589   3.783   4.748   4.733  0.7191  1.5123 -0.8009
13392TIP3   OH261590   2.374   4.419   2.209  0.5510  0.2465  0.0694
13392TIP3    H161591   2.367   4.332   2.250  2.2912  0.1799  0.3118
13392TIP3    H261592   2.286   4.439   2.180  0.1223 -1.6614 -0.0845
13393TIP3   OH261593   4.728   3.353   2.076  0.2548 -0.1978 -0.1955
13393TIP3    H161594   4.670   3.363   2.000 -1.5129 -0.9065  1.0107
13393TIP3    H261595   4.731   3.440   2.115 -1.1833 -0.4494  0.5332
13394TIP3   OH261596   6.472   3.013   1.052  0.0096 -0.2472  0.2871
13394TIP3    H161597   6.505   2.926   1.028 -0.9703 -0.5223 -0.0846
13394TIP3    H261598   6.444   3.052   0.970  0.9248  0.6499  0.3714
13395TIP3   OH261599   0.129   1.392   3.749  0.0340  0.0388  0.4518
13395TIP3    H161600   0.223   1.373   3.749  0.3043  1.2940  0.3691
13395TIP3    H261601   0.105   1.394   3.841  0.2446  0.4071  0.5018
13396TIP3   OH261602   1.196   3.228   0.612 -0.1021  0.1954  0.5167
13396TIP3    H161603   1.210   3.233   0.706 -0.3317  0.5571  0.5326
13396TIP3    H261604   1.273   3.181   0.578  1.4303  2.5315  0.5405
13397TIP3   OH261605   5.434   6.627   1.718 -0.1949 -0.7409 -0.5642
13397TIP3    H161606   5.521   6.662   1.737  0.9386  0.2547 -5.8307
13397TIP3    H261607   5.451   6.536   1.693 -1.1395 -1.2783  0.6475
13398TIP3   OH261608   4.531   1.436  16.787  0.2702  0.0212  0.5513
13398TIP3    H161609   4.543   1.527  16.816 -3.4153  1.0052 -0.4014
13398TIP3    H261610   4.447   1.410  16.825  1.5259 -3.3555  1.3775
13399TIP3   OH261611   5.150   5.379  13.944 -0.1255  0.0919  0.2080
13399TIP3    H161612   5.120   5.288  13.954 -2.4763  0.8667  1.0251
13399TIP3    H261613   5.100   5.412  13.869  1.2182  0.5510 -0.5121
13400TIP3   OH261614   0.345   6.311   1.249  0.2744 -0.1738 -0.0103
13400TIP3    H161615   0.359   6.217   1.240  3.0803  0.0901  0.8344
13400TIP3    H261616   0.403   6.351   1.185 -0.0520  1.0192  0.4053
13401TIP3   OH261617   3.640   6.470  15.839 -0.3493  0.1012 -0.0374
13401TIP3    H161618   3.632   6.516  15.922  1.5870 -0.7837  0.6961
13401TIP3    H261619   3.563   6.496  15.789 -1.5769  0.6075  2.0401
13402TIP3   OH261620   3.369   6.412  11.956  0.3376 -0.6066  0.1068
13402TIP3    H161621   3.361   6.385  11.864 -1.7104  0.7057 -0.1728
13402TIP3    H261622   3.322   6.344  12.005 -0.9100  0.0460 -0.1351
13403TIP3   OH261623   4.189   1.158  14.350  0.4689 -0.0428  0.1416
13403TIP3    H161624   4.125   1.123  14.288 -0.1271  2.2076 -0.6215
13403TIP3    H261625   4.272   1.156  14.302  0.5618 -0.9626  0.3348
13404TIP3   OH261626   0.431   6.562   4.455  0.0129 -0.7914 -0.3297
13404TIP3    H161627   0.388   6.582   4.372  0.0173 -3.1628 -0.9638
13404TIP3    H261628   0.360   6.537   4.514  0.2854 -2.3706 -0.6512
13405TIP3   OH261629   1.525   1.871  13.151 -0.5733 -0.4946 -0.3651
13405TIP3    H161630   1.515   1.887  13.244  0.5754  1.0571 -0.4837
13405TIP3    H261631   1.524   1.775  13.143  0.6056 -0.7033  1.4007
13406TIP3   OH261632   4.402   0.673  11.543  0.3807 -0.2291  0.1213
13406TIP3    H161633   4.497   0.669  11.549  0.5160 -0.4538 -1.6578
13406TIP3    H261634   4.384   0.738  11.475 -0.7026 -0.8799 -0.2447
13407TIP3   OH261635   2.194   0.351   5.229 -0.1993 -0.4566  0.0259
13407TIP3    H161636   2.203   0.333   5.136  1.6415 -0.1478  0.1159
13407TIP3    H261637   2.199   0.264   5.271 -1.0910 -0.6016 -0.1298
13408TIP3   OH261638   1.267   4.776  11.375  0.2597 -0.2287  0.1153
13408TIP3    H161639   1.354   4.741  11.357  0.0316 -0.2191 -1.1090
13408TIP3    H261640   1.264   4.785  11.470  1.1820 -1.2850  0.2645
13409TIP3   OH261641   5.145   3.170   3.028 -0.2393  0.1784 -0.9250
13409TIP3    H161642   5.204   3.245   3.019 -0.3168  0.6352  1.6423
13409TIP3    H261643   5.199   3.094   3.006  0.8783  0.7188 -0.1480
13410TIP3   OH261644   1.967   6.403  16.725  0.4861 -0.3392 -0.3200
13410TIP3    H161645   1.900   6.375  16.663 -0.1253  0.2394  0.0675
13410TIP3    H261646   2.048   6.404  16.674  0.2302 -1.2023 -0.7482
13411TIP3   OH261647   4.664   4.622   0.836 -1.0130 -0.1351  0.1019
13411TIP3    H161648   4.666   4.673   0.754  0.7309 -1.5816 -0.8472
13411TIP3    H261649   4.710   4.677   0.899 -2.6071  1.1174  0.2292
13412TIP3   OH261650   3.908   4.402  11.617 -0.7943 -0.4529 -0.5898
13412TIP3    H161651   3.948   4.425  11.701 -0.4500 -1.2405 -0.5321
13412TIP3    H261652   3.851   4.327  11.638 -1.6025  0.0810 -0.8412
13413TIP3   OH261653   2.177   1.532  12.241 -0.3581  0.6321  0.0461
13413TIP3    H161654   2.176   1.594  12.314 -2.6504 -1.7777  2.3054
13413TIP3    H261655   2.092   1.544  12.198  0.6131  1.4094 -1.7711
13414TIP3   OH261656   2.283   4.402   6.556  0.0013 -0.0914 -0.1482
13414TIP3    H161657   2.363   4.444   6.525  0.3523 -1.1533 -0.7325
13414TIP3    H261658   2.235   4.378   6.477 -0.2930 -0.5891  0.1683
13415TIP3   OH261659   1.864   1.136  15.339 -0.1462 -0.0868  0.4785
13415TIP3    H161660   1.778   1.171  15.360 -0.0171 -0.9079  2.6743
13415TIP3    H261661   1.924   1.209  15.353 -0.2802 -0.0951  1.1383
13416TIP3   OH261662   6.487   2.182  15.070  0.6668  0.3877  0.6646
13416TIP3    H161663   6.400   2.206  15.102  0.3318 -0.2968  0.2838
13416TIP3    H261664   6.527   2.265  15.044 -0.1674  0.6162  0.0967
13417TIP3   OH261665   0.087   5.621   3.285  0.1634 -0.0542 -0.3087
13417TIP3    H161666   0.102   5.633   3.379 -1.7639  0.0060  0.0425
13417TIP3    H261667   0.116   5.703   3.246 -0.1762  0.4230  0.4095
13418TIP3   OH261668   0.218   6.761  14.358  0.1994 -0.1774 -0.5872
13418TIP3    H161669   0.170   6.681  14.377  0.1994 -0.4380 -1.6332
13418TIP3    H261670   0.199   6.819  14.432  0.2962 -1.1774  0.2425
13419TIP3   OH261671   4.049   1.763   5.421 -0.4238  0.6757  0.2744
13419TIP3    H161672   4.037   1.693   5.485 -1.7402  1.0587  0.4617
13419TIP3    H261673   3.961   1.782   5.388  0.0710  1.3793 -0.6972
13420TIP3   OH261674   6.624   4.718   0.145  0.3504  0.3615  0.2667
13420TIP3    H161675   6.666   4.790   0.099  1.2139 -0.2684  0.0323
13420TIP3    H261676   6.688   4.690   0.209  0.3032 -0.6222 -0.0956
13421TIP3   OH261677   0.562   4.881  16.073 -0.0040  0.2008 -0.2374
13421TIP3    H161678   0.602   4.961  16.108 -0.3994  0.5000 -0.4674
13421TIP3    H261679   0.596   4.811  16.129  0.1061  0.5664  0.1554
13422TIP3   OH261680   5.042   1.817  16.506  0.9381  0.0310  0.1509
13422TIP3    H161681   5.025   1.911  16.496  1.5222 -0.0069 -1.3993
13422TIP3    H261682   4.995   1.776  16.434 -1.0830 -1.1292  2.0067
13423TIP3   OH261683   4.164   4.257  13.545  0.2369 -0.2346  0.6920
13423TIP3    H161684   4.196   4.217  13.626  0.7218 -0.2235  0.5062
13423TIP3    H261685   4.094   4.315  13.574  0.5318 -0.0898  1.1286
13424TIP3   OH261686   2.683   3.055  15.665 -0.8106  0.4330 -0.3679
13424TIP3    H161687   2.616   3.096  15.611 -1.7550 -0.1721  0.3300
13424TIP3    H261688   2.642   2.976  15.700  1.0703 -1.3854 -1.9645
13425TIP3   OH261689   2.012   2.038  16.217  0.2152 -0.0608 -0.0525
13425TIP3    H161690   2.082   2.101  16.199 -0.3860  0.6657  0.0888
13425TIP3    H261691   1.986   2.057  16.307  0.2615 -0.7507  0.1121
13426TIP3   OH261692   5.053   3.229   5.004 -0.3911 -0.7997  0.2537
13426TIP3    H161693   5.148   3.231   4.992 -0.2332  0.3995  1.4954
13426TIP3    H261694   5.025   3.319   4.985 -1.3607 -1.2559 -0.5761
13427TIP3   OH261695   3.281   6.385   4.684  0.2191 -0.5680  0.3185
13427TIP3    H161696   3.188   6.374   4.663 -0.0385  1.1899  0.4536
13427TIP3    H261697   3.282   6.429   4.769  1.1781 -0.6801  0.3752
13428TIP3   OH261698   3.869   4.627  15.338 -0.0525 -0.5681 -0.1156
13428TIP3    H161699   3.833   4.538  15.332 -1.3667  0.0085 -1.4335
13428TIP3    H261700   3.806   4.681  15.291  1.8882  0.7331 -1.3754
13429TIP3   OH261701   0.648   1.445  13.755 -0.1422 -0.2479  0.0478
13429TIP3    H161702   0.725   1.427  13.809  0.0675 -1.5095 -0.6291
13429TIP3    H261703   0.677   1.512  13.694  0.0135  0.2484  0.6601
13430TIP3   OH261704   4.558   5.177  12.425  0.0676  0.0744 -0.5228
13430TIP3    H161705   4.579   5.090  12.459 -1.0205  0.0207  0.0646
13430TIP3    H261706   4.638   5.228  12.441  0.1030 -0.3441  0.8284
13431TIP3   OH261707   3.358   6.460   1.675  0.2071 -0.0455 -0.1074
13431TIP3    H161708   3.431   6.401   1.692  0.4711  0.6709  1.3364
13431TIP3    H261709   3.292   6.438   1.741 -0.3440  0.2077 -0.5562
13432TIP3   OH261710   2.851   2.929  11.724 -0.3837  0.2583 -0.5175
13432TIP3    H161711   2.859   2.916  11.630 -0.8068  0.2753 -0.5554
13432TIP3    H261712   2.779   2.991  11.734 -1.4913 -1.0554 -0.1016
13433TIP3   OH261713   0.580   0.666   2.685 -0.3034  0.0591  0.2218
13433TIP3    H161714   0.648   0.730   2.703 -0.8202  0.6880 -0.0151
13433TIP3    H261715   0.600   0.592   2.743 -0.8115  1.2121  1.9348
13434TIP3   OH261716   0.761   2.316  13.138 -0.1257  0.2594 -0.2681
13434TIP3    H161717   0.727   2.246  13.083 -2.1356  1.0985 -0.1618
13434TIP3    H261718   0.853   2.294  13.151 -0.5545 -2.0211 -0.7421
13435TIP3   OH261719   4.897   5.249   0.511 -0.0242  0.5266  0.5752
13435TIP3    H161720   4.937   5.167   0.482 -1.2964  0.2463 -0.5365
13435TIP3    H261721   4.934   5.316   0.453 -0.4523  0.4160  0.1692
13436TIP3   OH261722   3.487   6.282  14.707 -0.0905 -0.1633 -0.1227
13436TIP3    H161723   3.418   6.217  14.719 -1.4459  0.6899 -2.5439
13436TIP3    H261724   3.561   6.247  14.757 -1.6554 -2.0621  1.0488
13437TIP3   OH261725   1.337   0.647  17.302  0.1334 -0.3645 -0.4447
13437TIP3    H161726   1.348   0.553  17.286  1.9273 -0.1675 -0.5564
13437TIP3    H261727   1.339   0.656  17.397  0.9252 -0.3425 -0.4613
13438TIP3   OH261728   3.731   1.286   4.648  0.2014  0.4189  0.2076
13438TIP3    H161729   3.658   1.268   4.708 -1.0720  0.9333 -1.1222
13438TIP3    H261730   3.699   1.356   4.591  1.4663  0.1491 -0.8966
13439TIP3   OH261731   3.137   0.887   4.298  0.1937 -0.7758  0.7648
13439TIP3    H161732   3.188   0.947   4.353  2.1237 -0.9712 -0.7077
13439TIP3    H261733   3.171   0.800   4.320  0.2280 -0.9498  0.0332
13440TIP3   OH261734   4.220   5.161   4.144  0.6510  0.8172  0.6968
13440TIP3    H161735   4.314   5.160   4.165  0.5768 -0.0686  1.0703
13440TIP3    H261736   4.217   5.147   4.050  0.9002  0.9172  0.6717
13441TIP3   OH261737   1.145   4.329   3.286  0.0947 -0.1764  0.2649
13441TIP3    H161738   1.069   4.289   3.244  1.1066 -1.2167 -0.6507
13441TIP3    H261739   1.143   4.297   3.376 -0.1684 -0.7845  0.0478
13442TIP3   OH261740   6.207   2.198   0.202  0.1022 -0.4336  0.2128
13442TIP3    H161741   6.199   2.204   0.107 -1.5000  1.8493  0.4201
13442TIP3    H261742   6.150   2.267   0.236  0.8055 -1.0237  2.8429
13443TIP3   OH261743   3.209   0.118  16.370 -0.4812 -0.1864  0.0876
13443TIP3    H161744   3.172   0.202  16.397 -0.1652  0.2389 -0.7588
13443TIP3    H261745   3.237   0.076  16.452 -1.8865 -0.0806  0.6520
13444TIP3   OH261746   5.376   3.648  11.614  0.9657 -0.5978 -0.3452
13444TIP3    H161747   5.433   3.575  11.589  3.6088  1.6973 -1.4228
13444TIP3    H261748   5.387   3.713  11.545 -0.3578  1.3406  1.1447
13445TIP3   OH261749   0.402   3.820  11.519 -0.1071  0.2487  0.1312
13445TIP3    H161750   0.325   3.763  11.520 -0.2111  0.4014  1.2719
13445TIP3    H261751   0.380   3.892  11.578  0.2142  1.2428 -0.9110
13446TIP3   OH261752   4.166   4.546  14.998 -0.0341 -0.3013  0.5942
13446TIP3    H161753   4.163   4.599  15.078 -1.7324 -0.5051  0.7021
13446TIP3    H261754   4.085   4.568  14.952  0.8430 -0.3170 -1.0109
13447TIP3   OH261755   2.537   1.469   0.306 -0.2085  0.0415  0.3657
13447TIP3    H161756   2.555   1.381   0.275 -0.1720  0.0268  0.4289
13447TIP3    H261757   2.535   1.523   0.227  1.7616  0.3517  0.4781
13448TIP3   OH261758   3.110   6.588   3.137  0.6892 -0.2365  0.0664
13448TIP3    H161759   3.202   6.616   3.142  0.4770  0.5164 -0.0138
13448TIP3    H261760   3.095   6.543   3.220  1.0202 -0.0057  0.2574
13449TIP3   OH261761   5.817   3.700  14.132  0.4521  0.1801 -0.5283
13449TIP3    H161762   5.844   3.608  14.126  0.8789  0.2886 -0.3529
13449TIP3    H261763   5.823   3.720  14.226 -0.4942  0.1406 -0.4522
13450TIP3   OH261764   6.213   5.404  12.127  1.2484  0.1817 -0.1386
13450TIP3    H161765   6.209   5.463  12.203  0.0364 -0.6375  0.4704
13450TIP3    H261766   6.306   5.394  12.109  1.4891  2.2061 -0.2146
13451TIP3   OH261767   5.619   4.919   3.310 -0.0099  0.2848 -0.2862
13451TIP3    H161768   5.542   4.892   3.360 -1.5349  2.6487 -1.2043
13451TIP3    H261769   5.658   4.990   3.362  0.9163 -0.1385 -0.3833
13452TIP3   OH261770   4.970   2.371   5.946  0.3353  0.4067  0.4223
13452TIP3    H161771   4.934   2.365   6.034  0.6550 -0.5548  0.5015
13452TIP3    H261772   5.065   2.373   5.959  0.5787 -2.8834  0.0452
13453TIP3   OH261773   2.295   0.483   2.120 -0.7776  0.3688  0.1011
13453TIP3    H161774   2.387   0.507   2.130 -0.8147  0.4463  0.2524
13453TIP3    H261775   2.286   0.402   2.169 -0.9473  0.7219  0.6659
13454TIP3   OH261776   0.011   5.287  11.629  0.5425 -0.5593 -0.7862
13454TIP3    H161777   0.095   5.291  11.583  1.5729  0.0869  1.0216
13454TIP3    H261778   0.014   5.362  11.689 -0.8595 -1.1567  0.0771
13455TIP3   OH261779   3.443   4.325  12.958 -0.1113 -0.3781 -0.3613
13455TIP3    H161780   3.379   4.373  13.011  0.8409  0.4302  0.1005
13455TIP3    H261781   3.518   4.313  13.017 -0.0733 -1.8816 -0.6834
13456TIP3   OH261782   6.291   1.806  16.622 -0.4936  0.2069 -0.1180
13456TIP3    H161783   6.290   1.731  16.681 -0.8190 -0.2850 -0.7287
13456TIP3    H261784   6.227   1.783  16.554 -2.3620  2.0243  0.8937
13457TIP3   OH261785   0.167   3.759  13.789 -0.3084 -0.0749 -0.4385
13457TIP3    H161786   0.258   3.752  13.818 -0.1676  0.9583 -0.5882
13457TIP3    H261787   0.133   3.671  13.797  0.2083 -0.1549  1.2586
13458TIP3   OH261788   3.424   4.365   4.235 -0.1113  0.5959 -0.0355
13458TIP3    H161789   3.380   4.353   4.151  0.3241  0.7894 -0.2948
13458TIP3    H261790   3.491   4.297   4.237 -0.2039  0.5068  0.2193
13459TIP3   OH261791   5.326   6.170   2.358 -0.3059  0.1470 -0.1217
13459TIP3    H161792   5.352   6.243   2.304  0.2517 -0.4595 -0.6826
13459TIP3    H261793   5.309   6.098   2.297  0.2675 -0.5317  0.4884
13460TIP3   OH261794   5.867   2.574  16.867 -0.8334  0.1519 -0.2660
13460TIP3    H161795   5.922   2.499  16.847  0.2400  1.0826 -0.9430
13460TIP3    H261796   5.844   2.611  16.782 -0.7164  1.0224  0.0660
13461TIP3   OH261797   6.416   4.571   1.982 -0.0644 -0.3950  0.2014
13461TIP3    H161798   6.402   4.650   2.035  0.6591 -0.0395 -0.1302
13461TIP3    H261799   6.392   4.598   1.894  2.2693  0.1447 -0.3380
13462TIP3   OH261800   3.455   5.095  13.635  0.3801 -0.0388 -0.4010
13462TIP3    H161801   3.441   5.190  13.639 -0.2607 -0.0776 -1.2526
13462TIP3    H261802   3.504   5.074  13.714  0.6592  1.0278 -0.2783
13463TIP3   OH261803   4.818   2.210  12.813  0.3856 -0.1565 -0.6166
13463TIP3    H161804   4.728   2.226  12.786  0.4577  1.2167 -0.1177
13463TIP3    H261805   4.814   2.199  12.908  0.6115 -1.2273 -0.7201
13464TIP3   OH261806   6.601   5.148  17.284 -0.3607 -0.3109 -0.2059
13464TIP3    H161807   6.646   5.232  17.280 -1.3479  0.2183 -0.3349
13464TIP3    H261808   6.544   5.147  17.208 -1.3403 -0.5276  0.5178
13465TIP3   OH261809   4.365   3.635   0.851  0.0260  1.0920 -0.0609
13465TIP3    H161810   4.335   3.544   0.849  2.0532  0.3922 -0.1828
13465TIP3    H261811   4.435   3.636   0.916 -1.4652  3.0990  1.6330
13466TIP3   OH261812   3.196   0.996  17.196 -0.0854 -0.1187  0.4297
13466TIP3    H161813   3.196   1.091  17.180  0.2452 -0.2990 -0.7302
13466TIP3    H261814   3.202   0.988  17.291 -1.0098  1.0327  0.6097
13467TIP3   OH261815   2.022   6.667  12.957 -0.0555 -0.0428 -0.1053
13467TIP3    H161816   1.967   6.610  13.011 -2.5939 -0.2447 -2.6646
13467TIP3    H261817   1.980   6.753  12.962  0.6747  0.3419 -0.4382
13468TIP3   OH261818   2.505   0.129   1.869  0.3039 -0.7405  0.0083
13468TIP3    H161819   2.508   0.144   1.775 -0.2808 -1.1183 -0.0754
13468TIP3    H261820   2.413   0.142   1.893  0.3947 -0.9249  0.4789
13469TIP3   OH261821   3.018   6.044   0.892 -0.2907  0.4260 -0.4766
13469TIP3    H161822   2.953   5.989   0.848 -0.4657  0.1731  0.0885
13469TIP3    H261823   3.099   5.993   0.888 -0.5200 -0.0189  0.3079
13470TIP3   OH261824   4.139   0.950  14.005  0.2904 -0.3620 -0.1027
13470TIP3    H161825   4.202   0.888  14.042  0.8076 -1.0789 -2.0206
13470TIP3    H261826   4.194   1.015  13.959 -0.3075  0.4351  0.2878
13471TIP3   OH261827   1.597   3.987  13.317 -0.0892  0.2062 -0.2074
13471TIP3    H161828   1.679   3.941  13.332 -0.0054  1.1636  3.2506
13471TIP3    H261829   1.532   3.918  13.304  0.7790 -0.6939  0.1263
13472TIP3   OH261830   4.810   2.977  15.725 -0.0611 -0.0423 -0.3149
13472TIP3    H161831   4.778   3.066  15.741  1.3707  0.3111  0.8306
13472TIP3    H261832   4.761   2.922  15.785 -0.1485  0.1420 -0.2171
13473TIP3   OH261833   2.520   2.174   2.925 -0.2324 -0.1833 -0.2218
13473TIP3    H161834   2.477   2.092   2.900 -0.6305 -0.0797  0.1164
13473TIP3    H261835   2.494   2.188   3.016  0.2562  0.0510 -0.1159
13474TIP3   OH261836   3.720   2.402   5.955  0.5410 -0.2917  0.5611
13474TIP3    H161837   3.749   2.375   6.042  1.3395  0.0081  0.3961
13474TIP3    H261838   3.795   2.382   5.898  0.5330  0.7458  0.1666
13475TIP3   OH261839   6.703   3.876  13.890  0.0976 -0.0055  0.6390
13475TIP3    H161840   6.793   3.848  13.876 -0.5035 -2.9766  1.9409
13475TIP3    H261841   6.706   3.926  13.972  0.5466 -0.1795  0.7285
13476TIP3   OH261842   1.384   6.513  14.032 -0.0807  0.0747 -0.0502
13476TIP3    H161843   1.453   6.447  14.036  0.0270  0.0619 -1.4574
13476TIP3    H261844   1.309   6.467  13.994 -0.1872  0.5962 -0.4926
13477TIP3   OH261845   3.409   0.323   1.759 -0.3846  0.1776 -0.0960
13477TIP3    H161846   3.346   0.254   1.736  0.9864 -1.1322 -0.0679
13477TIP3    H261847   3.405   0.384   1.685 -0.8331 -0.4981 -0.6441
13478TIP3   OH261848   2.809   0.146  12.036 -0.0253 -0.3989 -0.3811
13478TIP3    H161849   2.879   0.192  11.990 -0.4675  0.3638 -0.3108
13478TIP3    H261850   2.854   0.083  12.092  0.7880  1.6052  1.3832
13479TIP3   OH261851   3.427   3.601  13.282  0.2142  0.0237  0.8190
13479TIP3    H161852   3.432   3.693  13.256  1.7998 -0.8595 -2.5782
13479TIP3    H261853   3.350   3.566  13.237  0.7579 -0.7163  0.4267
13480TIP3   OH261854   5.558   5.352  13.866  0.1461  0.0500  0.9866
13480TIP3    H161855   5.628   5.312  13.918 -0.4167 -0.8933  1.0437
13480TIP3    H261856   5.542   5.437  13.908  0.6343 -0.1141  1.5182
13481TIP3   OH261857   1.933   1.490   3.911  0.3591 -0.5627  0.3938
13481TIP3    H161858   1.908   1.581   3.926  0.4389 -0.2312 -1.2594
13481TIP3    H261859   1.869   1.458   3.847  0.5071 -1.5805  0.7359
13482TIP3   OH261860   5.018   3.002  16.012  0.3605 -0.3683 -0.3400
13482TIP3    H161861   4.925   3.018  16.029  0.1977  0.7348 -2.0604
13482TIP3    H261862   5.064   3.051  16.080 -0.2950  2.1432 -1.5792
13483TIP3   OH261863   2.535   1.216   2.716 -0.0055 -0.3563  0.0861
13483TIP3    H161864   2.471   1.152   2.685 -0.5946 -0.7237  1.9551
13483TIP3    H261865   2.612   1.202   2.660 -1.3943 -0.1207 -1.9935
13484TIP3   OH261866   1.923   0.504   2.056  0.0905  0.0912  0.4394
13484TIP3    H161867   1.945   0.559   1.981  0.3633 -0.5297  0.0563
13484TIP3    H261868   1.928   0.563   2.131  0.8989  0.4659  0.1013
13485TIP3   OH261869   0.521   6.774  15.756 -0.1220 -0.1596 -0.3586
13485TIP3    H161870   0.607   6.732  15.753 -0.7344 -1.4249 -1.3856
13485TIP3    H261871   0.463   6.713  15.710 -1.7716  0.2068  1.1152
13486TIP3   OH261872   5.426   4.868  16.792  0.5042  0.1984  0.8364
13486TIP3    H161873   5.440   4.887  16.699  0.2497 -1.8457  0.3289
13486TIP3    H261874   5.342   4.822  16.794  0.6642 -0.0769  2.0451
13487TIP3   OH261875   5.761   1.034  10.976  0.1284 -0.3660 -0.0083
13487TIP3    H161876   5.720   0.950  10.998 -0.1006 -0.3357 -0.3197
13487TIP3    H261877   5.716   1.063  10.897  0.2423  0.0274  0.0692
13488TIP3   OH261878   3.185   5.534  17.114 -0.3217 -0.2585 -0.0503
13488TIP3    H161879   3.225   5.555  17.029 -2.6162  1.5679 -0.7917
13488TIP3    H261880   3.160   5.442  17.106 -1.8179  0.2336 -2.0332
13489TIP3   OH261881   0.485   5.673  10.874  0.2838 -0.4344 -0.2275
13489TIP3    H161882   0.468   5.718  10.791 -2.7113  0.0927  0.5485
13489TIP3    H261883   0.490   5.744  10.939  0.4404 -0.9599  0.3416
13490TIP3   OH261884   6.238   1.704   0.288 -0.0637  0.0160 -0.0304
13490TIP3    H161885   6.284   1.786   0.269 -0.6312  0.4128  0.2937
13490TIP3    H261886   6.184   1.689   0.210 -0.8566  0.5766  0.4072
13491TIP3   OH261887   1.248   1.487   1.437  0.0344  0.5391 -0.3588
13491TIP3    H161888   1.295   1.563   1.402 -0.7906  0.7525 -1.0416
13491TIP3    H261889   1.199   1.520   1.511  1.2707  0.2239  0.6349
13492TIP3   OH261890   4.200   1.042   4.301 -0.4492  0.3768  0.1545
13492TIP3    H161891   4.222   0.962   4.253  1.3442  1.2316 -0.5635
13492TIP3    H261892   4.173   1.012   4.388  0.2721 -1.0100 -0.0758
13493TIP3   OH261893   2.850   3.741   0.376  0.2921  0.3788 -0.2205
13493TIP3    H161894   2.826   3.746   0.469 -0.9863  0.3816 -0.5302
13493TIP3    H261895   2.785   3.796   0.332 -0.5784 -1.4723 -1.3664
13494TIP3   OH261896   2.264   5.885   5.486 -0.1257  0.2488  0.3381
13494TIP3    H161897   2.189   5.841   5.444 -1.3908  1.3491  1.3315
13494TIP3    H261898   2.248   5.874   5.579  2.4081 -1.7798  0.6398
13495TIP3   OH261899   1.631   5.557  14.641 -0.1279 -0.4458 -0.4939
13495TIP3    H161900   1.654   5.601  14.559 -1.2555  0.3632 -0.3994
13495TIP3    H261901   1.700   5.492  14.654  0.7723  0.3019 -1.4099
13496TIP3   OH261902   6.211   4.650   5.929 -0.4743 -0.0709  0.0651
13496TIP3    H161903   6.119   4.644   5.904  0.1012  1.3994 -3.0016
13496TIP3    H261904   6.257   4.600   5.862  1.0560  0.9308  0.3134
13497TIP3   OH261905   0.413   1.924   1.363  0.0787  0.2871  0.2522
13497TIP3    H161906   0.341   1.881   1.317  0.3967 -0.4447  0.4229
13497TIP3    H261907   0.444   1.858   1.425  1.3754  0.3351 -0.3267
13498TIP3   OH261908   0.014   4.260   0.263  0.4447 -0.0256 -0.4335
13498TIP3    H161909   0.038   4.177   0.222 -1.1555  0.3858 -2.3827
13498TIP3    H261910   0.096   4.309   0.269  0.8785 -0.4309 -2.4754
13499TIP3   OH261911   1.146   4.488   4.809 -0.5194  0.7150  0.2265
13499TIP3    H161912   1.150   4.424   4.881  2.9900 -0.1036 -0.4803
13499TIP3    H261913   1.095   4.445   4.741 -2.1469  0.6552  1.4388
13500TIP3   OH261914   3.614   0.464  12.310  0.3095 -0.3735 -0.3858
13500TIP3    H161915   3.666   0.541  12.333  1.2002 -0.3806 -2.1945
13500TIP3    H261916   3.548   0.497  12.249  0.6373 -0.9779 -1.0972
13501TIP3   OH261917   1.831   3.013   0.811  0.1925 -0.2817 -0.1004
13501TIP3    H161918   1.757   2.973   0.766 -0.4917  0.4834  0.3134
13501TIP3    H261919   1.793   3.087   0.858  1.0646 -0.4113  0.8517
13502TIP3   OH261920   2.025   5.209  11.392  0.3685  0.2444 -0.1480
13502TIP3    H161921   2.095   5.184  11.333  0.4477  0.9583 -0.3646
13502TIP3    H261922   1.966   5.133  11.394  0.0069  0.4587 -1.6690
13503TIP3   OH261923   6.113   1.333  15.057 -0.0460 -0.6936 -0.8927
13503TIP3    H161924   6.065   1.286  14.988  0.2064 -0.2257 -1.3909
13503TIP3    H261925   6.167   1.396  15.010 -1.2430  0.9213 -0.1759
13504TIP3   OH261926   0.094   6.356   5.597 -0.2697  0.2010 -0.0185
13504TIP3    H161927   0.173   6.341   5.546 -0.8730  0.5707 -1.0857
13504TIP3    H261928   0.109   6.308   5.679  0.7467 -0.3349 -0.5010
13505TIP3   OH261929   1.491   2.675  11.871  0.5569  0.5946 -0.5030
13505TIP3    H161930   1.463   2.662  11.962 -0.4950  0.2318 -0.8693
13505TIP3    H261931   1.496   2.771  11.862  0.2911  0.6444 -0.1753
13506TIP3   OH261932   3.028   3.882   5.583  0.2155 -0.2653  0.1976
13506TIP3    H161933   3.029   3.974   5.556 -1.6002 -0.3877 -0.4473
13506TIP3    H261934   2.991   3.884   5.671  0.3572 -0.3751  0.2603
13507TIP3   OH261935   0.605   3.765  14.975 -0.1693  0.1509  0.0474
13507TIP3    H161936   0.594   3.672  14.953 -0.9308  0.3483 -0.4347
13507TIP3    H261937   0.689   3.769  15.021  1.3371 -0.3119 -2.5132
13508TIP3   OH261938   1.766   3.277  14.910 -0.7729  0.1739  0.0151
13508TIP3    H161939   1.681   3.315  14.930 -1.1102 -1.2992  1.5362
13508TIP3    H261940   1.826   3.352  14.910 -1.7653  0.9950  0.8254
13509TIP3   OH261941   0.126   1.022   5.288 -0.3912 -0.0971 -0.0566
13509TIP3    H161942   0.122   1.041   5.194  3.1482  0.1577 -0.2797
13509TIP3    H261943   0.094   1.102   5.330 -1.7062 -0.0993 -1.0043
13510TIP3   OH261944   1.487   2.499   2.034  0.3170  0.5579  0.7925
13510TIP3    H161945   1.573   2.541   2.029  0.3554  0.3789 -0.3987
13510TIP3    H261946   1.438   2.553   2.095  0.6714  1.7913  0.0263
13511TIP3   OH261947   4.402   1.382  15.631 -0.1013  0.8518 -0.0205
13511TIP3    H161948   4.483   1.421  15.664  0.1126  1.3754 -1.1175
13511TIP3    H261949   4.399   1.407  15.538 -0.9094 -0.1735 -0.2963
13512TIP3   OH261950   6.385   4.855   1.310  0.0350 -0.3995 -0.1761
13512TIP3    H161951   6.358   4.919   1.244 -0.0458 -0.0909  0.1518
13512TIP3    H261952   6.341   4.774   1.284  0.0104 -0.2811 -0.5061
13513TIP3   OH261953   2.234   6.009   2.249 -0.0744  0.2517 -0.1120
13513TIP3    H161954   2.269   6.033   2.335 -1.2864 -1.7064  1.0183
13513TIP3    H261955   2.292   5.939   2.219 -0.6309 -0.2232 -0.0919
13514TIP3   OH261956   4.871   0.005   4.575  0.5455 -0.0572  0.7140
13514TIP3    H161957   4.951  -0.020   4.621 -0.3748 -1.2470  1.7570
13514TIP3    H261958   4.807   0.021   4.645 -0.1508  0.8646 -0.0921
13515TIP3   OH261959   0.720   4.713  14.523  0.2441 -0.2817  0.6249
13515TIP3    H161960   0.726   4.622  14.494  0.6132  0.2862 -1.2132
13515TIP3    H261961   0.700   4.762  14.444 -2.6727  0.9865  1.9985
13516TIP3   OH261962   5.837   0.974   0.293  0.0690 -0.0145 -0.5482
13516TIP3    H161963   5.930   0.988   0.311 -0.1796  2.4993 -0.9028
13516TIP3    H261964   5.792   1.020   0.364 -0.9807 -2.3808  0.4346
13517TIP3   OH261965   3.984   2.686   0.296  0.5283  0.1630 -0.0092
13517TIP3    H161966   4.066   2.736   0.295  1.1290 -0.7357 -1.7619
13517TIP3    H261967   3.918   2.748   0.266  0.0038  1.5795  3.5893
13518TIP3   OH261968   1.768   3.320  16.591  0.0184 -0.3243  0.3935
13518TIP3    H161969   1.749   3.402  16.637  0.5361  0.9799 -1.5647
13518TIP3    H261970   1.709   3.321  16.516 -0.6854 -2.2978  0.8747
13519TIP3   OH261971   0.642   0.095   6.466 -0.2405  0.0603 -0.3021
13519TIP3    H161972   0.550   0.113   6.447 -0.4308 -2.1022 -1.8491
13519TIP3    H261973   0.641   0.013   6.515  0.8708 -0.1365 -0.5799
13520TIP3   OH261974   3.134   3.187   1.790  0.0704 -0.0168 -0.1816
13520TIP3    H161975   3.111   3.114   1.732 -1.3996  0.0928  0.2321
13520TIP3    H261976   3.050   3.230   1.809  0.9120  1.8439 -0.4956
13521TIP3   OH261977   0.448   5.586   5.701  0.0469  0.5596 -0.2591
13521TIP3    H161978   0.543   5.571   5.701 -0.1980 -1.4169 -1.4842
13521TIP3    H261979   0.414   5.523   5.637 -2.1103  1.1856  0.1858
13522TIP3   OH261980   5.924   2.742  13.640  0.3767  0.8932  0.0768
13522TIP3    H161981   6.019   2.740  13.650  0.4156  0.7117 -0.3226
13522TIP3    H261982   5.892   2.769  13.726  0.7371 -0.0600  0.5299
13523TIP3   OH261983   5.335   5.732  16.130 -0.6170  0.2552 -0.4100
13523TIP3    H161984   5.288   5.653  16.158  1.2307 -0.9617 -0.6002
13523TIP3    H261985   5.278   5.771  16.063 -2.0062 -0.3830  0.3636
13524TIP3   OH261986   2.617   0.314  13.983  0.3072  0.1421 -0.2244
13524TIP3    H161987   2.650   0.259  13.912 -2.1471 -1.0476 -0.5458
13524TIP3    H261988   2.578   0.253  14.045 -0.5018  1.3846  0.5345
13525TIP3   OH261989   0.022   5.160  12.024 -0.1468  0.4761 -0.6505
13525TIP3    H161990  -0.027   5.122  11.951 -0.0076  0.1918 -0.5959
13525TIP3    H261991   0.009   5.254  12.014 -0.6668  0.4089 -0.6639
13526TIP3   OH261992   5.414   6.070  17.285  0.5111  0.0665 -0.7551
13526TIP3    H161993   5.323   6.094  17.268  0.5286  1.0461  0.3864
13526TIP3    H261994   5.408   5.991  17.340  0.2880  0.9777  0.5742
13527TIP3   OH261995   5.532   0.654  15.368 -0.3234  0.8515 -0.3488
13527TIP3    H161996   5.480   0.658  15.448 -1.2952 -0.6570 -0.8517
13527TIP3    H261997   5.616   0.695  15.391 -0.1766 -0.4825  1.7419
13528TIP3   OH261998   0.832   3.408  13.707  0.0580  0.2748 -0.1220
13528TIP3    H161999   0.740   3.405  13.682  0.0366 -0.1306 -0.0135
13528TIP3    H262000   0.842   3.488  13.758 -0.8421 -0.9731  2.1756
13529TIP3   OH262001   1.517   0.033   2.814  0.1554  0.3136 -0.2664
13529TIP3    H162002   1.529   0.024   2.908 -1.1013 -0.3713 -0.1624
13529TIP3    H262003   1.472   0.117   2.803  1.1195  0.8346 -0.3402
13530TIP3   OH262004   0.885   2.855   1.839 -0.0534 -0.3906  0.5825
13530TIP3    H162005   0.900   2.779   1.896 -1.5311 -0.5717  0.7686
13530TIP3    H262006   0.837   2.819   1.764  1.3751 -0.0554 -0.5352
13531TIP3   OH262007   0.775   1.341   1.249  0.1596  0.2425 -0.2652
13531TIP3    H162008   0.838   1.270   1.260  0.1517 -0.0708 -1.9461
13531TIP3    H262009   0.704   1.319   1.308  1.3270  0.2729  1.2049
13532TIP3   OH262010   3.938   2.994  11.335 -0.0250 -0.1639 -0.0320
13532TIP3    H162011   3.891   3.065  11.291  0.3187  0.3191  0.3796
13532TIP3    H262012   3.869   2.936  11.367 -0.3644  0.6192  0.6992
13533TIP3   OH262013   6.211   2.675   5.359 -0.4706  0.2821 -0.1955
13533TIP3    H162014   6.132   2.677   5.413 -0.3322 -0.8361  0.0556
13533TIP3    H262015   6.214   2.587   5.324  1.6544 -0.3166  1.2949
13534TIP3   OH262016   4.047   5.253   2.962  0.2730  0.2676 -0.0837
13534TIP3    H162017   3.974   5.191   2.957 -2.2468  2.9358  0.0758
13534TIP3    H262018   4.040   5.291   3.049  1.6955  0.8044 -0.1767
13535TIP3   OH262019   0.717   2.116   3.341  0.4954  0.1963  0.0870
13535TIP3    H162020   0.795   2.085   3.387  0.6832  1.6032  0.7867
13535TIP3    H262021   0.677   2.178   3.402 -0.4865  0.4198 -0.7637
13536TIP3   OH262022   4.623   3.522  12.086  0.3245  0.1836 -0.0617
13536TIP3    H162023   4.584   3.581  12.151 -0.4517 -1.7165  1.2938
13536TIP3    H262024   4.550   3.496  12.030  0.2061 -0.9589  0.5725
13537TIP3   OH262025   5.824   5.740   1.142 -0.4206  0.6784  0.0077
13537TIP3    H162026   5.835   5.816   1.085 -0.9381  0.0952 -0.8824
13537TIP3    H262027   5.905   5.691   1.132 -0.6116  0.4510 -0.4107
13538TIP3   OH262028   0.907   6.618   6.052  0.2646  0.1405  0.6926
13538TIP3    H162029   0.976   6.653   5.995 -0.3993  0.4459  0.0540
13538TIP3    H262030   0.895   6.528   6.022 -0.0585  0.2893  0.3766
13539TIP3   OH262031   0.740   2.543  16.814  0.4054  0.1241 -0.1783
13539TIP3    H162032   0.684   2.619  16.829 -1.2189 -1.0311 -0.1309
13539TIP3    H262033   0.701   2.474  16.868 -0.1369 -1.6278 -2.6504
13540TIP3   OH262034   4.327   4.533  11.039  0.4347  0.1153  0.2020
13540TIP3    H162035   4.233   4.518  11.036  0.3325  0.7686 -1.2214
13540TIP3    H262036   4.336   4.628  11.029  1.2364  0.0336  0.0403
13541TIP3   OH262037   3.288   4.333   2.426 -0.3669 -0.3587  0.5266
13541TIP3    H162038   3.201   4.333   2.467 -0.5749  0.9151  0.1537
13541TIP3    H262039   3.322   4.420   2.444  1.0883 -1.0323  1.1410
13542TIP3   OH262040   0.875   4.348   2.908  0.5464  0.2888  0.1863
13542TIP3    H162041   0.926   4.425   2.882  1.9168 -0.7846 -0.4137
13542TIP3    H262042   0.835   4.318   2.827  2.2794 -1.2275 -0.1563
13543TIP3   OH262043   3.305   0.584  14.724  0.0777 -0.6572  0.1196
13543TIP3    H162044   3.245   0.588  14.649  0.2344 -1.5599 -0.0704
13543TIP3    H262045   3.380   0.638  14.697 -0.4297  0.0799  0.1628
13544TIP3   OH262046   3.154   3.736  15.622 -0.3561 -0.2893 -0.0838
13544TIP3    H162047   3.181   3.657  15.670  1.7983  0.9771  0.9358
13544TIP3    H262048   3.159   3.806  15.687 -2.0154  0.7654 -1.0205
13545TIP3   OH262049   5.712   3.936  11.591  0.1844 -0.1949  0.4807
13545TIP3    H162050   5.795   3.927  11.544 -0.0266 -0.5846  0.1805
13545TIP3    H262051   5.648   3.892  11.535 -0.4034  0.9385  0.2468
13546TIP3   OH262052   5.237   6.134   4.368  0.4915  0.1631 -0.0739
13546TIP3    H162053   5.193   6.054   4.397  2.3009 -0.8244  0.0711
13546TIP3    H262054   5.264   6.115   4.278  0.8698  0.6298 -0.0638
13547TIP3   OH262055   3.766   4.953  15.421 -0.1269 -0.3013 -0.5894
13547TIP3    H162056   3.678   4.960  15.386  0.3189 -1.4241 -2.0355
13547TIP3    H262057   3.761   4.881  15.484 -0.2799 -0.2347 -0.5250
13548TIP3   OH262058   2.884   0.716   2.509  0.4760  0.4088 -0.0608
13548TIP3    H162059   2.964   0.698   2.460  0.3386 -1.3095  0.2786
13548TIP3    H262060   2.813   0.682   2.454  0.1790 -0.0550  0.5954
13549TIP3   OH262061   1.003   1.160   3.999 -0.3664  0.1515  0.0317
13549TIP3    H162062   0.933   1.107   3.959  1.2670 -0.8387 -1.6998
13549TIP3    H262063   1.027   1.111   4.077  0.4255 -1.1890 -1.0079
13550TIP3   OH262064   5.650   4.670   0.143 -0.4881 -0.0282 -0.2678
13550TIP3    H162065   5.733   4.654   0.098 -0.4804 -1.8065  0.3022
13550TIP3    H262066   5.672   4.664   0.236 -1.2771 -0.7599 -0.1180
13551TIP3   OH262067   1.274   1.449  14.234  0.4041 -0.7393  0.5423
13551TIP3    H162068   1.334   1.381  14.204 -0.1778 -1.1068  0.1972
13551TIP3    H262069   1.255   1.425  14.325  1.9396  0.2154  1.1700
13552TIP3   OH262070   4.760   5.901  10.929  0.9128  0.2035 -0.4269
13552TIP3    H162071   4.727   5.932  10.845 -0.6778  0.5077  0.2631
13552TIP3    H262072   4.831   5.962  10.951  1.7453 -0.2360 -1.7908
13553TIP3   OH262073   0.542   0.458  17.187  0.2424  0.3688 -0.0918
13553TIP3    H162074   0.609   0.460  17.119 -0.4760  0.7431 -0.8074
13553TIP3    H262075   0.464   0.423  17.143 -0.3875  1.1246  0.3923
13554TIP3   OH262076   2.822   3.880   1.827  1.0347 -0.0165  0.1386
13554TIP3    H162077   2.909   3.894   1.865  0.0800  0.5416  2.2866
13554TIP3    H262078   2.777   3.964   1.838 -0.7830 -1.1382  1.9957
13555TIP3   OH262079   2.464   1.702  13.116 -0.1634  0.1123  1.1219
13555TIP3    H162080   2.486   1.610  13.131  2.3723  0.2158 -1.2907
13555TIP3    H262081   2.494   1.746  13.196 -0.1903 -0.9813  1.7602
13556TIP3   OH262082   2.467   2.517  12.706 -0.3148 -0.2913 -0.8627
13556TIP3    H162083   2.472   2.516  12.610 -3.1119 -2.3302 -1.1204
13556TIP3    H262084   2.401   2.452  12.727  1.0644 -0.8106  2.5755
13557TIP3   OH262085   4.779   0.549   0.198  0.2496  0.5544  0.6175
13557TIP3    H162086   4.816   0.473   0.243  0.2224  0.8055  1.0703
13557TIP3    H262087   4.842   0.569   0.129  0.4165  0.3207  0.7018
13558TIP3   OH262088   0.594   3.866  11.984 -0.3387 -0.1972 -0.1227
13558TIP3    H162089   0.620   3.958  11.974 -0.4301 -0.2743 -1.1355
13558TIP3    H262090   0.636   3.821  11.911 -0.5907 -0.9026  0.1621
13559TIP3   OH262091   1.321   5.692   2.517 -0.0298 -0.4520 -0.3544
13559TIP3    H162092   1.342   5.658   2.430 -1.8577 -1.4209 -0.4681
13559TIP3    H262093   1.302   5.614   2.569 -0.7120  0.2172  0.4200
13560TIP3   OH262094   6.308   4.975  14.394 -0.2277  0.1279  0.1526
13560TIP3    H162095   6.226   4.966  14.344 -0.8998  0.6143  1.1277
13560TIP3    H262096   6.295   5.054  14.446  2.0481  1.9553 -1.8276
13561TIP3   OH262097   1.861   5.751   5.760 -0.6712 -0.6611 -0.3840
13561TIP3    H162098   1.890   5.763   5.850 -0.2986  0.6053 -0.6446
13561TIP3    H262099   1.771   5.719   5.767 -0.9865  0.3739  0.4399
13562TIP3   OH262100   3.617   2.890  16.550 -0.2019 -0.5295  0.8375
13562TIP3    H162101   3.620   2.977  16.590 -0.1281 -0.1979  0.1262
13562TIP3    H262102   3.707   2.875  16.520 -0.2802 -0.7358  0.7115
13563TIP3   OH262103   2.433   1.785   0.896  0.0352 -0.0527 -0.2121
13563TIP3    H162104   2.416   1.873   0.864 -0.9086  0.3838  1.4275
13563TIP3    H262105   2.385   1.778   0.978  2.2443 -1.1795  1.0977
13564TIP3   OH262106   5.596   5.287  17.038 -0.0872 -0.7550 -0.3019
13564TIP3    H162107   5.548   5.354  17.086  1.9058  0.3277  0.3364
13564TIP3    H262108   5.655   5.337  16.981  0.8219 -1.9724 -0.4743
13565TIP3   OH262109   3.962   5.810   3.001 -0.1772  0.2818 -0.1999
13565TIP3    H162110   3.966   5.758   2.921  0.3475  0.7841 -0.5149
13565TIP3    H262111   4.048   5.798   3.042  0.6117  2.2109 -1.1530
13566TIP3   OH262112   6.558   2.670   1.545 -0.6390 -0.0592 -0.0275
13566TIP3    H162113   6.648   2.637   1.537 -0.5236 -0.2803  1.8311
13566TIP3    H262114   6.523   2.664   1.456  0.8546 -0.9182 -0.6012
13567TIP3   OH262115   0.190   2.278   5.584 -0.1401  0.0890 -0.4826
13567TIP3    H162116   0.127   2.332   5.536 -0.3449  0.2148 -0.0741
13567TIP3    H262117   0.254   2.252   5.518  0.7678  2.0153 -0.4124
13568TIP3   OH262118   3.013   0.458  16.521 -0.0493 -0.4187  0.1148
13568TIP3    H162119   2.928   0.461  16.565 -0.0392  2.3566  0.1465
13568TIP3    H262120   3.000   0.508  16.441  2.2618  3.2476  1.7542
13569TIP3   OH262121   2.805   0.637   1.823 -0.0788 -0.2556 -0.2870
13569TIP3    H162122   2.775   0.622   1.733  0.7804 -1.3352 -0.4262
13569TIP3    H262123   2.897   0.609   1.822  0.4574  1.3418  0.5153
13570TIP3   OH262124   4.590   1.393   2.551  0.0177 -0.6932  0.1752
13570TIP3    H162125   4.642   1.366   2.627  0.6165 -0.3004 -0.0879
13570TIP3    H262126   4.620   1.336   2.480  1.4906  0.7757 -0.4547
13571TIP3   OH262127   4.251   6.432   2.840  0.5398 -0.1085 -0.6883
13571TIP3    H162128   4.319   6.417   2.775 -0.8786 -1.3756 -1.9484
13571TIP3    H262129   4.225   6.345   2.869 -0.7475  0.3293 -0.4697
13572TIP3   OH262130   1.487   4.399   5.927 -0.4479 -0.3690 -0.2259
13572TIP3    H162131   1.519   4.462   5.862 -0.9653  0.2759  0.1347
13572TIP3    H262132   1.421   4.447   5.977 -1.8484 -1.6103 -0.8166
13573TIP3   OH262133   2.980   1.782   4.613  0.0387  0.2993  0.1124
13573TIP3    H162134   2.887   1.797   4.600 -0.2953 -0.2609  1.7340
13573TIP3    H262135   3.023   1.859   4.576 -0.9757  0.0561 -1.6689
13574TIP3   OH262136   0.649   0.110   4.880 -0.9392 -0.2258  0.1353
13574TIP3    H162137   0.692   0.076   4.801 -1.9760 -2.0757  0.2896
13574TIP3    H262138   0.636   0.032   4.934  1.0734  1.1817  2.8397
13575TIP3   OH262139   2.220   1.062   3.090  0.2561 -0.1446 -0.6903
13575TIP3    H162140   2.219   1.127   3.159  0.3637 -1.8812  1.0335
13575TIP3    H262141   2.170   1.102   3.019 -2.6334  0.5466  1.5361
13576TIP3   OH262142   4.718   4.416   1.765 -0.3166 -0.1526 -0.1638
13576TIP3    H162143   4.788   4.364   1.803 -1.5083 -0.5902  1.5144
13576TIP3    H262144   4.638   4.379   1.800 -1.2619  2.3314  0.5257
13577TIP3   OH262145   2.921   6.381   2.104 -0.2557 -0.6637 -0.8382
13577TIP3    H162146   2.922   6.477   2.106 -1.2439 -0.6409 -1.0038
13577TIP3    H262147   3.000   6.356   2.151  0.0409  0.2326 -0.8262
13578TIP3   OH262148   4.656   6.278   4.915 -0.0999 -0.3269 -0.4155
13578TIP3    H162149   4.689   6.348   4.972  0.6398  2.0498 -3.4712
13578TIP3    H262150   4.619   6.214   4.975  0.9644  1.7382  2.7169
13579TIP3   OH262151   0.895   2.949  15.589  0.2228 -0.4153  0.0830
13579TIP3    H162152   0.807   2.911  15.594 -0.0033  0.0612 -0.2034
13579TIP3    H262153   0.927   2.947  15.679  0.3266 -1.5244  0.0379
13580TIP3   OH262154   1.637   1.169  13.106  0.1168 -0.4406 -0.2191
13580TIP3    H162155   1.546   1.162  13.133  0.1225 -2.9763 -0.6446
13580TIP3    H262156   1.634   1.179  13.011  0.2906 -0.4473 -0.2254
13581TIP3   OH262157   1.006   6.731  11.594 -0.0289  0.2161 -0.3341
13581TIP3    H162158   1.079   6.767  11.644  0.7420 -1.0528 -0.4864
13581TIP3    H262159   1.035   6.732  11.503  0.4614 -1.6736 -0.2493
13582TIP3   OH262160   5.399   1.486   1.678  0.4343  0.4447  0.1632
13582TIP3    H162161   5.306   1.469   1.664  0.0696  1.2920  1.3810
13582TIP3    H262162   5.428   1.526   1.596  0.3387 -2.0055 -1.1536
13583TIP3   OH262163   4.368   0.292   0.399  0.1213 -0.5975  0.0070
13583TIP3    H162164   4.325   0.285   0.314  1.6720  0.0488 -0.8771
13583TIP3    H262165   4.300   0.325   0.458 -0.5771  0.4672 -1.3380
13584TIP3   OH262166   3.307   3.340   5.654 -1.0280  0.0356  0.0346
13584TIP3    H162167   3.321   3.245   5.647 -1.8028 -0.0238 -0.9036
13584TIP3    H262168   3.360   3.377   5.584  0.8233  0.4851  1.6017
13585TIP3   OH262169   4.243   3.824   5.643 -0.1375  0.0044 -0.1769
13585TIP3    H162170   4.185   3.894   5.672 -1.3049 -0.9381 -0.1738
13585TIP3    H262171   4.207   3.744   5.682  1.9801 -0.4497  1.0261
13586TIP3   OH262172   2.814   5.586  14.417  0.5811 -0.1707  0.4505
13586TIP3    H162173   2.876   5.608  14.348  1.6225 -1.7653  0.8097
13586TIP3    H262174   2.797   5.669  14.462  0.0910  0.8357 -1.5109
13587TIP3   OH262175   5.044   5.964   2.320 -0.2698 -0.5569  0.4361
13587TIP3    H162176   5.006   6.011   2.246 -2.0560  0.5348  1.9510
13587TIP3    H262177   5.132   5.942   2.292 -0.3788  1.1238 -1.4653
13588TIP3   OH262178   0.037   2.016  12.885 -0.0374  0.6297  0.1076
13588TIP3    H162179   0.052   2.091  12.943 -3.1607  2.3854 -1.1192
13588TIP3    H262180  -0.016   1.955  12.938 -0.0405  0.6815  0.1640
13589TIP3   OH262181   2.740   4.068  13.456  0.0119 -0.2674  1.0003
13589TIP3    H162182   2.709   4.094  13.543 -0.3578  0.3316  0.6976
13589TIP3    H262183   2.777   4.149  13.419 -1.2323 -0.1242  0.0042
13590TIP3   OH262184   5.696   6.662   1.832  0.3077  0.1247 -0.0555
13590TIP3    H162185   5.721   6.698   1.918 -0.9262 -0.1545  0.4529
13590TIP3    H262186   5.726   6.727   1.769 -2.7571  2.7682  0.8718
13591TIP3   OH262187   2.666   2.172  15.896 -0.1469 -0.8205  0.1769
13591TIP3    H162188   2.676   2.171  15.991 -0.1854 -0.5942  0.1825
13591TIP3    H262189   2.577   2.202  15.881 -1.0048 -3.1534  0.1231
13592TIP3   OH262190   2.968   1.826  11.387 -0.0063 -0.7837  0.1150
13592TIP3    H162191   2.921   1.801  11.467 -0.7829  0.4898  0.0837
13592TIP3    H262192   2.960   1.750  11.330  0.2090 -1.5627  1.0877
13593TIP3   OH262193   4.595   4.096  11.097  0.7621 -0.2302 -0.0365
13593TIP3    H162194   4.505   4.067  11.089  0.0816  1.5759  0.5614
13593TIP3    H262195   4.593   4.189  11.075  2.4250 -0.0746  0.2867
13594TIP3   OH262196   1.308   2.039  15.577 -0.0316 -0.7674  0.4940
13594TIP3    H162197   1.370   1.981  15.621 -0.4770 -1.6011  0.0572
13594TIP3    H262198   1.348   2.054  15.491 -1.0661 -2.4861 -0.3482
13595TIP3   OH262199   1.197   0.689   4.506  0.1858  0.2535 -0.5072
13595TIP3    H162200   1.123   0.746   4.531 -0.5607 -0.7942 -0.2682
13595TIP3    H262201   1.252   0.687   4.584 -0.6911 -0.7315  0.1167
13596TIP3   OH262202   1.513   4.323  14.275 -0.3214 -0.3315  0.1036
13596TIP3    H162203   1.497   4.350  14.185  0.9579  0.6436  0.1296
13596TIP3    H262204   1.594   4.272  14.270 -0.0244  0.0667  0.7490
13597TIP3   OH262205   4.361   5.297  16.929  0.4885  0.2074  0.2878
13597TIP3    H162206   4.343   5.334  17.016  0.0250  0.5075  0.0660
13597TIP3    H262207   4.417   5.221  16.947  1.5191  1.0390  0.7413
13598TIP3   OH262208   3.713   4.850   3.466  0.2027 -0.2551  0.4057
13598TIP3    H162209   3.759   4.810   3.393  1.8948 -0.5681  1.5758
13598TIP3    H262210   3.622   4.856   3.437  0.8199 -0.3383 -1.7055
13599TIP3   OH262211   1.925   4.550  12.328 -0.6588  0.2136 -0.6406
13599TIP3    H162212   1.923   4.455  12.317 -1.6605  0.1426  0.0634
13599TIP3    H262213   1.960   4.563  12.417 -0.6656  0.5024 -0.6794
13600TIP3   OH262214   1.854   5.469  15.388  0.1898 -0.5855 -0.2666
13600TIP3    H162215   1.855   5.430  15.475  1.1046 -1.0634 -0.4819
13600TIP3    H262216   1.859   5.563  15.403  0.9771 -0.6939  0.1901
13601TIP3   OH262217   3.616   2.292   3.604  0.7067  0.3479  0.2976
13601TIP3    H162218   3.588   2.248   3.684  0.6611 -1.0643 -0.4578
13601TIP3    H262219   3.569   2.247   3.534 -0.4358  2.5636 -0.4334
13602TIP3   OH262220   5.764   5.949  15.176  0.2850  0.2209 -0.1598
13602TIP3    H162221   5.735   6.028  15.131  0.4644 -0.1953 -1.0444
13602TIP3    H262222   5.701   5.936  15.246 -0.9767 -0.0013 -1.2961
13603TIP3   OH262223   3.920   1.727  14.628  0.4390  0.6761  0.0280
13603TIP3    H162224   3.832   1.703  14.655 -0.5325 -0.5527 -3.5710
13603TIP3    H262225   3.976   1.659  14.665 -0.7048 -0.6508 -0.5677
13604TIP3   OH262226   0.709   0.434  11.947  0.5465  0.1629  0.4718
13604TIP3    H162227   0.669   0.433  11.860 -0.5479  2.6580  0.8675
13604TIP3    H262228   0.639   0.459  12.006  0.8193 -3.1713  2.4439
13605TIP3   OH262229   5.556   1.627   1.857  0.6670  0.1144 -0.3460
13605TIP3    H162230   5.492   1.680   1.904  1.2716 -0.4134  1.1442
13605TIP3    H262231   5.504   1.564   1.807  0.0041 -0.2729  0.7912
13606TIP3   OH262232   2.116   6.266   4.162 -0.3450  0.0498  0.4171
13606TIP3    H162233   2.059   6.340   4.185  0.3170  0.6283  0.2360
13606TIP3    H262234   2.057   6.201   4.126 -0.6468  1.6633 -2.2856
13607TIP3   OH262235   2.329   5.409   0.448  0.3785  0.0545 -0.3932
13607TIP3    H162236   2.389   5.449   0.511  0.6013  0.5605 -0.9183
13607TIP3    H262237   2.248   5.397   0.497  0.6638  0.0855  0.1006
13608TIP3   OH262238   2.218   4.456   1.015  0.7011 -0.5221 -0.2893
13608TIP3    H162239   2.152   4.388   1.013 -0.8437  0.8833  0.3777
13608TIP3    H262240   2.301   4.409   1.007 -0.2407 -2.5546  0.9368
13609TIP3   OH262241   5.416   6.360  11.523 -0.6532 -0.1430  0.3010
13609TIP3    H162242   5.489   6.310  11.559  0.0980  0.3536 -0.4853
13609TIP3    H262243   5.399   6.319  11.438 -0.0944  0.8735 -0.3040
13610TIP3   OH262244   3.963   4.259  14.709  0.3585  0.6673  0.2792
13610TIP3    H162245   3.966   4.351  14.685 -0.7967  0.3519 -1.2433
13610TIP3    H262246   4.049   4.225  14.687  0.3408  1.0896 -0.4521
13611TIP3   OH262247   2.949   0.838   2.753 -0.3150  0.1595  0.0483
13611TIP3    H162248   2.930   0.810   2.663  1.9893 -0.1921 -0.3905
13611TIP3    H262249   2.954   0.757   2.803  2.8771 -0.1358 -0.5126
13612TIP3   OH262250   0.686   5.174   2.671  0.3273 -0.7584  0.4830
13612TIP3    H162251   0.729   5.149   2.590 -0.6074  1.1574 -0.6827
13612TIP3    H262252   0.611   5.115   2.679 -0.4819  0.0397 -0.9211
13613TIP3   OH262253   2.613   4.207  15.538  0.2929 -0.9712  0.1948
13613TIP3    H162254   2.577   4.161  15.614  3.3114 -1.3552  1.5512
13613TIP3    H262255   2.660   4.139  15.489  0.0002 -0.3548 -0.9713
13614TIP3   OH262256   0.964   2.724   5.762 -0.2820 -0.5095 -0.1417
13614TIP3    H162257   0.992   2.760   5.846  0.2672 -1.7754  0.2333
13614TIP3    H262258   1.005   2.638   5.757  1.1813  0.2314 -2.5135
13615TIP3   OH262259   2.675   4.964   3.447 -0.4345 -0.2592  0.2539
13615TIP3    H162260   2.733   4.972   3.371 -1.5972  1.8677 -0.4996
13615TIP3    H262261   2.623   4.886   3.430 -1.4266  0.7767 -1.7420
13616TIP3   OH262262   0.166   2.275  14.254 -0.1229  0.0310  0.1347
13616TIP3    H162263   0.117   2.265  14.336  1.3177 -2.4556  0.8139
13616TIP3    H262264   0.238   2.213  14.262  1.9213  1.9871 -1.7200
13617TIP3   OH262265   1.801   6.079   1.993 -0.4192 -0.0625  0.5656
13617TIP3    H162266   1.863   6.006   1.988 -0.3668 -0.3281  3.4380
13617TIP3    H262267   1.853   6.151   2.029 -1.2861  0.3452  1.0049
13618TIP3   OH262268   1.657   5.123   1.841 -0.1894  0.6669  0.0648
13618TIP3    H162269   1.652   5.050   1.902 -1.1899  0.0228 -0.7594
13618TIP3    H262270   1.740   5.167   1.863  0.3482 -0.6012  0.6782
13619TIP3   OH262271   3.135   1.228   3.499 -0.4375 -0.4865  0.6607
13619TIP3    H162272   3.226   1.258   3.500 -0.0302 -1.5590 -0.6254
13619TIP3    H262273   3.131   1.161   3.567 -0.4463  0.0329  1.1768
13620TIP3   OH262274   5.553   3.893  11.380  0.0607  0.9755 -1.0059
13620TIP3    H162275   5.547   3.812  11.329  0.5646 -0.2539  0.8044
13620TIP3    H262276   5.462   3.918  11.396 -0.1579 -0.6641  0.5473
13621TIP3   OH262277   6.551   1.197  12.289  0.5548 -0.2944  0.0182
13621TIP3    H162278   6.599   1.279  12.283  2.3744 -1.1003  2.2454
13621TIP3    H262279   6.618   1.129  12.281 -0.3724 -1.4891  1.7545
13622TIP3   OH262280   2.374   2.324  10.903  0.2184  0.2081 -0.7109
13622TIP3    H162281   2.442   2.388  10.881  0.3468  0.6777  0.8646
13622TIP3    H262282   2.295   2.376  10.916  0.3698  0.1317  0.7906
13623TIP3   OH262283   6.185   5.707   3.905 -0.0765 -0.1307 -0.0634
13623TIP3    H162284   6.248   5.684   3.837  0.0672 -0.1991  0.0928
13623TIP3    H262285   6.226   5.779   3.953 -1.7307  2.5538 -2.3579
13624TIP3   OH262286   4.281   6.186   2.367  0.0984  0.1904  0.2986
13624TIP3    H162287   4.193   6.170   2.335 -0.1295  0.0398  0.9787
13624TIP3    H262288   4.336   6.184   2.289 -0.2614 -1.4559  0.0566
13625TIP3   OH262289   5.551   1.237  13.862 -0.3361  0.7779 -0.3776
13625TIP3    H162290   5.589   1.249  13.949  0.8927  0.4759 -0.8548
13625TIP3    H262291   5.508   1.320  13.843  1.1054  1.5503 -0.3066
13626TIP3   OH262292   3.229   6.136  13.916  0.2147  0.0995  0.3607
13626TIP3    H162293   3.298   6.145  13.981  0.9711 -1.1739 -0.2156
13626TIP3    H262294   3.154   6.182  13.953  0.3949 -1.1564  2.4667
13627TIP3   OH262295   6.034   2.887  12.677 -0.6867  0.1363 -0.3625
13627TIP3    H162296   6.075   2.810  12.716 -3.5882 -0.8581  0.9858
13627TIP3    H262297   5.996   2.856  12.595  0.0679  0.7351 -0.9598
13628TIP3   OH262298   0.986   2.471  12.991  0.3441  0.0723 -0.2360
13628TIP3    H162299   0.957   2.462  12.901  0.3944  1.7633 -0.4471
13628TIP3    H262300   1.033   2.389  13.009 -1.7253 -1.3527 -0.9112
13629TIP3   OH262301   1.134   1.247  10.941  0.1970 -0.4250  0.3691
13629TIP3    H162302   1.119   1.296  10.860  0.7378  1.0180  1.0969
13629TIP3    H262303   1.180   1.309  10.998  0.0642 -1.4906  1.6884
13630TIP3   OH262304   4.486   3.128   1.715 -0.5636 -0.4488 -0.2443
13630TIP3    H162305   4.561   3.107   1.771 -0.2598  0.1082 -0.4412
13630TIP3    H262306   4.411   3.089   1.760 -0.5693  1.2668  1.3641
13631TIP3   OH262307   6.061   4.711   3.301  0.2893  0.2001  0.1364
13631TIP3    H162308   6.098   4.798   3.316 -0.2785  0.2545  1.3544
13631TIP3    H262309   6.128   4.665   3.250  0.0247  1.7578 -1.7503
13632TIP3   OH262310   2.680   4.234   6.460 -0.0470  0.0745 -0.0666
13632TIP3    H162311   2.667   4.226   6.555  0.7117 -0.1620  0.0262
13632TIP3    H262312   2.593   4.249   6.425 -0.6758 -2.1573  0.4335
13633TIP3   OH262313   1.293   4.074  14.067 -0.0328 -0.2038 -0.3509
13633TIP3    H162314   1.336   4.061  14.151 -1.8864 -1.7820  0.4467
13633TIP3    H262315   1.363   4.096  14.006  1.3152  1.4926  1.6681
13634TIP3   OH262316   4.745   2.615   1.924  0.2506 -0.5083  0.1779
13634TIP3    H162317   4.764   2.674   1.998 -2.7153 -0.2219  0.8434
13634TIP3    H262318   4.696   2.669   1.862 -2.6270 -2.1681  0.8353
13635TIP3   OH262319   5.700   0.024  14.858  1.0778 -0.3493  0.0066
13635TIP3    H162320   5.710   0.113  14.891 -0.7871  0.0429 -0.3953
13635TIP3    H262321   5.707   0.032  14.763 -0.8698 -0.3170 -0.1653
13636TIP3   OH262322   3.835   5.992   3.254 -0.5025 -0.4691  0.2161
13636TIP3    H162323   3.853   5.902   3.227  0.3921 -0.1383 -0.3494
13636TIP3    H262324   3.910   6.042   3.222 -1.6232  0.7074 -0.6897
13637TIP3   OH262325   6.706   0.240  16.978 -0.5330 -0.4122  0.3957
13637TIP3    H162326   6.767   0.222  16.906 -0.3939 -2.1217  0.8927
13637TIP3    H262327   6.703   0.335  16.983 -0.4450 -0.2405 -1.7852
13638TIP3   OH262328   0.540   4.296  15.944  0.2027 -0.3709 -0.0063
13638TIP3    H162329   0.525   4.209  15.908 -0.4446 -1.1631  2.0300
13638TIP3    H262330   0.620   4.288  15.996 -0.8504 -0.3088  1.7101
13639TIP3   OH262331   2.984   6.467  14.319  0.1210 -0.3600 -0.0874
13639TIP3    H162332   3.073   6.475  14.352  1.1602  1.6745 -3.0074
13639TIP3    H262333   2.947   6.556  14.328 -0.7554 -0.6014 -1.0886
13640TIP3   OH262334   2.207   3.045   1.448 -0.5029  0.0259 -0.3087
13640TIP3    H162335   2.251   3.009   1.371  0.5727  0.7447 -0.0423
13640TIP3    H262336   2.239   2.993   1.521  0.0629  0.6655 -0.0912
13641TIP3   OH262337   3.550   5.970   0.165 -0.5784 -0.0726 -0.0970
13641TIP3    H162338   3.618   6.017   0.117  0.5028 -0.2507  1.1910
13641TIP3    H262339   3.574   5.878   0.157 -0.0130 -0.0671  1.2826
13642TIP3   OH262340   0.388   3.844  17.014  0.7521 -0.1223 -0.5924
13642TIP3    H162341   0.335   3.899  16.957  1.1560  1.1890  0.2601
13642TIP3    H262342   0.371   3.877  17.102  2.0702 -0.4583 -0.1935
13643TIP3   OH262343   3.512   2.252  16.373 -0.8520  0.6126  0.6980
13643TIP3    H162344   3.593   2.204  16.355 -2.3608 -1.4687 -1.0377
13643TIP3    H262345   3.540   2.343  16.387  1.8342 -0.2104  1.1347
13644TIP3   OH262346   6.323   6.325   1.225  0.0688 -0.3530 -0.3173
13644TIP3    H162347   6.271   6.393   1.182 -1.4312 -1.1568  0.1573
13644TIP3    H262348   6.285   6.243   1.194  2.1029 -1.0358 -1.2056
13645TIP3   OH262349   4.186   5.189  10.815 -0.0028 -0.3015  0.2007
13645TIP3    H162350   4.192   5.234  10.731 -2.0727  0.5984  0.4760
13645TIP3    H262351   4.160   5.100  10.792 -0.2533 -0.1435 -0.1277
13646TIP3   OH262352   1.054   6.494   0.554  0.1639 -0.0035 -0.5426
13646TIP3    H162353   0.984   6.439   0.588 -0.7523  0.5993 -1.4203
13646TIP3    H262354   1.010   6.566   0.510  1.3369  1.2448  0.2284
13647TIP3   OH262355   1.583   3.721   3.002 -0.2396  0.2426 -0.1001
13647TIP3    H162356   1.520   3.777   2.957  1.2864  0.3342 -2.3049
13647TIP3    H262357   1.576   3.636   2.958  0.5064 -0.0156  0.2564
13648TIP3   OH262358   0.922   3.711   3.430  0.5097 -1.1304  0.4696
13648TIP3    H162359   0.938   3.804   3.447 -0.0809 -1.1896  1.4653
13648TIP3    H262360   0.944   3.699   3.338  0.8762 -0.0680  0.4045
13649TIP3   OH262361   2.935   4.158   5.550 -0.7544 -0.2806  0.3754
13649TIP3    H162362   2.987   4.234   5.526  0.4351 -1.1822 -0.0073
13649TIP3    H262363   2.844   4.185   5.534 -0.2949  0.6748 -0.8309
13650TIP3   OH262364   2.472   0.592   3.488 -0.6558 -0.4842 -0.6389
13650TIP3    H162365   2.436   0.678   3.508 -0.3121 -0.5021  0.0763
13650TIP3    H262366   2.399   0.532   3.500 -0.1334 -0.7013  2.2000
13651TIP3   OH262367   6.297   5.246   4.470  0.0648 -0.6696 -0.4414
13651TIP3    H162368   6.371   5.249   4.410  0.0792 -0.9740 -0.4394
13651TIP3    H262369   6.336   5.251   4.557  0.0471 -0.2803 -0.4514
13652TIP3   OH262370   0.122   5.131   2.837  0.6387  0.2955 -0.5249
13652TIP3    H162371   0.075   5.110   2.918 -0.6076 -1.0056 -1.5314
13652TIP3    H262372   0.102   5.223   2.821 -1.7797 -0.2240 -0.9810
13653TIP3   OH262373   4.561   0.704  11.829  0.2926 -0.4123 -0.4543
13653TIP3    H162374   4.522   0.724  11.914  0.9760 -3.1256  0.5797
13653TIP3    H262375   4.527   0.773  11.771  0.0268  1.7187  2.0121
13654TIP3   OH262376   0.423   1.174  12.728 -0.3797  0.3353 -0.1875
13654TIP3    H162377   0.498   1.115  12.727 -0.8090 -0.2057 -0.4482
13654TIP3    H262378   0.425   1.213  12.816 -0.0354  0.0164 -0.0499
13655TIP3   OH262379   3.244   2.231  11.595  0.2104 -0.0770  0.5398
13655TIP3    H162380   3.315   2.286  11.628  0.7006 -0.2453 -0.2138
13655TIP3    H262381   3.275   2.141  11.606  0.0222 -0.1576  0.4249
13656TIP3   OH262382   2.542   5.582  15.776  0.3569  0.4629  0.0734
13656TIP3    H162383   2.545   5.496  15.733  1.5465 -0.4589  1.8514
13656TIP3    H262384   2.620   5.584  15.831 -0.5005  2.0215  1.3126
13657TIP3   OH262385   0.140   4.671   0.789  0.1233  0.2234  0.3429
13657TIP3    H162386   0.097   4.754   0.810  0.8705  0.9395 -0.8290
13657TIP3    H262387   0.206   4.661   0.857 -0.6614  0.0383  1.0947
13658TIP3   OH262388   2.209   0.102   5.335 -0.1379 -0.5732 -0.8145
13658TIP3    H162389   2.130   0.049   5.345 -0.1159 -0.3890  0.3718
13658TIP3    H262390   2.270   0.068   5.400  0.6486 -0.4963 -1.4969
13659TIP3   OH262391   0.134   2.867   1.529 -0.1639 -0.5960 -0.0373
13659TIP3    H162392   0.043   2.888   1.508 -0.2530 -0.6717  0.2675
13659TIP3    H262393   0.178   2.952   1.535 -0.4541 -0.5026  0.8876
13660TIP3   OH262394   0.082   3.268   5.828 -0.0686  0.0970 -0.7516
13660TIP3    H162395   0.153   3.297   5.771  0.8328  0.0245  0.3072
13660TIP3    H262396   0.006   3.262   5.770  0.8905 -0.3253 -2.0270
13661TIP3   OH262397   1.574   3.856   0.524  0.3379  0.4995  0.0420
13661TIP3    H162398   1.575   3.762   0.543 -2.1478  0.3856 -0.0990
13661TIP3    H262399   1.505   3.891   0.580 -1.3860  1.5777 -2.6097
13662TIP3   OH262400   6.648   5.146  12.981  0.8376  0.6489 -0.2387
13662TIP3    H162401   6.622   5.211  13.047  1.0709  2.0165 -1.4532
13662TIP3    H262402   6.739   5.167  12.961  0.7177  0.3550 -1.1238
13663TIP3   OH262403   5.860   3.044  12.277  0.7636  0.0795 -0.1006
13663TIP3    H162404   5.840   3.019  12.368  0.2810 -0.4291 -0.3381
13663TIP3    H262405   5.826   2.971  12.225 -0.0770  0.9402 -0.7841
13664TIP3   OH262406   3.506   1.218  14.598 -0.1017  0.2381 -0.1226
13664TIP3    H162407   3.420   1.183  14.574  1.0265 -1.9051 -1.2530
13664TIP3    H262408   3.529   1.172  14.678  1.5567 -2.0696 -1.8202
13665TIP3   OH262409   4.437   1.174   4.158 -0.2812  0.7486  0.2126
13665TIP3    H162410   4.391   1.227   4.093 -0.5125  2.0199  1.3542
13665TIP3    H262411   4.374   1.106   4.182  0.1684 -0.3582 -1.5669
13666TIP3   OH262412   4.697   1.030   4.692 -0.6121  0.2837 -0.0666
13666TIP3    H162413   4.636   1.086   4.741  0.2112  1.9764 -0.8726
13666TIP3    H262414   4.657   0.943   4.694 -0.8976  0.3731  3.0818
13667TIP3   OH262415   1.121   3.872  15.136 -0.5800 -0.3127 -0.4161
13667TIP3    H162416   1.125   3.877  15.040 -1.7043 -1.6455 -0.5631
13667TIP3    H262417   1.112   3.963  15.164 -0.4967  0.0780 -1.5961
13668TIP3   OH262418   1.231   2.359  16.037 -0.6754  0.3555  0.4219
13668TIP3    H162419   1.264   2.345  16.126  2.1275  1.6391 -0.2949
13668TIP3    H262420   1.260   2.447  16.015 -1.6201  0.1956 -1.6583
13669TIP3   OH262421   2.229   4.050  11.701  0.2905  0.2657  0.2927
13669TIP3    H162422   2.269   3.989  11.764  1.0026  0.5572  0.1411
13669TIP3    H262423   2.304   4.087  11.655 -0.1836  0.7128 -0.1184
13670TIP3   OH262424   0.522   4.189  16.693 -0.1050 -0.1568 -0.4503
13670TIP3    H162425   0.591   4.126  16.672  0.7359  0.6317 -0.0693
13670TIP3    H262426   0.456   4.137  16.739  0.1989 -0.9262 -0.8628
13671TIP3   OH262427   1.378   4.955   5.233 -0.7372 -0.0642 -0.6149
13671TIP3    H162428   1.303   4.922   5.184 -0.9684  1.7752 -1.6088
13671TIP3    H262429   1.341   4.987   5.315 -0.8977 -0.0273 -0.7007
13672TIP3   OH262430   2.652   4.144   5.541 -0.6100  0.2247 -0.1577
13672TIP3    H162431   2.691   4.101   5.465  0.6285  1.3209 -0.1726
13672TIP3    H262432   2.570   4.097   5.555  0.8523 -2.4329  0.1095
13673TIP3   OH262433   1.069   0.536  12.262  0.3492  0.3821 -0.1250
13673TIP3    H162434   1.026   0.476  12.202  1.4571  0.8058 -1.3877
13673TIP3    H262435   1.135   0.483  12.307 -0.5914  0.0267  0.8776
13674TIP3   OH262436   0.194   3.747   4.940 -0.1834 -0.4035 -0.1188
13674TIP3    H162437   0.167   3.761   5.031 -2.5550  0.6313 -0.8997
13674TIP3    H262438   0.136   3.678   4.907  0.7721 -0.9056 -0.8156
13675TIP3   OH262439   5.201   5.236  14.600 -0.4456  0.1807  0.3556
13675TIP3    H162440   5.223   5.303  14.536 -1.5291 -0.5106 -0.7958
13675TIP3    H262441   5.125   5.271  14.647  0.3446  0.6843  1.2822
13676TIP3   OH262442   6.565   6.593   0.581 -0.5697 -0.4621 -0.0404
13676TIP3    H162443   6.488   6.538   0.568 -0.2756 -1.5264  2.2507
13676TIP3    H262444   6.637   6.531   0.593  0.5498  0.5080 -1.3674
13677TIP3   OH262445   3.890   1.643  12.191  0.5697  0.4279 -0.6445
13677TIP3    H162446   3.818   1.581  12.192 -0.1872  1.2794  0.2308
13677TIP3    H262447   3.930   1.634  12.105  0.0521 -0.7670 -0.7730
13678TIP3   OH262448   4.953   2.268  13.282  0.2111  0.5144 -0.2812
13678TIP3    H162449   4.964   2.279  13.188  1.7335  0.0916 -0.1880
13678TIP3    H262450   5.014   2.331  13.321  2.1263 -1.5657  0.3258
13679TIP3   OH262451   1.495   1.135  15.753 -0.1487  0.8006  0.3275
13679TIP3    H162452   1.590   1.139  15.740 -0.2319  1.0244 -0.2530
13679TIP3    H262453   1.481   1.060  15.811  0.3180  0.2549 -0.2497
13680TIP3   OH262454   3.867   5.323  12.408  0.4484  0.3647 -0.1811
13680TIP3    H162455   3.807   5.379  12.457  0.2058  0.4073 -0.5236
13680TIP3    H262456   3.841   5.234  12.432 -0.3108  0.3589 -0.9676
13681TIP3   OH262457   1.334   4.239  16.104  0.6326 -0.4779  0.3102
13681TIP3    H162458   1.369   4.278  16.183  1.3701 -1.2545  0.3800
13681TIP3    H262459   1.239   4.238  16.118  0.6055  1.0132  0.4076
13682TIP3   OH262460   2.463   6.726  15.511  0.3953  0.1287 -0.2164
13682TIP3    H162461   2.381   6.770  15.531  0.3139  0.0024 -0.2735
13682TIP3    H262462   2.526   6.764  15.571  0.0766 -0.5078  0.5423
13683TIP3   OH262463   4.903   4.846  12.988 -0.2406  0.4386  0.2947
13683TIP3    H162464   4.918   4.937  13.015 -0.3429 -0.2554  2.9591
13683TIP3    H262465   4.963   4.795  13.042 -1.1278 -1.1829 -0.1971
13684TIP3   OH262466   5.228   2.462   0.436 -0.2782  0.2134 -0.4231
13684TIP3    H162467   5.175   2.504   0.369 -0.4834  0.8708  0.1424
13684TIP3    H262468   5.177   2.472   0.517  0.8676  1.2160  0.2136
13685TIP3   OH262469   4.674   3.798  16.664  0.0252 -0.0262  0.0101
13685TIP3    H162470   4.704   3.816  16.753  0.5437 -1.4079  0.1445
13685TIP3    H262471   4.754   3.795  16.612 -0.1857 -0.2833 -0.3018
13686TIP3   OH262472   5.357   5.473   1.850 -0.3030  0.0620 -0.3308
13686TIP3    H162473   5.265   5.468   1.825 -1.0918 -1.2193  2.4870
13686TIP3    H262474   5.377   5.387   1.888  1.9110  0.4964 -0.3555
13687TIP3   OH262475   6.726   1.792   6.741 -0.4999 -0.9611 -0.3886
13687TIP3    H162476   6.653   1.781   6.681 -2.1236  1.5861  0.9207
13687TIP3    H262477   6.769   1.873   6.711 -0.8319 -0.1153  1.3007
13688TIP3   OH262478   1.641   1.662  16.479 -0.0386 -0.1684  0.2979
13688TIP3    H162479   1.628   1.679  16.573 -1.2222 -0.5144  0.2113
13688TIP3    H262480   1.734   1.675  16.465  0.2272 -0.5358  1.6184
13689TIP3   OH262481   3.624   6.666  16.027  0.1673  0.2935  0.2480
13689TIP3    H162482   3.713   6.646  16.057 -0.6628 -0.5827  2.2516
13689TIP3    H262483   3.567   6.642  16.100 -1.6571  1.9334 -0.5266
13690TIP3   OH262484   5.479   1.835  15.739 -1.1115  0.0365  0.3745
13690TIP3    H162485   5.458   1.781  15.662  0.2278 -1.9869  1.3221
13690TIP3    H262486   5.479   1.773  15.812  1.7525  1.0121  1.3584
13691TIP3   OH262487   2.257   3.072  16.836  0.2896 -0.1972  0.3619
13691TIP3    H162488   2.342   3.050  16.797  0.4604  2.2536 -0.8379
13691TIP3    H262489   2.278   3.100  16.925  0.7286  0.1553  0.1521
13692TIP3   OH262490   4.145   3.558   6.105 -0.4310  0.0836 -0.0431
13692TIP3    H162491   4.051   3.540   6.101 -0.3769  0.0285 -2.0282
13692TIP3    H262492   4.164   3.564   6.199 -1.9369 -2.3807  0.5219
13693TIP3   OH262493   2.425   3.150  14.517  0.2005 -0.4140 -0.1545
13693TIP3    H162494   2.464   3.069  14.549 -1.7211 -1.8169 -1.1584
13693TIP3    H262495   2.383   3.189  14.593  1.6389  0.0164  0.4638
13694TIP3   OH262496   4.521   4.727   5.869  0.2451 -0.2607  0.4418
13694TIP3    H162497   4.566   4.644   5.886  0.5349 -0.0356  0.7929
13694TIP3    H262498   4.470   4.711   5.790  0.7471 -0.5989  0.1780
13695TIP3   OH262499   1.195   1.816  11.406 -0.2747 -0.1675  0.5255
13695TIP3    H162500   1.176   1.800  11.498  0.6156  1.3145  0.9982
13695TIP3    H262501   1.132   1.883  11.379  0.1848  0.2067  0.3696
13696TIP3   OH262502   5.774   3.750  12.758 -0.1132 -0.4151  0.0186
13696TIP3    H162503   5.774   3.733  12.664 -3.1386 -0.1245 -0.1281
13696TIP3    H262504   5.780   3.845  12.766 -0.2628 -0.4134  0.1137
13697TIP3   OH262505   2.652   0.169  14.671  0.5513 -0.3439 -0.3951
13697TIP3    H162506   2.676   0.240  14.611 -0.9314  0.2457 -0.3197
13697TIP3    H262507   2.557   0.165  14.666  0.6094 -2.5175 -0.6002
13698TIP3   OH262508   2.834   4.070   2.254  0.6380 -0.0432 -0.6243
13698TIP3    H162509   2.874   3.989   2.222 -2.2879 -0.9346 -2.3785
13698TIP3    H262510   2.873   4.139   2.201  2.5674 -0.3136  0.3404
13699TIP3   OH262511   5.411   2.612   6.493 -0.0317 -0.2896 -0.0411
13699TIP3    H162512   5.331   2.663   6.482 -0.4577 -0.8064  0.6195
13699TIP3    H262513   5.479   2.665   6.451 -0.6605  0.2941 -0.3401
13700TIP3   OH262514   2.974   3.207   1.408  0.2743 -0.2935 -0.5742
13700TIP3    H162515   2.968   3.210   1.504 -0.0384 -3.7394 -0.3446
13700TIP3    H262516   2.883   3.204   1.378  0.3577  1.3871 -1.0645
13701TIP3   OH262517   0.051   1.840   4.526 -0.2117 -0.1005 -0.1568
13701TIP3    H162518  -0.010   1.840   4.600 -0.9844 -1.2437 -0.7599
13701TIP3    H262519   0.048   1.929   4.492  0.5229  0.5878  1.4617
13702TIP3   OH262520   5.487   0.971   1.171  0.0434 -0.1436  0.0387
13702TIP3    H162521   5.547   0.982   1.245  0.0644  0.4102 -0.0597
13702TIP3    H262522   5.538   0.921   1.107  0.1634 -0.2748  0.2344
13703TIP3   OH262523   1.304   1.178  11.605  0.4759  0.3400  0.6655
13703TIP3    H162524   1.208   1.175  11.607  0.4920 -1.1476 -0.1222
13703TIP3    H262525   1.329   1.118  11.535  2.0276  0.0209  1.4532
13704TIP3   OH262526   3.638   5.181   3.374  0.7081  0.1363 -0.4707
13704TIP3    H162527   3.567   5.154   3.432  0.3623  0.8760 -0.5266
13704TIP3    H262528   3.625   5.130   3.294  1.6615 -1.4837  0.3503
13705TIP3   OH262529   2.502   1.442   4.085  0.3534 -0.5990 -0.6209
13705TIP3    H162530   2.596   1.436   4.064  0.1692  0.5071 -1.9395
13705TIP3    H262531   2.497   1.510   4.152  0.3691  0.6870 -1.8652
13706TIP3   OH262532   6.717   6.083   6.169  0.0672 -0.1095  0.6329
13706TIP3    H162533   6.812   6.084   6.154  0.4103 -0.0059  2.5217
13706TIP3    H262534   6.694   5.991   6.175  0.2155 -0.1237  1.0222
13707TIP3   OH262535   1.981   1.879  12.642  0.1736  0.6127  0.2891
13707TIP3    H162536   1.962   1.796  12.685 -1.6165  2.0942  2.6528
13707TIP3    H262537   1.915   1.887  12.573  0.5870 -0.0438 -0.1976
13708TIP3   OH262538   4.429   4.947  13.833  0.2985  0.3694  0.2948
13708TIP3    H162539   4.493   4.969  13.765 -0.5370 -0.1775 -0.7000
13708TIP3    H262540   4.472   4.970  13.915  1.1339  1.5677 -0.4457
13709TIP3   OH262541   6.565   5.418  12.797  0.5006 -0.2356  0.1728
13709TIP3    H162542   6.478   5.431  12.758 -0.3326 -0.6545  1.7968
13709TIP3    H262543   6.611   5.362  12.736  0.6894  2.2341 -2.1452
13710TIP3   OH262544   3.615   0.492  13.253  0.1428  0.3615  0.3053
13710TIP3    H162545   3.539   0.535  13.291 -0.2962  0.6125 -0.8347
13710TIP3    H262546   3.688   0.552  13.270 -0.1130  0.6397  0.4171
13711TIP3   OH262547   3.086   4.498  17.261  0.2729 -0.3445  0.1956
13711TIP3    H162548   3.093   4.589  17.287  0.8222  0.1014 -1.4034
13711TIP3    H262549   3.175   4.475  17.232  0.0956 -1.3300  0.4026
13712TIP3   OH262550   6.748   0.918   0.347 -0.5674 -0.2697  0.1721
13712TIP3    H162551   6.811   0.973   0.300 -1.1018 -0.2465 -0.5235
13712TIP3    H262552   6.691   0.980   0.392 -1.1842 -0.2438 -0.6308
13713TIP3   OH262553   5.595   4.785   4.870  0.5302  0.4366 -0.4525
13713TIP3    H162554   5.591   4.757   4.961  2.2922  0.6031 -0.3048
13713TIP3    H262555   5.647   4.865   4.871 -2.2365  2.4257 -1.2050
13714TIP3   OH262556   1.503   1.254   5.159  0.2903 -0.1590  0.3294
13714TIP3    H162557   1.577   1.270   5.218  1.4689  0.2403 -1.2080
13714TIP3    H262558   1.437   1.317   5.188  0.1074 -1.1848  2.3589
13715TIP3   OH262559   4.884   6.374  13.443 -0.2094 -0.0654 -0.3004
13715TIP3    H162560   4.924   6.422  13.371 -0.0131  0.1944 -0.0206
13715TIP3    H262561   4.918   6.285  13.434 -1.1162 -0.3416 -1.2333
13716TIP3   OH262562   1.594   0.515   1.529 -0.7740  0.6590  0.1475
13716TIP3    H162563   1.580   0.548   1.440  0.4910 -1.4698 -0.9312
13716TIP3    H262564   1.683   0.540   1.551 -1.0641  1.1267  0.8084
13717TIP3   OH262565   0.952   4.644  14.332  0.3979  0.1785 -0.2997
13717TIP3    H162566   0.878   4.585  14.318  1.2799 -0.6925 -1.4178
13717TIP3    H262567   1.013   4.594  14.386  1.0865  0.1233 -1.1244
13718TIP3   OH262568   5.275   2.743  15.885 -0.0209  0.0297  0.0516
13718TIP3    H162569   5.319   2.727  15.801  0.2689  2.1917 -0.2597
13718TIP3    H262570   5.345   2.736  15.950 -0.4665 -2.9280  0.3467
13719TIP3   OH262571   5.831   1.508  14.705  0.1014  0.0948 -0.8155
13719TIP3    H162572   5.820   1.447  14.777 -0.8530  1.0867 -0.0882
13719TIP3    H262573   5.916   1.550  14.722  0.5099 -0.6401 -1.0290
13720TIP3   OH262574   2.930   3.859  16.963  0.2516 -0.7505 -0.7868
13720TIP3    H162575   2.913   3.919  16.891 -2.0992 -0.3337  0.0270
13720TIP3    H262576   2.843   3.829  16.990  0.6932  1.1278  3.5286
13721TIP3   OH262577   0.908   1.606  12.448 -0.2882  0.3301 -0.4345
13721TIP3    H162578   0.989   1.616  12.398  0.1416  0.0127  0.1848
13721TIP3    H262579   0.889   1.693  12.482  0.2439  0.2455  0.0931
13722TIP3   OH262580   1.443   2.046   4.958  0.5519  0.0907  0.7760
13722TIP3    H162581   1.354   2.082   4.961 -0.1310 -1.4667  0.1035
13722TIP3    H262582   1.455   2.006   5.043 -0.1223 -1.3068  0.2411
13723TIP3   OH262583   0.687   2.218  13.579  0.3499  0.6369 -0.0752
13723TIP3    H162584   0.744   2.194  13.653  0.1952  0.8716  0.1226
13723TIP3    H262585   0.611   2.258  13.620  0.5018  1.2569 -0.3808
13724TIP3   OH262586   1.538   3.133   1.132  0.2648 -0.1524  0.6784
13724TIP3    H162587   1.597   3.207   1.142  0.9981 -0.8717  1.9727
13724TIP3    H262588   1.537   3.115   1.038  0.6687  1.0064  0.4428
13725TIP3   OH262589   1.713   4.820   1.067 -0.5096  0.0331 -0.4595
13725TIP3    H162590   1.709   4.778   0.981 -1.5371  1.8507 -1.3577
13725TIP3    H262591   1.634   4.874   1.071  0.2510  1.0950  1.0388
13726TIP3   OH262592   3.687   0.400  12.909 -0.2329 -0.0285  0.0196
13726TIP3    H162593   3.638   0.319  12.896  0.0293 -0.9411  3.6147
13726TIP3    H262594   3.779   0.374  12.905 -0.0976  0.5854 -1.1397
13727TIP3   OH262595   3.214   2.113  16.810 -0.2937  0.3252  0.0545
13727TIP3    H162596   3.252   2.042  16.863 -2.3715  1.0774  2.7982
13727TIP3    H262597   3.279   2.129  16.742  1.7334 -2.0052  1.2639
13728TIP3   OH262598   5.434   1.916  12.440 -0.1997 -0.5605  0.8419
13728TIP3    H162599   5.359   1.877  12.397 -1.0255  1.0830  0.7350
13728TIP3    H262600   5.434   1.876  12.528 -1.7768  0.1000  1.1760
13729TIP3   OH262601   4.102   4.272  15.951 -0.2692 -0.1572 -0.2800
13729TIP3    H162602   4.173   4.335  15.965 -0.1490 -0.6386  1.5173
13729TIP3    H262603   4.037   4.320  15.899 -0.5670  1.8117  1.7234
13730TIP3   OH262604   6.289   6.200   6.686  0.0785 -0.4106 -0.5895
13730TIP3    H162605   6.238   6.141   6.631  1.1450 -0.3520 -1.6994
13730TIP3    H262606   6.341   6.143   6.742 -1.5088 -0.4693  0.8973
13731TIP3   OH262607   6.733   5.961  14.627 -0.0677  0.0919 -0.1404
13731TIP3    H162608   6.772   6.048  14.639  0.1387  0.1418 -1.1239
13731TIP3    H262609   6.647   5.978  14.589  0.1918 -0.1442 -0.8551
13732TIP3   OH262610   5.923   1.920   6.125  0.0143  0.4711  0.1256
13732TIP3    H162611   5.999   1.862   6.124  0.8524  1.5313  0.0754
13732TIP3    H262612   5.934   1.972   6.205 -1.9392 -0.9658  1.4072
13733TIP3   OH262613   0.767   5.424  11.718 -0.4106 -0.4129 -0.0815
13733TIP3    H162614   0.821   5.402  11.642 -1.4548 -2.2590 -0.3513
13733TIP3    H262615   0.828   5.464  11.780  0.8596 -0.6835 -1.1130
13734TIP3   OH262616   6.501   0.218   6.452 -0.1990  0.4034 -0.2896
13734TIP3    H162617   6.558   0.289   6.483  1.1214 -0.6882 -0.1147
13734TIP3    H262618   6.412   0.250   6.465  0.3593  2.2275 -0.6825
13735TIP3   OH262619   2.214   0.097   3.163 -0.7477  0.1430  0.7075
13735TIP3    H162620   2.261   0.067   3.086 -0.3155 -0.1761  1.0838
13735TIP3    H262621   2.191   0.188   3.145 -0.3747  0.1616  0.3379
13736TIP3   OH262622   2.792   6.397  12.290 -0.5167 -0.3548 -0.1501
13736TIP3    H162623   2.750   6.481  12.272 -0.3056 -0.2712 -0.2561
13736TIP3    H262624   2.822   6.367  12.204  1.7001  0.6687  0.1876
13737TIP3   OH262625   5.558   1.263   1.725  0.2052 -0.3038 -0.0815
13737TIP3    H162626   5.629   1.328   1.720 -0.1721  0.0215 -2.1685
13737TIP3    H262627   5.478   1.314   1.721 -0.1292 -0.7867  0.3340
13738TIP3   OH262628   1.298   1.700  13.330  0.5257 -0.4000 -0.2753
13738TIP3    H162629   1.297   1.606  13.316 -1.6129 -0.1675 -2.3271
13738TIP3    H262630   1.268   1.737  13.247  0.9756  2.0936  0.5709
13739TIP3   OH262631   5.227   5.811   0.609 -0.7263  0.1227  0.1127
13739TIP3    H162632   5.255   5.784   0.697 -0.4330 -0.7349 -0.2308
13739TIP3    H262633   5.174   5.737   0.578  0.2966 -0.1888 -0.9554
13740TIP3   OH262634   5.039   1.117   5.610 -0.4741  0.3071  0.5543
13740TIP3    H162635   4.985   1.089   5.535  0.3518  2.8546 -1.1306
13740TIP3    H262636   5.018   1.209   5.621  2.2268  0.9500  0.9571
13741TIP3   OH262637   1.800   3.891   2.929  0.6206 -0.2677  0.1846
13741TIP3    H162638   1.707   3.874   2.943  0.6425 -1.5821 -1.0762
13741TIP3    H262639   1.803   3.974   2.881  0.1452  0.0351  0.6655
13742TIP3   OH262640   3.144   2.870   0.518 -0.4640 -0.9656  0.8099
13742TIP3    H162641   3.205   2.797   0.530 -1.5718 -2.1535 -0.4456
13742TIP3    H262642   3.076   2.835   0.460 -0.1111  1.6256 -1.3268
13743TIP3   OH262643   6.202   4.778   2.792 -0.3183 -0.2623  0.0717
13743TIP3    H162644   6.199   4.734   2.707 -0.0068  1.2785 -0.7592
13743TIP3    H262645   6.272   4.732   2.839 -0.1035 -0.7604 -0.7037
13744TIP3   OH262646   4.301   5.688   1.639  0.4600 -0.0307 -0.3649
13744TIP3    H162647   4.265   5.602   1.621  0.1667 -0.0222  0.1319
13744TIP3    H262648   4.255   5.747   1.579  0.0730 -0.1082 -0.1475
13745TIP3   OH262649   6.536   5.069  16.731  0.0402 -0.4036  0.4312
13745TIP3    H162650   6.480   5.013  16.676  1.7302 -3.1836  1.3284
13745TIP3    H262651   6.608   5.094  16.673 -0.0626 -0.2214  0.3822
13746TIP3   OH262652   4.255   0.857  16.786  0.0054  0.2917 -0.0890
13746TIP3    H162653   4.276   0.933  16.841  0.3749  0.9095 -1.0554
13746TIP3    H262654   4.181   0.816  16.830  0.1126  0.9374  0.7174
13747TIP3   OH262655   5.337   5.117  12.371 -0.2430 -0.5674 -0.0652
13747TIP3    H162656   5.246   5.113  12.402 -0.2399 -0.9778 -0.1066
13747TIP3    H262657   5.339   5.193  12.313 -0.3417 -0.0150  0.6449
13748TIP3   OH262658   3.278   4.764  15.617 -0.3844 -0.0694  0.2448
13748TIP3    H162659   3.214   4.693  15.615  0.9363 -1.4476  2.5840
13748TIP3    H262660   3.291   4.787  15.525 -1.1877 -2.5506 -0.5766
13749TIP3   OH262661   1.798   5.992  12.543  0.5870 -0.0727 -0.3930
13749TIP3    H162662   1.881   6.039  12.545 -0.0481  1.0371  1.0520
13749TIP3    H262663   1.741   6.046  12.488  0.4511 -0.2165 -0.3934
13750TIP3   OH262664   3.646   2.673   0.685 -0.2238 -0.2785 -0.0962
13750TIP3    H162665   3.671   2.669   0.777 -1.0057  1.0127  0.2147
13750TIP3    H262666   3.724   2.647   0.637  1.3938  2.4069  0.8450
13751TIP3   OH262667   2.872   2.695   2.736 -0.0105  0.1656 -0.1319
13751TIP3    H162668   2.797   2.639   2.757  0.8295 -0.8696  0.1904
13751TIP3    H262669   2.867   2.767   2.798 -0.3531 -0.2584  0.3390
13752TIP3   OH262670   3.393   5.965   5.560  0.2433  0.3820 -0.2852
13752TIP3    H162671   3.403   5.885   5.611  0.3042  0.5230 -0.0746
13752TIP3    H262672   3.481   6.003   5.557  0.7923 -0.8865 -2.6030
13753TIP3   OH262673   5.287   2.916  17.065  0.2630  0.5661  0.1602
13753TIP3    H162674   5.348   2.933  16.993  0.9651 -0.8811  0.3953
13753TIP3    H262675   5.318   2.973  17.136  1.8298 -0.6904  0.5334
13754TIP3   OH262676   5.918   4.587  11.776 -0.4945  0.2472 -0.0277
13754TIP3    H162677   5.943   4.520  11.841  0.0188  1.0250  0.5935
13754TIP3    H262678   5.823   4.580  11.771 -0.5888  0.4411  1.1263
13755TIP3   OH262679   5.825   5.166  16.052 -0.8087  0.0653  0.3406
13755TIP3    H162680   5.852   5.116  15.975 -1.1308  0.3067  0.0689
13755TIP3    H262681   5.765   5.108  16.098  0.4251 -0.6214  1.1462
13756TIP3   OH262682   2.091   1.736  16.871  0.2309  0.3164 -0.2008
13756TIP3    H162683   2.048   1.819  16.850  0.9506  1.1544  1.4107
13756TIP3    H262684   2.130   1.751  16.957  1.5622 -1.2462 -0.4851
13757TIP3   OH262685   5.806   6.496   4.209  0.3082  0.1000  0.1948
13757TIP3    H162686   5.855   6.505   4.127 -0.5147 -0.0154 -0.3254
13757TIP3    H262687   5.725   6.546   4.194  0.9330  1.5950  1.6025
13758TIP3   OH262688   2.738   2.423   5.833 -0.2008  1.1001  0.6067
13758TIP3    H162689   2.653   2.454   5.801  0.0609  1.4613  0.2526
13758TIP3    H262690   2.796   2.429   5.757 -0.2135 -0.5987  0.4353
13759TIP3   OH262691   2.025   5.433  17.249  0.0879 -0.5960 -1.0635
13759TIP3    H162692   2.098   5.485  17.284  0.7075 -1.9339 -0.2640
13759TIP3    H262693   1.947   5.484  17.271  0.4549 -1.1428  2.0378
13760TIP3   OH262694   1.201   0.671  10.840 -0.3414 -0.0723  0.2022
13760TIP3    H162695   1.111   0.691  10.867  0.2605  2.6050  0.5457
13760TIP3    H262696   1.255   0.726  10.896  1.3645  0.2526 -1.6517
13761TIP3   OH262697   0.069   1.184   6.435  0.2946 -0.2888  0.1389
13761TIP3    H162698  -0.002   1.140   6.388 -1.3990  1.6431  0.7542
13761TIP3    H262699   0.061   1.152   6.525 -1.1204  1.3860  0.6508
13762TIP3   OH262700   5.531   2.145  11.509  0.0474  0.1168 -0.1071
13762TIP3    H162701   5.447   2.099  11.512  0.5791 -0.8379  2.3468
13762TIP3    H262702   5.580   2.110  11.584  2.1265  1.6216 -0.6894
13763TIP3   OH262703   6.041   3.979  13.137 -0.1048 -0.3966  0.5025
13763TIP3    H162704   6.076   4.041  13.202 -0.4692  1.5065 -1.0132
13763TIP3    H262705   6.118   3.933  13.105  0.7079  1.6831 -0.7060
13764TIP3   OH262706   1.026   4.969   1.423 -0.5940 -0.2398 -0.5140
13764TIP3    H162707   0.997   4.945   1.335 -0.7736 -1.3123 -0.1853
13764TIP3    H262708   0.956   4.938   1.480  1.0673 -2.8881  0.3010
13765TIP3   OH262709   1.403   5.334  15.567  0.3437 -0.3199  0.2193
13765TIP3    H162710   1.310   5.329  15.546  0.3315  1.8250 -0.4704
13765TIP3    H262711   1.435   5.408  15.514  1.9942  0.3074  1.9971
13766TIP3   OH262712   2.214   4.741  13.920  0.2497  0.1757  0.5169
13766TIP3    H162713   2.215   4.832  13.891  3.1033  0.2050  0.4339
13766TIP3    H262714   2.229   4.745  14.014  1.3513 -0.1956  0.3737
13767TIP3   OH262715   0.278   5.809   5.674  0.0927  0.5230  0.9171
13767TIP3    H162716   0.326   5.870   5.731  0.2497  0.3934  0.9242
13767TIP3    H262717   0.330   5.729   5.676  0.3294  0.6521  0.2564
13768TIP3   OH262718   5.372   2.763  15.341 -0.1411 -0.1944  0.1619
13768TIP3    H162719   5.306   2.833  15.346  1.0773  1.0691 -0.6211
13768TIP3    H262720   5.324   2.684  15.362 -1.5704  0.8838  1.1667
13769TIP3   OH262721   0.414   2.341  13.050  0.2330  0.1468  0.1327
13769TIP3    H162722   0.341   2.284  13.025  0.5161  0.6657 -2.0380
13769TIP3    H262723   0.385   2.429  13.027  1.8604  0.2604 -1.7411
13770TIP3   OH262724   6.561   2.981  15.919  0.7100 -0.2486  0.4405
13770TIP3    H162725   6.650   3.012  15.899  1.3462 -0.9805  1.9532
13770TIP3    H262726   6.570   2.936  16.003 -0.5424 -2.7973 -0.6945
13771TIP3   OH262727   4.341   1.313  17.099 -0.6510 -0.2329  0.5043
13771TIP3    H162728   4.437   1.319  17.104 -0.5951 -1.2432  0.8545
13771TIP3    H262729   4.315   1.392  17.053  0.4669 -0.5764 -0.7806
13772TIP3   OH262730   3.350   1.824   4.880 -0.1487  0.1719 -0.4267
13772TIP3    H162731   3.259   1.853   4.870 -0.2312 -0.2188 -0.8366
13772TIP3    H262732   3.353   1.740   4.834 -0.3409 -1.3597  2.1576
13773TIP3   OH262733   1.312   5.921   0.257 -0.2089  0.1873 -0.3432
13773TIP3    H162734   1.305   5.924   0.162 -2.8758  0.3447 -0.2334
13773TIP3    H262735   1.288   6.009   0.286  2.6837  0.8115  0.4887
13774TIP3   OH262736   5.575   1.928  14.022 -0.0127 -0.2439  0.4004
13774TIP3    H162737   5.580   1.903  14.114 -1.1649  1.3707  0.9501
13774TIP3    H262738   5.571   1.845  13.975 -1.4562 -1.1091  1.9452
13775TIP3   OH262739   0.384   4.640   5.704  0.3624 -0.6260 -0.8946
13775TIP3    H162740   0.341   4.713   5.749  1.2446 -0.8443  0.3754
13775TIP3    H262741   0.476   4.647   5.730  0.1689 -3.2846  0.8619
13776TIP3   OH262742   5.307   1.247   3.289 -0.8940 -0.0855  0.9112
13776TIP3    H162743   5.269   1.216   3.207  1.1423 -1.3432  0.3632
13776TIP3    H262744   5.312   1.169   3.344  1.5558 -0.2066  0.6348
13777TIP3   OH262745   0.725   0.662  16.640  0.1465 -0.1323 -0.6021
13777TIP3    H162746   0.650   0.681  16.696 -0.0378  0.4283 -1.0266
13777TIP3    H262747   0.792   0.630  16.699 -0.6804 -1.4103 -0.3011
13778TIP3   OH262748   0.489   0.703  13.103  0.4099 -0.0900  0.1586
13778TIP3    H162749   0.481   0.647  13.180  3.4203 -1.2439 -0.2497
13778TIP3    H262750   0.580   0.732  13.104  0.2541  0.7105 -2.4095
13779TIP3   OH262751   3.639   4.007   3.508 -0.0698  0.4135  0.3495
13779TIP3    H162752   3.607   3.930   3.555  0.2689 -0.2723 -0.5252
13779TIP3    H262753   3.627   3.986   3.415 -1.0867  1.9046  0.1051
13780TIP3   OH262754   1.115   3.802   2.562 -0.0370  0.0552 -0.5587
13780TIP3    H162755   1.199   3.819   2.606  0.4788 -4.1313  0.4586
13780TIP3    H262756   1.049   3.812   2.631  0.0958 -0.6002 -0.3334
13781TIP3   OH262757   4.875   4.478  16.384  0.4066 -0.6632  0.0887
13781TIP3    H162758   4.929   4.444  16.455  0.4546 -1.9218 -0.5278
13781TIP3    H262759   4.786   4.476  16.419  0.2206 -2.7567 -0.3708
13782TIP3   OH262760   0.604   0.594   5.941 -0.4007  0.5059 -0.1255
13782TIP3    H162761   0.676   0.653   5.964  0.0804  0.0317 -0.3670
13782TIP3    H262762   0.614   0.519   6.000  0.7709 -0.6648 -1.6972
13783TIP3   OH262763   5.814   5.072  13.622  0.3158  0.8664 -0.1036
13783TIP3    H162764   5.745   5.137  13.637 -0.6963 -0.3552  0.7398
13783TIP3    H262765   5.771   5.002  13.572  0.7625 -0.1894  0.9338
13784TIP3   OH262766   0.933   0.469   6.236 -0.1216  0.0248 -0.2161
13784TIP3    H162767   0.998   0.540   6.241  0.5759 -0.4489 -1.8681
13784TIP3    H262768   0.970   0.398   6.289  1.5990 -0.8615 -2.4692
13785TIP3   OH262769   0.608   3.622  14.431 -0.4640 -0.5114  0.1228
13785TIP3    H162770   0.690   3.666  14.407 -0.3957 -1.5572 -1.7968
13785TIP3    H262771   0.577   3.669  14.509  2.3242 -0.5642  1.3792
13786TIP3   OH262772   2.634   5.903   2.340 -0.5627  0.0049 -0.1875
13786TIP3    H162773   2.642   5.862   2.426 -0.7909  0.5839  0.1207
13786TIP3    H262774   2.721   5.936   2.320 -0.4757 -0.2621 -0.2438
13787TIP3   OH262775   1.582   1.760   3.703 -0.2176 -0.5753 -0.6775
13787TIP3    H162776   1.501   1.777   3.752  0.7289  1.2137  0.3815
13787TIP3    H262777   1.564   1.792   3.615 -0.5527  0.1378 -0.3563
13788TIP3   OH262778   4.353   5.214   6.279 -0.0572 -0.2346  0.3933
13788TIP3    H162779   4.267   5.187   6.310  0.5815  0.5889  3.0969
13788TIP3    H262780   4.402   5.133   6.268 -0.8390 -0.6400 -0.2152
13789TIP3   OH262781   1.496   6.061   5.901  0.0750  0.2009  0.4909
13789TIP3    H162782   1.510   6.006   5.978 -4.3202  0.3569  1.6618
13789TIP3    H262783   1.505   6.151   5.932  0.7518  0.2509  0.1732
13790TIP3   OH262784   1.851   2.766   2.540  0.6287 -0.1531 -0.0341
13790TIP3    H162785   1.883   2.821   2.469  0.2964 -0.3960 -0.3702
13790TIP3    H262786   1.772   2.809   2.571  0.9965  0.1738  0.4633
13791TIP3   OH262787   2.435   5.785   1.855 -0.3467 -0.2214 -0.7064
13791TIP3    H162788   2.435   5.877   1.880 -0.7947 -0.0158 -1.4149
13791TIP3    H262789   2.481   5.740   1.925 -3.1621  0.0375  1.4789
13792TIP3   OH262790   2.649   1.196  15.931  0.0790 -0.4804  0.7847
13792TIP3    H162791   2.563   1.160  15.911  0.3145 -1.4765  1.4787
13792TIP3    H262792   2.701   1.177  15.853 -0.4529  0.6418  0.1231
13793TIP3   OH262793   6.677   4.857  10.874  0.2011  0.0111  0.3061
13793TIP3    H162794   6.750   4.857  10.937  0.3754  0.5739  0.1079
13793TIP3    H262795   6.717   4.887  10.792  0.1740 -1.5327 -0.3151
13794TIP3   OH262796   1.650   3.707   1.677  0.1183 -0.0578 -0.3346
13794TIP3    H162797   1.633   3.626   1.629 -3.6577 -0.6274  1.6439
13794TIP3    H262798   1.684   3.767   1.611 -1.9537 -1.6833 -3.0669
13795TIP3   OH262799   5.058   0.972   3.925 -0.0221 -0.1394 -0.2788
13795TIP3    H162800   5.031   0.916   3.998 -0.6039  0.0510 -0.3452
13795TIP3    H262801   5.118   1.035   3.965 -0.2622 -0.0962  0.0169
13796TIP3   OH262802   5.128   4.789   4.907 -0.4485  0.1696 -0.1057
13796TIP3    H162803   5.202   4.847   4.889  0.8302 -1.6272 -0.9366
13796TIP3    H262804   5.062   4.812   4.842  1.7645 -2.1494 -3.5238
13797TIP3   OH262805   6.508   2.431   5.152  0.0293 -0.6065 -0.4246
13797TIP3    H162806   6.496   2.506   5.094 -0.3989 -1.1130 -1.0112
13797TIP3    H262807   6.436   2.439   5.215 -0.1942 -0.6738 -0.6646
13798TIP3   OH262808   6.633   1.602  12.438  0.4657  0.5538 -0.1314
13798TIP3    H162809   6.582   1.623  12.516  1.3764 -2.0795  1.3032
13798TIP3    H262810   6.720   1.579  12.471  1.0922  0.0268 -1.9858
13799TIP3   OH262811   2.813   1.730   2.822 -0.2293  0.9412 -0.0560
13799TIP3    H162812   2.755   1.680   2.765 -0.9263  1.5885  0.0611
13799TIP3    H262813   2.754   1.776   2.881  0.4145  1.4777  0.1856
13800TIP3   OH262814   2.772   5.674   4.217  0.1078  0.0388 -0.5842
13800TIP3    H162815   2.740   5.703   4.131 -0.2935  0.9211 -0.1413
13800TIP3    H262816   2.825   5.747   4.249 -2.7670  1.3834  1.5639
13801TIP3   OH262817   0.609   3.049  16.138 -0.2680 -0.6136 -0.7224
13801TIP3    H162818   0.615   2.953  16.132 -1.0265 -0.8664  1.6715
13801TIP3    H262819   0.656   3.072  16.217 -0.1666  1.0223 -1.2153
13802TIP3   OH262820   2.570   6.595  11.245  0.2452 -0.0408  0.0708
13802TIP3    H162821   2.541   6.678  11.208 -0.3710 -0.2922 -0.0302
13802TIP3    H262822   2.665   6.596  11.234  0.2251  0.5648 -0.1054
13803TIP3   OH262823   3.982   3.995  13.727  0.3859 -0.3786 -0.0453
13803TIP3    H162824   3.997   3.902  13.706 -0.9033 -0.6827  0.2821
13803TIP3    H262825   3.969   4.036  13.642  2.1079 -0.2481 -0.2831
13804TIP3   OH262826   2.817   1.341  16.577  0.7336 -0.4426  0.5762
13804TIP3    H162827   2.873   1.383  16.512  0.8276  0.2802  1.1014
13804TIP3    H262828   2.818   1.248  16.554  1.3129 -0.2911 -0.0379
13805TIP3   OH262829   1.367   2.156   0.132 -0.5611  0.0907  0.1872
13805TIP3    H162830   1.378   2.250   0.120 -0.8600  0.1006 -0.0272
13805TIP3    H262831   1.450   2.126   0.169 -0.3112  0.3730 -0.1374
13806TIP3   OH262832   1.179   0.463  12.896 -0.4837 -0.3055  0.4389
13806TIP3    H162833   1.126   0.524  12.947 -1.0409 -1.9561  1.9693
13806TIP3    H262834   1.218   0.516  12.827 -0.9572  1.7477  1.6579
13807TIP3   OH262835   6.130   0.455   3.076 -0.4801 -0.1123 -0.6202
13807TIP3    H162836   6.062   0.466   3.009  0.5471 -1.1616 -1.8891
13807TIP3    H262837   6.173   0.372   3.053  2.1465  1.1785 -0.7156
13808TIP3   OH262838   0.451   4.093   1.596 -0.0652 -0.2526 -0.2295
13808TIP3    H162839   0.530   4.132   1.633 -0.8530  1.0872  0.1325
13808TIP3    H262840   0.382   4.117   1.658 -1.0360  0.0926 -1.4096
13809TIP3   OH262841   6.087   2.949  11.888 -0.2654  0.0412 -0.1614
13809TIP3    H162842   6.070   3.043  11.895  0.2313  0.0770  0.7885
13809TIP3    H262843   6.133   2.939  11.805 -1.1899  0.4957 -0.7467
13810TIP3   OH262844   2.419   6.388  13.549  0.3601  1.1115 -0.0079
13810TIP3    H162845   2.341   6.430  13.587 -1.1538  0.4620 -2.1953
13810TIP3    H262846   2.450   6.449  13.483  0.4685  0.4797 -0.5509
13811TIP3   OH262847   1.702   4.359  11.992  0.5485 -0.3217  0.2037
13811TIP3    H162848   1.655   4.276  11.999  0.6761 -0.2973  1.6718
13811TIP3    H262849   1.728   4.364  11.900 -0.9377 -1.0805 -0.2994
13812TIP3   OH262850   4.629   0.967   6.590  0.0190  0.2167 -0.0957
13812TIP3    H162851   4.582   1.029   6.646  1.4452 -0.5170  2.0088
13812TIP3    H262852   4.560   0.913   6.552 -1.0033  0.7773  0.8986
13813TIP3   OH262853   4.149   5.911  15.917  0.6936  0.4960 -0.8668
13813TIP3    H162854   4.089   5.973  15.958  0.2733  0.4030 -1.3199
13813TIP3    H262855   4.164   5.844  15.984  0.3390  0.5558 -0.7258
13814TIP3   OH262856   4.225   4.430  13.870  0.0488 -0.4076 -0.2520
13814TIP3    H162857   4.133   4.434  13.844 -0.3434 -0.5400  1.0882
13814TIP3    H262858   4.238   4.341  13.902  0.1518  0.1464  1.2966
13815TIP3   OH262859   0.003   4.131   6.596  0.0286  0.0882 -0.3953
13815TIP3    H162860  -0.064   4.078   6.639  0.5105 -1.4332 -1.4331
13815TIP3    H262861   0.083   4.079   6.604  0.3792  0.3354 -2.0417
13816TIP3   OH262862   4.221   5.853   3.767  0.5573  0.0349  0.1973
13816TIP3    H162863   4.268   5.897   3.838 -0.4695  0.7144  0.4816
13816TIP3    H262864   4.137   5.829   3.806  0.6404 -1.1618 -0.2954
13817TIP3   OH262865   1.588   2.953   4.146 -0.2043  0.1894 -0.0111
13817TIP3    H162866   1.563   3.020   4.211 -0.1694  0.8029 -0.6235
13817TIP3    H262867   1.625   3.003   4.074 -1.0028 -0.4271 -0.8613
13818TIP3   OH262868   5.050   4.628   6.296  0.1728 -0.4168  0.6440
13818TIP3    H162869   5.092   4.670   6.221  2.1584 -0.5442  1.6209
13818TIP3    H262870   4.982   4.690   6.322  0.3999  0.3028 -0.3969
13819TIP3   OH262871   3.494   3.278  15.720  0.0038  0.5103  0.0668
13819TIP3    H162872   3.453   3.349  15.671  0.3837 -0.0186 -1.0598
13819TIP3    H262873   3.588   3.289  15.704 -0.0390 -1.8817 -2.5822
13820TIP3   OH262874   4.262   1.331   0.022 -0.1945  0.0997 -0.3991
13820TIP3    H162875   4.296   1.312  -0.066 -0.5200 -0.7740 -0.3395
13820TIP3    H262876   4.245   1.246   0.061 -0.5669  0.4920  0.3193
13821TIP3   OH262877   1.971   3.108   5.186 -0.1937 -0.3159 -0.2888
13821TIP3    H162878   1.933   3.189   5.220  1.4025  0.8685 -1.1782
13821TIP3    H262879   2.059   3.106   5.222 -0.5848 -2.3225  0.6828
13822TIP3   OH262880   2.033   0.043   4.596 -0.1673  0.1149  0.6843
13822TIP3    H162881   2.011   0.070   4.686 -0.3287 -0.8064  0.9261
13822TIP3    H262882   2.117  -0.002   4.604 -0.4635 -0.4906  0.4696
13823TIP3   OH262883   3.527   6.712  14.570  0.3802 -0.1566 -0.5119
13823TIP3    H162884   3.574   6.660  14.504  1.8610 -0.6176  0.8427
13823TIP3    H262885   3.459   6.653  14.602 -0.4242  0.1090 -1.6810
13824TIP3   OH262886   6.645   4.773  12.701  0.5959 -0.0922  0.9064
13824TIP3    H162887   6.605   4.858  12.719  1.5938  0.5707  0.1043
13824TIP3    H262888   6.594   4.737  12.628  0.3393 -0.0663  1.0718
13825TIP3   OH262889   0.358   3.105   5.645 -0.2299 -0.2276  0.7804
13825TIP3    H162890   0.409   3.042   5.594  0.2911  0.0216  0.9874
13825TIP3    H262891   0.275   3.060   5.662 -0.2056 -0.5135  0.1682
13826TIP3   OH262892   4.407   6.727   4.076  0.1306  0.0979  0.0579
13826TIP3    H162893   4.396   6.819   4.100 -0.5263 -0.3337  1.4723
13826TIP3    H262894   4.475   6.695   4.136 -0.3250 -0.5828  0.2132
13827TIP3   OH262895   6.191   4.596  13.020  0.4286 -0.0135  0.1696
13827TIP3    H162896   6.257   4.621  12.955  0.2090  0.9775  0.3137
13827TIP3    H262897   6.176   4.676  13.070 -0.9876 -0.1886  0.0537
13828TIP3   OH262898   5.837   4.315  15.475  0.1660 -0.6894 -0.2687
13828TIP3    H162899   5.762   4.373  15.462  0.8106  0.7470  1.8829
13828TIP3    H262900   5.800   4.236  15.514 -0.1494  0.6334  2.3025
13829TIP3   OH262901   2.536   5.787  12.266  0.6469 -0.2026  0.2124
13829TIP3    H162902   2.515   5.695  12.281 -1.2780  0.4264  1.8539
13829TIP3    H262903   2.563   5.819  12.352  0.7821  0.8856 -0.2232
13830TIP3   OH262904   3.131   1.860  13.212 -0.0795 -0.9179 -0.2534
13830TIP3    H162905   3.154   1.953  13.214 -0.9283 -0.7098  0.4497
13830TIP3    H262906   3.138   1.835  13.119  0.2659 -0.1895 -0.4285
13831TIP3   OH262907   2.840   3.400   3.481 -0.7928  0.0833 -0.8010
13831TIP3    H162908   2.839   3.369   3.571  0.0852  1.7418 -0.1779
13831TIP3    H262909   2.903   3.342   3.437 -0.1027  0.1924  0.0166
13832TIP3   OH262910   4.451   5.074  13.371  0.4422 -0.3875  0.6893
13832TIP3    H162911   4.546   5.079  13.370  0.4297  0.0841 -0.8822
13832TIP3    H262912   4.431   5.003  13.433  1.8007 -0.6323  0.8793
13833TIP3   OH262913   3.408   4.702   3.541  0.5774 -0.7561  0.0794
13833TIP3    H162914   3.478   4.750   3.586  0.4300 -0.9930  0.5635
13833TIP3    H262915   3.387   4.629   3.599 -1.3169  0.3102  0.8438
13834TIP3   OH262916   2.511   1.956  10.689  0.3419  0.3828  0.6684
13834TIP3    H162917   2.418   1.945  10.705  0.1253 -1.8937 -1.5301
13834TIP3    H262918   2.548   1.868  10.695  1.8980  0.8696 -0.8259
13835TIP3   OH262919   0.984   0.804  16.548 -0.4442 -0.2170  0.1949
13835TIP3    H162920   0.919   0.840  16.607 -0.1914 -0.0176  0.3553
13835TIP3    H262921   0.987   0.710  16.570  0.2957  0.0068  1.1389
13836TIP3   OH262922   0.033   3.916  15.733  0.0785  0.0483 -0.7254
13836TIP3    H162923   0.090   3.882  15.801  1.2401 -1.1014 -2.1925
13836TIP3    H262924   0.080   3.992  15.698 -0.3337  0.4122 -0.4968
13837TIP3   OH262925   5.913   4.545  14.102  0.3617 -0.2168 -0.0920
13837TIP3    H162926   5.914   4.641  14.103 -0.1907 -0.2003 -0.7460
13837TIP3    H262927   5.821   4.522  14.089  0.3337 -0.8563  1.0468
13838TIP3   OH262928   2.215   2.591   4.007 -0.1831 -0.1927 -0.1570
13838TIP3    H162929   2.307   2.580   4.031 -0.1347 -1.5020 -0.8534
13838TIP3    H262930   2.213   2.579   3.912 -0.7689  2.1076 -0.4908
13839TIP3   OH262931   2.904   4.518   2.336  0.3802 -0.2162  0.5249
13839TIP3    H162932   2.813   4.492   2.350 -0.5558  2.5860  0.3605
13839TIP3    H262933   2.949   4.438   2.309 -2.0508 -1.6491  0.4980
13840TIP3   OH262934   2.610   4.361  12.449  0.1650 -0.1384  0.2287
13840TIP3    H162935   2.515   4.371  12.443  0.1897  0.4030  0.6423
13840TIP3    H262936   2.641   4.373  12.359 -0.0507  0.9986  0.2809
13841TIP3   OH262937   6.405   3.090   5.853  0.1533 -0.0060 -0.5937
13841TIP3    H162938   6.429   3.009   5.898  0.9397  0.2769 -0.4863
13841TIP3    H262939   6.472   3.152   5.880 -1.8276  1.4403  1.3690
13842TIP3   OH262940   2.504   6.614   1.898 -0.0039  0.4332 -0.1659
13842TIP3    H162941   2.538   6.694   1.939 -2.2116  1.5337 -0.3243
13842TIP3    H262942   2.531   6.544   1.957  1.1511  1.3931  0.4939
13843TIP3   OH262943   0.946   0.977   1.033  0.2893 -0.3429 -0.6825
13843TIP3    H162944   0.894   0.979   1.113  1.4931 -1.7293  0.1837
13843TIP3    H262945   0.894   1.027   0.970 -0.7562  0.6613  0.8953
13844TIP3   OH262946   5.146   5.330   3.497  0.3911 -0.1964 -0.5038
13844TIP3    H162947   5.198   5.250   3.492  0.0976 -0.3168 -2.4742
13844TIP3    H262948   5.204   5.398   3.464  0.2464  0.1934  0.0429
13845TIP3   OH262949   4.387   5.919   1.148 -0.3883  0.0275 -0.0301
13845TIP3    H162950   4.371   5.834   1.189  0.3429 -0.5088 -0.8192
13845TIP3    H262951   4.330   5.980   1.194 -0.2600 -0.7275  1.1450
13846TIP3   OH262952   1.932   5.590   1.613  0.2948 -0.3180 -0.0438
13846TIP3    H162953   2.001   5.527   1.633  1.0404  0.4058 -0.2645
13846TIP3    H262954   1.867   5.540   1.564  0.9291 -0.8813 -0.3267
13847TIP3   OH262955   1.676   3.768   4.844 -0.5160 -0.0329  0.4322
13847TIP3    H162956   1.589   3.772   4.884 -0.6160 -3.6895  0.9898
13847TIP3    H262957   1.660   3.743   4.753 -0.1025 -1.1018  0.6340
13848TIP3   OH262958   3.100   1.261   0.859  0.1546 -0.2018  0.2590
13848TIP3    H162959   3.054   1.344   0.872 -0.9714 -0.7240 -0.3239
13848TIP3    H262960   3.159   1.277   0.785  0.1020  0.1413  0.2910
13849TIP3   OH262961   2.408   4.863  16.138  0.6048 -0.2640 -0.0932
13849TIP3    H162962   2.414   4.824  16.050  1.0033 -1.5461  0.4746
13849TIP3    H262963   2.316   4.854  16.162 -0.3468  3.2558 -1.7007
13850TIP3   OH262964   4.230   5.474  11.336  0.3509 -0.5021 -0.4510
13850TIP3    H162965   4.287   5.408  11.296  1.0026  0.7637 -1.6824
13850TIP3    H262966   4.283   5.513  11.405 -0.3852 -1.9097  0.9722
13851TIP3   OH262967   6.074   5.954  11.640 -0.0503  0.6969 -0.4562
13851TIP3    H162968   6.052   5.911  11.723  1.3041  0.1789 -0.3334
13851TIP3    H262969   6.006   6.020  11.628 -2.0291 -1.2654 -0.4949
13852TIP3   OH262970   6.162   3.391  14.964 -0.5340  0.2254 -0.2657
13852TIP3    H162971   6.119   3.405  14.879  0.9789 -0.0651 -1.1277
13852TIP3    H262972   6.112   3.321  15.006  0.0503 -1.3244 -1.9890
13853TIP3   OH262973   4.267   3.761  12.551  0.4717  0.6835 -0.0127
13853TIP3    H162974   4.298   3.811  12.475  0.3773  0.2912 -0.3111
13853TIP3    H262975   4.172   3.755  12.537  0.3656  1.1697  0.4708
13854TIP3   OH262976   2.751   3.217   1.089  0.2167  0.1548  0.1945
13854TIP3    H162977   2.681   3.259   1.140  0.0556  0.1592 -0.0304
13854TIP3    H262978   2.825   3.277   1.096 -0.7199  1.6895 -2.1014
13855TIP3   OH262979   0.456   4.990   2.351 -0.5919  0.5417  0.3028
13855TIP3    H162980   0.429   4.930   2.420  1.1614  0.9429  1.3883
13855TIP3    H262981   0.507   5.058   2.395 -1.5303  2.2168 -1.0521
13856TIP3   OH262982   2.619   6.602  17.029 -0.6424 -0.4276  0.3579
13856TIP3    H162983   2.627   6.630  17.120 -0.6440 -1.0939  0.5735
13856TIP3    H262984   2.590   6.680  16.981 -0.4539 -0.0258  0.8929
13857TIP3   OH262985   0.317   2.795   0.149 -0.0729  0.1810  0.2897
13857TIP3    H162986   0.262   2.752   0.083  0.2764  0.1655  0.0067
13857TIP3    H262987   0.358   2.867   0.102 -0.2234  0.4890  0.6250
13858TIP3   OH262988   5.765   6.654   1.318  0.2107 -0.1540  0.6284
13858TIP3    H162989   5.798   6.684   1.233 -1.4056 -1.2983 -0.4519
13858TIP3    H262990   5.788   6.561   1.321 -0.5709 -0.3422  1.0273
13859TIP3   OH262991   3.647   4.113   1.412 -0.6068  0.4260  0.1081
13859TIP3    H162992   3.707   4.062   1.358 -1.3306  0.9157 -1.2076
13859TIP3    H262993   3.687   4.200   1.417 -0.0684  0.1363  1.1875
13860TIP3   OH262994   4.915   6.239   6.844  0.3889  0.0444 -0.1926
13860TIP3    H162995   4.971   6.173   6.885 -2.2048 -1.6158  0.9325
13860TIP3    H262996   4.912   6.214   6.751  1.8958  0.5274 -0.4051
13861TIP3   OH262997   0.175   3.658  11.463 -0.1450  0.4150 -1.0111
13861TIP3    H162998   0.241   3.595  11.431  0.6074  1.6402 -1.9480
13861TIP3    H262999   0.115   3.604  11.514  1.1436 -0.8862 -0.7653
13862TIP3   OH263000   2.234   6.191  16.501  0.6840  0.5202  0.3762
13862TIP3    H163001   2.232   6.256  16.571 -0.1984  1.7364 -0.7508
13862TIP3    H263002   2.176   6.225  16.433 -0.2949 -1.7176 -0.0187
13863TIP3   OH263003   2.701   3.525   4.186  0.2801  0.5927 -0.3816
13863TIP3    H163004   2.721   3.576   4.108  0.1492  1.7065  0.2915
13863TIP3    H263005   2.762   3.557   4.252 -1.7907  2.1140  0.9302
13864TIP3   OH263006   6.668   0.133  13.715  0.4244 -0.2922  0.0200
13864TIP3    H163007   6.698   0.047  13.689  2.1415 -0.1422  1.3325
13864TIP3    H263008   6.642   0.123  13.807 -0.9986  0.2281 -0.2942
13865TIP3   OH263009   2.146   5.691   1.017 -0.3796 -0.2372 -0.4522
13865TIP3    H163010   2.088   5.614   1.019 -0.1859 -0.3683  0.7938
13865TIP3    H263011   2.087   5.766   1.016 -0.6837 -0.3094  2.6130
13866TIP3   OH263012   1.809   2.201  11.017 -0.4106  0.5314  0.0776
13866TIP3    H163013   1.822   2.288  10.979  0.6420 -0.0849 -1.0534
13866TIP3    H263014   1.860   2.143  10.960 -1.8200 -0.9546  0.2752
13867TIP3   OH263015   4.616   1.833   4.578  0.3163 -0.4074 -0.6384
13867TIP3    H163016   4.535   1.883   4.565  0.5445  0.1945  0.1775
13867TIP3    H263017   4.664   1.883   4.644  2.2124  0.2538 -2.4293
13868TIP3   OH263018   0.223   5.486  12.806 -0.0887  0.8929 -0.2374
13868TIP3    H163019   0.162   5.486  12.733  2.1248  0.5335 -2.2104
13868TIP3    H263020   0.217   5.397  12.842  0.9108  0.0662 -1.9586
13869TIP3   OH263021   0.858   5.730  15.520  0.1208  0.1537 -0.1617
13869TIP3    H163022   0.837   5.763  15.607 -1.7190 -0.7446 -0.2276
13869TIP3    H263023   0.780   5.683  15.492  0.1747  1.4449 -2.8325
13870TIP3   OH263024   5.054   1.258   6.409 -0.0910 -0.0679 -0.3792
13870TIP3    H163025   5.135   1.304   6.388 -0.6898  1.1549 -0.1024
13870TIP3    H263026   4.986   1.325   6.402 -0.8896 -0.7053  0.9289
13871TIP3   OH263027   5.747   4.812  13.520 -0.1264  0.2227 -0.0029
13871TIP3    H163028   5.685   4.808  13.593  2.4555 -1.0844  2.2990
13871TIP3    H263029   5.829   4.778  13.556  1.3927 -0.2285 -3.4801
13872TIP3   OH263030   4.600   0.237   2.995 -0.0415  0.0076  0.1792
13872TIP3    H163031   4.677   0.288   2.971  0.3994 -0.5270  0.4231
13872TIP3    H263032   4.589   0.175   2.922  0.6546 -0.9002  0.8175
13873TIP3   OH263033   3.872   6.111  14.649  1.0286 -0.1371 -0.7309
13873TIP3    H163034   3.806   6.100  14.581  0.6821 -3.5023 -0.0030
13873TIP3    H263035   3.823   6.134  14.728  0.8379 -1.3932 -0.4733
13874TIP3   OH263036   5.519   4.238  14.576 -0.1533  0.0491  0.5729
13874TIP3    H163037   5.467   4.315  14.553  1.2258  0.9527  0.3686
13874TIP3    H263038   5.541   4.198  14.492 -1.3224 -0.9035  0.6994
13875TIP3   OH263039   6.682   0.189   0.794  0.1269 -0.2054  0.6003
13875TIP3    H163040   6.618   0.198   0.865 -0.2918  0.9722  0.1011
13875TIP3    H263041   6.631   0.162   0.718 -0.3765  3.3127 -0.5289
13876TIP3   OH263042   5.440   1.598  15.971  0.1726 -0.2977  0.1094
13876TIP3    H163043   5.414   1.669  16.030  2.6266  0.3512  0.4985
13876TIP3    H263044   5.482   1.533  16.028 -0.5325 -1.3222 -0.4839
13877TIP3   OH263045   4.036   3.889   3.587  1.0002 -0.0015 -0.1457
13877TIP3    H163046   4.004   3.895   3.497  1.1251 -1.6891 -0.3452
13877TIP3    H263047   4.096   3.814   3.585 -0.4726 -1.3276  1.7439
13878TIP3   OH263048   2.294   0.639  16.855 -0.0421  0.2612  0.4145
13878TIP3    H163049   2.205   0.616  16.881 -0.3040  1.4316  0.6011
13878TIP3    H263050   2.307   0.727  16.890  0.7166  0.6380 -0.7665
13879TIP3   OH263051   2.678   0.361   1.645 -0.0694  0.1986 -0.0701
13879TIP3    H163052   2.746   0.399   1.590 -0.0905  0.2176 -0.0832
13879TIP3    H263053   2.620   0.315   1.585  0.9027 -1.3203  0.1127
13880TIP3   OH263054   1.810   1.410  16.095  0.5652 -0.0962  0.0496
13880TIP3    H163055   1.806   1.329  16.146  1.4346  0.9300  1.8400
13880TIP3    H263056   1.732   1.459  16.121  0.8035  0.2719  0.0695
13881TIP3   OH263057   0.380   5.454  11.985 -0.3039  0.0989 -0.7548
13881TIP3    H163058   0.436   5.381  12.010 -1.9340 -1.8357 -2.4192
13881TIP3    H263059   0.441   5.523  11.958  1.3056 -1.6136 -1.6884
13882TIP3   OH263060   2.214   5.502   1.270  0.5077 -0.3126  0.4183
13882TIP3    H163061   2.151   5.476   1.202  1.8135 -2.6637 -0.0040
13882TIP3    H263062   2.221   5.425   1.326  4.0241 -0.7272 -0.3593
13883TIP3   OH263063   5.739   5.422  12.005  0.0341  0.5438  0.0641
13883TIP3    H163064   5.798   5.393  12.075  0.9543  0.4889 -0.7325
13883TIP3    H263065   5.796   5.452  11.935 -0.4639 -4.5832 -3.1149
13884TIP3   OH263066   0.414   0.465  16.298  0.2948  0.2346  0.8977
13884TIP3    H163067   0.490   0.522  16.314  0.4765  0.5655 -0.9429
13884TIP3    H263068   0.452   0.379  16.283  0.1569  0.0229  1.7006
13885TIP3   OH263069   4.599   6.209  12.663  0.6277  0.0976  0.3104
13885TIP3    H163070   4.551   6.164  12.732  1.3976  0.5071  1.1357
13885TIP3    H263071   4.561   6.176  12.582  0.0825 -0.8140  0.9152
13886TIP3   OH263072   0.535   1.073  15.570 -0.3448 -0.1428  0.3113
13886TIP3    H163073   0.624   1.039  15.557  0.1820 -0.1503  3.2155
13886TIP3    H263074   0.484   0.997  15.598 -0.9736  0.0919 -0.1920
13887TIP3   OH263075   2.739   4.768  11.298  0.1344 -0.5229  0.0260
13887TIP3    H163076   2.659   4.770  11.245  0.1296  3.1163 -0.1173
13887TIP3    H263077   2.709   4.785  11.387  0.6436 -0.2599  0.1490
13888TIP3   OH263078   5.960   3.977   4.567  0.0470  0.1587  0.9911
13888TIP3    H163079   6.026   4.045   4.555 -0.2129  0.7342  2.6295
13888TIP3    H263080   5.960   3.960   4.661 -2.1832  0.2215  1.0496
13889TIP3   OH263081   6.099   3.362  14.059  0.2344  0.6346  0.2788
13889TIP3    H163082   6.136   3.396  13.977 -1.1890 -0.3146 -0.8136
13889TIP3    H263083   6.094   3.439  14.116  3.0670  0.9506  0.2311
13890TIP3   OH263084   3.502   4.571   1.653  0.1830 -0.1061 -0.3274
13890TIP3    H163085   3.541   4.639   1.597  1.7951 -0.4544  0.3236
13890TIP3    H263086   3.566   4.559   1.724 -0.0091 -2.3482 -0.4662
13891TIP3   OH263087   1.534   0.833   3.704  0.8551 -0.2135 -0.1196
13891TIP3    H163088   1.587   0.753   3.700 -1.2092 -1.6217 -1.4745
13891TIP3    H263089   1.565   0.885   3.630  2.4468  0.4780  0.9707
13892TIP3   OH263090   5.406   2.446   5.767 -0.0699 -0.1503  0.0946
13892TIP3    H163091   5.494   2.417   5.794 -0.6189  0.5188  2.9003
13892TIP3    H263092   5.347   2.384   5.808 -1.0022 -0.9886 -2.3038
13893TIP3   OH263093   2.079   3.456   4.379  0.3959 -0.2736 -0.0059
13893TIP3    H163094   2.100   3.479   4.288  0.7008  1.4271  0.4640
13893TIP3    H263095   2.031   3.373   4.372 -1.1020  0.6659 -1.8592
13894TIP3   OH263096   5.868   0.132   5.352 -0.7781  0.2527  0.5696
13894TIP3    H163097   5.800   0.074   5.385 -1.7108  0.2638 -1.1996
13894TIP3    H263098   5.889   0.097   5.265  1.6298  0.1458  1.1278
13895TIP3   OH263099   0.076   3.814   6.486 -0.1714  0.0376  0.3082
13895TIP3    H163100   0.130   3.755   6.434 -0.5577  0.8732 -1.0751
13895TIP3    H263101   0.127   3.829   6.566  0.5323 -1.0760  0.0874
13896TIP3   OH263102   0.978   4.488  12.573 -0.2905  0.3184  0.1437
13896TIP3    H163103   1.018   4.442  12.499  1.1150  0.1398  0.9727
13896TIP3    H263104   0.943   4.568  12.535  2.0677  1.1551 -0.4729
13897TIP3   OH263105   5.658   2.572  12.207 -0.3004 -0.5114 -0.1794
13897TIP3    H163106   5.635   2.480  12.193 -3.7290  0.0253  1.0051
13897TIP3    H263107   5.668   2.580  12.302  1.6002  0.0812 -0.3840
13898TIP3   OH263108   6.724   0.770  14.796  0.1581  0.8220  1.1973
13898TIP3    H163109   6.641   0.818  14.792 -0.7579 -0.7643  0.0199
13898TIP3    H263110   6.791   0.839  14.804 -1.2020  2.1777  1.4282
13899TIP3   OH263111   4.610   1.771  13.526  0.5330 -0.3063  0.6184
13899TIP3    H163112   4.633   1.864  13.531  0.7040  0.0279 -3.3234
13899TIP3    H263113   4.694   1.725  13.525  0.5574 -0.2564 -0.0268
13900TIP3   OH263114   0.428   1.085  15.239  0.4983 -0.3108  0.0602
13900TIP3    H163115   0.438   1.065  15.333 -1.4393 -0.6078  0.2464
13900TIP3    H263116   0.474   1.168  15.227 -0.1240  0.2935  1.5299
13901TIP3   OH263117   3.662   6.093  15.797 -0.1288  0.1806  0.3477
13901TIP3    H163118   3.613   6.082  15.715 -3.5004  2.3965  1.8366
13901TIP3    H263119   3.723   6.165  15.780 -0.4013  0.2464 -0.3733
13902TIP3   OH263120   3.892   6.680   5.950 -0.5232  0.5557  0.4559
13902TIP3    H163121   3.807   6.647   5.978 -0.7437  1.4047  0.8226
13902TIP3    H263122   3.944   6.601   5.932 -0.8649 -0.0093  1.8004
13903TIP3   OH263123   2.901   4.498   3.619 -0.0932 -0.4703 -0.6038
13903TIP3    H163124   2.817   4.502   3.665 -0.4730  0.4902 -1.3515
13903TIP3    H263125   2.950   4.574   3.652  0.5169 -1.0627 -0.1228
13904TIP3   OH263126   3.201   0.430   4.475  0.0892  0.1766  0.0099
13904TIP3    H163127   3.157   0.348   4.497 -0.2118  0.1055 -0.8332
13904TIP3    H263128   3.176   0.490   4.545  0.0140 -0.3447  0.4359
13905TIP3   OH263129   1.232   6.324   2.583  0.3916  0.6348 -0.5868
13905TIP3    H163130   1.305   6.274   2.546  0.2974  0.2693 -0.2749
13905TIP3    H263131   1.167   6.258   2.606  0.7591  0.7810  0.9573
13906TIP3   OH263132   3.365   2.650   5.934 -0.4367 -0.0669 -0.1412
13906TIP3    H163133   3.397   2.573   5.981 -0.0164  0.4483  0.4294
13906TIP3    H263134   3.444   2.701   5.916 -0.4861 -0.5381 -1.9675
13907TIP3   OH263135   2.941   0.373   2.826 -1.0418 -0.2070 -0.2464
13907TIP3    H163136   2.955   0.462   2.859 -2.0572 -0.1724  0.1319
13907TIP3    H263137   2.966   0.316   2.899  0.0931 -0.2654 -0.6618
13908TIP3   OH263138   4.705   0.160   0.788  0.2286  0.0172  1.1370
13908TIP3    H163139   4.667   0.190   0.706  0.1127  1.2832  1.6232
13908TIP3    H263140   4.756   0.083   0.765 -0.9207 -0.4615  0.1232
13909TIP3   OH263141   5.636   5.391   0.941 -0.3071 -0.1940  0.0130
13909TIP3    H163142   5.569   5.396   0.872  0.1289 -0.4781 -0.4351
13909TIP3    H263143   5.655   5.298   0.948 -2.0010 -0.4611  2.1304
13910TIP3   OH263144   2.843   6.212   4.715  0.0460 -0.0783 -0.1140
13910TIP3    H163145   2.791   6.275   4.666  0.0002  0.6927  0.8852
13910TIP3    H263146   2.800   6.128   4.701 -0.8309  0.3781 -0.1744
13911TIP3   OH263147   5.276   1.848  17.282 -0.2881  0.0843 -0.2694
13911TIP3    H163148   5.274   1.803  17.367 -2.1065  0.8106  0.1228
13911TIP3    H263149   5.251   1.938  17.302  4.1050  1.7103 -0.9071
13912TIP3   OH263150   2.969   4.516   1.772  0.1107 -0.4125 -0.0741
13912TIP3    H163151   3.049   4.515   1.719  0.5791 -0.6278  0.6312
13912TIP3    H263152   2.989   4.576   1.843 -0.7192  0.3059 -0.4368
13913TIP3   OH263153   2.600   1.989   2.296 -0.0867 -0.1582  0.3554
13913TIP3    H163154   2.657   1.916   2.270  0.3540 -0.4569  2.0706
13913TIP3    H263155   2.534   1.993   2.227  1.1120 -0.7995 -0.8813
13914TIP3   OH263156   0.378   2.173  17.222  0.3395 -0.1895  0.4252
13914TIP3    H163157   0.322   2.171  17.300  0.9275 -0.4376  0.8543
13914TIP3    H263158   0.467   2.182  17.257  0.6973 -1.2476 -0.1768
13915TIP3   OH263159   4.574   5.732  12.399 -0.4896  0.1648  0.2565
13915TIP3    H163160   4.486   5.709  12.371 -0.5604  1.4908 -0.7472
13915TIP3    H263161   4.562   5.801  12.464 -0.2113  0.2153  0.2578
13916TIP3   OH263162   0.315   4.158   1.349  0.1193  0.1204  0.4399
13916TIP3    H163163   0.268   4.094   1.294 -0.9856 -0.0027  1.5015
13916TIP3    H263164   0.338   4.109   1.428 -0.5841  0.9873  1.1913
13917TIP3   OH263165   6.730   5.735  14.810 -0.2720  0.0534 -0.3255
13917TIP3    H163166   6.740   5.821  14.771 -0.1375 -0.6438 -1.8949
13917TIP3    H263167   6.712   5.676  14.736 -2.5408 -0.9378  0.8922
13918TIP3   OH263168   4.794   1.308   3.259  0.1989 -0.1787  0.6735
13918TIP3    H163169   4.862   1.313   3.327  0.6212 -2.3534  0.4662
13918TIP3    H263170   4.828   1.360   3.187  0.6308  0.5540  1.3899
13919TIP3   OH263171   1.371   5.718   5.322  0.0284  0.1883 -0.0323
13919TIP3    H163172   1.390   5.639   5.373 -1.6632 -1.4213 -1.7574
13919TIP3    H263173   1.297   5.759   5.367 -1.0740 -0.9037 -0.7969
13920TIP3   OH263174   5.792   6.515   5.179 -0.2987  0.1147  0.2720
13920TIP3    H163175   5.815   6.442   5.121 -0.6468 -0.2763  0.6246
13920TIP3    H263176   5.829   6.491   5.263 -1.4120 -0.2045  0.6822
13921TIP3   OH263177   4.819   5.888  11.579  0.3323  0.4833 -0.0324
13921TIP3    H163178   4.909   5.918  11.594  0.5967 -0.5686  0.5528
13921TIP3    H263179   4.813   5.804  11.625 -0.2624 -0.5660 -1.8955
13922TIP3   OH263180   3.591   3.338  11.413 -0.1813  0.7242  0.4262
13922TIP3    H163181   3.542   3.373  11.339 -3.7612 -1.2035  1.6353
13922TIP3    H263182   3.582   3.405  11.481 -0.4922  0.7333  0.3795
13923TIP3   OH263183   4.754   1.689  16.038  0.2373  0.2009 -0.3219
13923TIP3    H163184   4.764   1.621  15.971  0.0748  0.0204 -0.1640
13923TIP3    H263185   4.681   1.659  16.092  1.4311 -0.4982  0.9496
13924TIP3   OH263186   2.847   4.281   1.380  0.3814 -0.0837 -0.1246
13924TIP3    H163187   2.894   4.322   1.306 -0.0124  0.6628  0.0327
13924TIP3    H263188   2.755   4.293   1.359  0.2125 -2.2312 -0.8118
13925TIP3   OH263189   6.009   2.034   6.360  0.1722  0.6149  0.0075
13925TIP3    H163190   5.992   2.052   6.453 -2.7895 -0.1470 -0.2872
13925TIP3    H263191   6.056   2.112   6.329 -0.2939  1.6534  1.7656
13926TIP3   OH263192   1.560   3.298   0.010 -0.0461  0.0765  0.3546
13926TIP3    H163193   1.534   3.242  -0.064  0.2435 -1.8014  1.6006
13926TIP3    H263194   1.481   3.305   0.063  0.6915 -2.0061  1.8931
13927TIP3   OH263195   3.205   0.521   3.579  0.0583 -0.5524 -0.1200
13927TIP3    H163196   3.189   0.560   3.664 -0.0683  0.9618 -0.7948
13927TIP3    H263197   3.119   0.492   3.548 -0.0970  0.0194 -0.2393
13928TIP3   OH263198   2.269   4.828   6.753 -0.6824 -0.3780  0.4835
13928TIP3    H163199   2.242   4.890   6.821 -2.8060 -2.3988  1.6387
13928TIP3    H263200   2.265   4.743   6.796  1.3067 -1.4548 -1.2785
13929TIP3   OH263201   6.580   1.446  13.190 -0.1323 -0.0550 -0.0386
13929TIP3    H163202   6.553   1.469  13.279  1.4085  0.0110  0.4509
13929TIP3    H263203   6.633   1.367  13.200 -0.7352 -0.6005 -1.0232
13930TIP3   OH263204   4.163   1.084   4.596 -0.1687 -0.1027  0.5289
13930TIP3    H163205   4.212   1.158   4.559 -1.7414  0.5444 -0.3477
13930TIP3    H263206   4.090   1.124   4.642 -0.5606 -1.0898  0.7848
13931TIP3   OH263207   1.963   1.982  14.605  0.2498  0.0644 -0.5479
13931TIP3    H163208   1.882   1.996  14.557  1.1886 -0.5909 -2.4361
13931TIP3    H263209   2.032   1.985  14.538  1.8997  1.5329  1.0978
13932TIP3   OH263210   5.854   2.912  13.896  0.3907  0.4897  0.2058
13932TIP3    H163211   5.944   2.927  13.927  0.0222  0.5949  1.2602
13932TIP3    H263212   5.811   2.997  13.908  0.7150  1.1539 -2.4631
13933TIP3   OH263213   0.617   1.358  13.345  0.7040 -0.3616  0.9848
13933TIP3    H163214   0.684   1.292  13.329  2.3194  1.2062  0.9650
13933TIP3    H263215   0.613   1.410  13.265  0.2957  0.2750  1.4013
13934TIP3   OH263216   4.830   4.597  14.479  0.6193 -0.0546 -0.1836
13934TIP3    H163217   4.770   4.590  14.553 -1.1083  0.0860 -1.4932
13934TIP3    H263218   4.898   4.658  14.508 -0.5851  0.8185  0.9170
13935TIP3   OH263219   0.890   3.060  10.800  0.1124  0.2477 -0.3229
13935TIP3    H163220   0.963   3.062  10.862 -0.6249  1.0249  0.5401
13935TIP3    H263221   0.822   3.113  10.841 -1.9042 -2.4329  0.0779
13936TIP3   OH263222   5.473   6.388   4.254 -0.0436 -0.7407 -0.1422
13936TIP3    H163223   5.500   6.469   4.210 -1.9034  0.0096 -0.0042
13936TIP3    H263224   5.378   6.385   4.242 -0.0689 -2.6802  0.2652
13937TIP3   OH263225   4.912   4.463  15.865  0.0451 -0.0747 -0.0480
13937TIP3    H163226   4.864   4.520  15.806 -1.0598 -0.5170  0.4071
13937TIP3    H263227   4.853   4.389  15.882  0.4404 -0.1017  1.3780
13938TIP3   OH263228   1.391   1.934   2.882 -0.5262  0.4736 -0.5234
13938TIP3    H163229   1.442   2.014   2.877 -0.9547  0.7581 -0.3867
13938TIP3    H263230   1.343   1.941   2.964  1.5377 -1.2064  0.9268
13939TIP3   OH263231   0.568   1.923  13.732  0.5508  0.7782  0.1251
13939TIP3    H163232   0.552   2.017  13.730 -1.1272  0.5212  0.1871
13939TIP3    H263233   0.586   1.904  13.824 -0.6857  0.8268  0.3975
13940TIP3   OH263234   4.914   2.238  15.398 -0.3048 -0.2093 -0.0650
13940TIP3    H163235   4.968   2.268  15.471 -1.4860  0.9891  0.3462
13940TIP3    H263236   4.863   2.314  15.372 -2.4105 -1.4659  0.1128
13941TIP3   OH263237   4.043   0.596  12.351 -0.5969  0.3960  0.0756
13941TIP3    H163238   4.029   0.548  12.433 -0.3105  0.9167  0.4419
13941TIP3    H263239   4.057   0.687  12.379 -2.3168  0.9303 -0.6820
13942TIP3   OH263240   0.886   0.299   0.552  0.6280 -0.3438 -0.0305
13942TIP3    H163241   0.801   0.341   0.534  0.5286 -0.1834  0.7647
13942TIP3    H263242   0.917   0.342   0.632  2.0532  0.4675 -0.9806
13943TIP3   OH263243   0.547   6.088  12.397  0.4958 -0.0610 -0.0019
13943TIP3    H163244   0.522   6.086  12.305  0.3872 -0.7063  0.0404
13943TIP3    H263245   0.473   6.048  12.443  0.7290 -0.1185  0.3259
13944TIP3   OH263246   2.353   4.417  12.413 -0.0253 -0.3667 -0.8651
13944TIP3    H163247   2.271   4.426  12.463  0.1610  0.0656 -0.6343
13944TIP3    H263248   2.333   4.350  12.347 -0.4011 -0.6480 -0.4734
13945TIP3   OH263249   6.429   5.690   2.600  0.5457  0.2430  0.1187
13945TIP3    H163250   6.485   5.656   2.670  1.2972  0.3651 -0.4156
13945TIP3    H263251   6.418   5.782   2.620 -0.9395 -0.1324  1.1979
13946TIP3   OH263252   4.422   5.885   3.150 -0.5303 -0.2713  0.1161
13946TIP3    H163253   4.429   5.953   3.216  1.0889 -2.7654  2.7639
13946TIP3    H263254   4.474   5.917   3.076  0.9455  0.9641  1.6301
13947TIP3   OH263255   1.601   1.385  16.399  0.2843  0.3246 -0.0441
13947TIP3    H163256   1.593   1.442  16.475  2.1489  0.2352  0.2643
13947TIP3    H263257   1.601   1.445  16.324  2.5374  0.8373  0.2939
13948TIP3   OH263258   1.309   3.843   4.380 -0.1949 -0.1978 -0.5120
13948TIP3    H163259   1.272   3.812   4.463 -0.1633 -0.8918 -0.7463
13948TIP3    H263260   1.255   3.919   4.356  0.7317  0.9266  0.8730
13949TIP3   OH263261   5.520   1.756  11.146  0.3049 -0.4779  0.1921
13949TIP3    H163262   5.599   1.727  11.100 -0.7731 -1.4873 -1.1131
13949TIP3    H263263   5.450   1.748  11.081 -1.0652 -0.6584  1.6244
13950TIP3   OH263264   4.288   4.496   5.168  0.1081 -0.4581 -0.3337
13950TIP3    H163265   4.250   4.475   5.253  0.7029 -1.4794 -0.3055
13950TIP3    H263266   4.356   4.560   5.187 -1.4954  1.3672 -0.3811
13951TIP3   OH263267   4.674   3.515  14.748  0.0960 -0.4255 -0.2443
13951TIP3    H163268   4.723   3.515  14.830  0.3307 -1.1642 -0.3722
13951TIP3    H263269   4.741   3.508  14.680 -0.0742  0.5958 -0.5277
13952TIP3   OH263270   5.281   5.766  16.501 -0.3734  0.0926  0.4178
13952TIP3    H163271   5.290   5.854  16.465 -0.8373 -0.1182 -0.2318
13952TIP3    H263272   5.208   5.727  16.453 -0.3075 -0.5789  0.8379
13953TIP3   OH263273   4.356   1.820  14.788  0.7470  0.3279  0.3287
13953TIP3    H163274   4.351   1.733  14.749 -0.6505  0.4542  0.1791
13953TIP3    H263275   4.313   1.877  14.725 -0.1306  0.8031  1.3279
13954TIP3   OH263276   5.720   4.543  10.983 -0.0915  0.2979  0.2480
13954TIP3    H163277   5.711   4.501  10.897  3.2533 -0.5466  0.1746
13954TIP3    H263278   5.688   4.632  10.969  2.6439  1.0230 -2.7226
13955TIP3   OH263279   0.247   2.216   4.415  0.6254  0.3718 -0.4289
13955TIP3    H163280   0.294   2.139   4.447 -0.9673 -1.7628 -2.8546
13955TIP3    H263281   0.189   2.241   4.487  0.2939 -1.5111  0.0141
13956TIP3   OH263282   5.365   2.925  15.075  0.0865  0.1915  0.8433
13956TIP3    H163283   5.411   2.842  15.061 -0.8703 -0.4268  1.2443
13956TIP3    H263284   5.422   2.991  15.036 -0.0520 -0.8801 -1.3741
13957TIP3   OH263285   2.808   5.418  16.114  0.2308  0.1739 -0.0047
13957TIP3    H163286   2.861   5.485  16.070  0.3834  0.5171  0.6804
13957TIP3    H263287   2.720   5.431  16.080  0.0268  1.4711  0.9180
13958TIP3   OH263288   6.006   2.408  11.640  0.7750  0.9270 -0.3864
13958TIP3    H163289   6.088   2.433  11.682  1.3389 -2.2207  0.6768
13958TIP3    H263290   6.034   2.360  11.561 -0.0562  0.6166 -0.4966
13959TIP3   OH263291   3.016   5.269  12.355  0.1772  0.4660 -0.0144
13959TIP3    H163292   3.039   5.274  12.262 -0.7488  3.9272 -0.1841
13959TIP3    H263293   3.088   5.220  12.394  1.4919  0.4125 -2.2902
13960TIP3   OH263294   3.217   2.040   5.411 -0.0296  0.2947  0.0791
13960TIP3    H163295   3.239   1.998   5.327 -0.2223  0.2279  0.0628
13960TIP3    H263296   3.223   2.134   5.392 -0.4063  0.2837 -0.0977
13961TIP3   OH263297   5.716   3.716   5.101 -0.3438  0.4068 -0.2257
13961TIP3    H163298   5.624   3.695   5.083 -0.0283 -1.6678  0.3944
13961TIP3    H263299   5.763   3.684   5.025  0.1070 -0.8767  0.5606
13962TIP3   OH263300   0.572   0.034   4.497 -0.0470  0.3981 -0.2112
13962TIP3    H163301   0.547  -0.058   4.495  1.0646  0.0987 -1.3440
13962TIP3    H263302   0.489   0.082   4.494 -0.5658 -0.5554 -1.9461
13963TIP3   OH263303   6.350   6.250   0.680  0.8076 -0.3823  0.0418
13963TIP3    H163304   6.257   6.235   0.666  0.1922  1.4855  1.7443
13963TIP3    H263305   6.381   6.285   0.597  0.0341 -1.0709 -0.5576
13964TIP3   OH263306   5.884   4.107   0.188 -0.6131  0.1270 -0.6979
13964TIP3    H163307   5.950   4.152   0.134 -0.5260 -1.9782 -2.4481
13964TIP3    H263308   5.935   4.062   0.255 -0.3803 -0.2895 -1.1490
13965TIP3   OH263309   3.609   6.569   3.288 -0.4624 -0.4035  0.1675
13965TIP3    H163310   3.600   6.659   3.320  1.8960  0.0545 -0.2214
13965TIP3    H263311   3.543   6.560   3.220  0.1262  1.5381 -0.7301
13966TIP3   OH263312   1.570   2.607  13.728  0.4264  0.3710 -0.0027
13966TIP3    H163313   1.626   2.541  13.685 -0.0582 -1.5461  2.1196
13966TIP3    H263314   1.594   2.603  13.820 -1.2130  1.5710  0.5259
13967TIP3   OH263315   1.471   1.778   6.211  0.3028  0.4213 -0.3066
13967TIP3    H163316   1.464   1.871   6.233 -0.5155  0.4616 -0.6885
13967TIP3    H263317   1.460   1.733   6.295  0.1095  0.6487 -0.2087
13968TIP3   OH263318   5.551   1.392   3.992 -0.2088  0.3019 -0.3012
13968TIP3    H163319   5.524   1.349   3.910 -0.2077 -0.9494  0.3238
13968TIP3    H263320   5.487   1.462   4.005  0.7184  1.5667 -2.1738
13969TIP3   OH263321   4.061   6.654   0.664  0.0698 -0.1636 -0.6844
13969TIP3    H163322   4.082   6.704   0.585 -0.0976  1.1202  0.0473
13969TIP3    H263323   4.144   6.646   0.711 -0.3243  1.9577  0.5568
13970TIP3   OH263324   0.648   5.088  15.119  0.0643 -0.6520  0.5143
13970TIP3    H163325   0.667   5.040  15.038  0.2770 -1.0901  0.8202
13970TIP3    H263326   0.685   5.034  15.189  0.5462  0.0862  0.8511
13971TIP3   OH263327   2.798   3.234  13.941 -0.4593 -0.1354  0.2210
13971TIP3    H163328   2.750   3.175  13.998  0.2066 -0.8779  0.0221
13971TIP3    H263329   2.839   3.177  13.876  0.1025  0.5522 -0.0377
13972TIP3   OH263330   1.323   4.124  12.776  0.3718  0.1997 -0.4530
13972TIP3    H163331   1.368   4.092  12.854  0.6637 -1.5625 -1.2900
13972TIP3    H263332   1.375   4.091  12.703 -0.0184  1.6152 -1.4206
13973TIP3   OH263333   2.423   4.071  13.699  0.0379  0.6411 -0.4599
13973TIP3    H163334   2.434   4.164  13.717  0.5215  0.5560 -0.2973
13973TIP3    H263335   2.485   4.028  13.758  1.8114  0.3610 -2.4157
13974TIP3   OH263336   5.245   5.921  15.702 -0.8246 -0.2136 -0.5903
13974TIP3    H163337   5.193   5.841  15.696  0.6064 -1.1686 -0.7942
13974TIP3    H263338   5.220   5.972  15.624 -0.6495 -1.1552 -1.2795
13975TIP3   OH263339   5.588   3.731   2.229  0.7987 -0.0114 -0.6644
13975TIP3    H163340   5.539   3.738   2.147  1.8381  1.0846 -1.2170
13975TIP3    H263341   5.633   3.815   2.238  0.5396 -0.0284  1.1509
13976TIP3   OH263342   1.493   4.386  10.574  0.2988 -0.1888  0.4180
13976TIP3    H163343   1.584   4.370  10.553 -0.0470  0.0281 -1.3971
13976TIP3    H263344   1.471   4.467  10.528 -0.2225  1.0704  2.6835
13977TIP3   OH263345   0.916   0.348   0.128  0.7083  0.3786  0.8130
13977TIP3    H163346   0.946   0.410   0.194  1.4021 -0.6648  1.5210
13977TIP3    H263347   0.868   0.281   0.178  1.1416 -0.3697  0.2479
13978TIP3   OH263348   3.452   3.696  11.064 -0.2930 -0.7192  0.0074
13978TIP3    H163349   3.385   3.738  11.009 -1.5047  1.0854  2.6658
13978TIP3    H263350   3.511   3.767  11.088  0.0254 -1.3928  1.2625
13979TIP3   OH263351   2.463   5.099  15.825  0.0229 -0.4071  0.5513
13979TIP3    H163352   2.505   5.102  15.911 -0.0866 -0.0932  0.5938
13979TIP3    H263353   2.503   5.024  15.781 -0.1383 -0.7520  0.9900
13980TIP3   OH263354   1.279   2.291  11.189  0.1585 -0.6057 -0.3214
13980TIP3    H163355   1.218   2.355  11.225  1.6179 -0.4731  2.1723
13980TIP3    H263356   1.295   2.320  11.099 -0.7491  1.3375  0.0917
13981TIP3   OH263357   5.491   0.222   5.193  0.7230  0.5484  0.1898
13981TIP3    H163358   5.567   0.168   5.217  0.3844 -0.6202 -1.2229
13981TIP3    H263359   5.529   0.299   5.150  1.1304  0.1308 -0.2157
13982TIP3   OH263360   0.824   4.509   2.028 -0.0953 -0.3723 -0.7828
13982TIP3    H163361   0.904   4.471   2.064 -0.2430  0.2894  0.2873
13982TIP3    H263362   0.847   4.536   1.940  0.5720 -1.0994 -0.8424
13983TIP3   OH263363   2.963   3.578   2.520 -0.7591 -0.2133 -0.1555
13983TIP3    H163364   3.025   3.619   2.460  0.5903 -0.8767  0.7488
13983TIP3    H263365   2.998   3.490   2.536 -0.9873 -0.0005  1.7323
13984TIP3   OH263366   1.963   2.522   1.347  0.4997  0.0431 -0.2269
13984TIP3    H163367   2.052   2.502   1.375  0.7216  1.0705 -0.1732
13984TIP3    H263368   1.967   2.612   1.315 -0.8721  0.7138  1.3390
13985TIP3   OH263369   4.357   3.601  11.030  0.2304  0.7245 -0.3376
13985TIP3    H163370   4.396   3.666  10.971  0.8768 -1.4291 -2.4415
13985TIP3    H263371   4.279   3.570  10.984 -0.6843  0.7263  1.1282
13986TIP3   OH263372   3.405   0.088   4.398 -0.1036 -0.0056  0.2689
13986TIP3    H163373   3.361   0.005   4.417  0.4035 -0.4591 -0.5023
13986TIP3    H263374   3.453   0.072   4.317  1.4609  0.4739  1.0549
13987TIP3   OH263375   0.184   5.439  14.104  0.4688 -0.2805 -0.2543
13987TIP3    H163376   0.231   5.363  14.070  2.9668 -0.2045  2.5800
13987TIP3    H263377   0.253   5.495  14.140 -1.5608  1.8138  0.6152
13988TIP3   OH263378   5.650   1.070  10.688 -0.2172  0.2814  0.4656
13988TIP3    H163379   5.641   0.980  10.656 -1.6445  0.9449 -1.1744
13988TIP3    H263380   5.695   1.116  10.617 -0.4910  1.0985  0.8048
13989TIP3   OH263381   0.889   0.231  13.631 -0.1839 -0.3854 -0.3537
13989TIP3    H163382   0.935   0.147  13.633  0.2345 -0.2004 -1.3834
13989TIP3    H263383   0.827   0.222  13.559 -0.9439 -0.2136  0.2767
13990TIP3   OH263384   4.830   2.044   4.480 -0.0625  0.0409  0.5006
13990TIP3    H163385   4.778   2.020   4.404 -0.3345 -1.4006  1.1069
13990TIP3    H263386   4.851   2.136   4.467 -0.5772 -0.0387 -1.0259
13991TIP3   OH263387   2.200   3.245   3.957 -0.0665  0.2949 -0.0709
13991TIP3    H163388   2.178   3.262   3.865  0.5726  0.1356 -0.2633
13991TIP3    H263389   2.236   3.156   3.957  1.1466  0.7568  0.1018
13992TIP3   OH263390   3.241   3.015   2.500 -0.0748  0.2220  0.2006
13992TIP3    H163391   3.266   2.931   2.539  1.1890  1.0655  1.2801
13992TIP3    H263392   3.265   3.080   2.566  1.3444  1.6505 -1.6166
13993TIP3   OH263393   3.025   2.634  13.065  0.3349 -0.6291 -0.7151
13993TIP3    H163394   2.967   2.700  13.104  0.3264 -1.0583  0.0186
13993TIP3    H263395   3.095   2.685  13.026 -0.0958 -0.1433 -0.8672
13994TIP3   OH263396   5.174   2.353  16.926  0.9200  0.1064 -0.5058
13994TIP3    H163397   5.197   2.379  17.015 -0.1091 -2.1224  0.5004
13994TIP3    H263398   5.083   2.323  16.933  0.9120 -0.3902 -2.2319
13995TIP3   OH263399   0.910   2.408   5.052  0.2913  0.1372 -0.0430
13995TIP3    H163400   0.950   2.485   5.091  0.2099  0.9791 -1.5599
13995TIP3    H263401   0.971   2.381   4.984  0.1398 -0.9390  0.2294
13996TIP3   OH263402   0.037   0.561  15.498 -0.0020 -0.1067  0.0769
13996TIP3    H163403   0.000   0.535  15.583  2.6495 -1.2333  0.9963
13996TIP3    H263404  -0.037   0.562  15.439 -1.8404 -0.0072  2.2443
13997TIP3   OH263405   5.042   4.223  16.840  0.4403 -0.8371 -1.0781
13997TIP3    H163406   5.075   4.143  16.881  0.7093 -0.5602 -0.7469
13997TIP3    H263407   5.118   4.282  16.838 -0.2233  0.1522  0.5350
13998TIP3   OH263408   0.267   2.991   3.477  0.5378 -0.3682  0.4257
13998TIP3    H163409   0.319   2.917   3.506  0.8884 -0.2655  0.0654
13998TIP3    H263410   0.282   3.058   3.544 -1.1561 -1.1868  1.7061
13999TIP3   OH263411   3.149   0.131   2.514  0.3034  0.2939  0.3390
13999TIP3    H163412   3.190   0.102   2.595  3.0841  0.7251 -0.7938
13999TIP3    H263413   3.191   0.215   2.495  0.5889 -0.3015 -2.0552
14000TIP3   OH263414   3.293   1.525  15.322  0.5465  0.3392  0.4224
14000TIP3    H163415   3.237   1.451  15.346  1.9226 -0.9128 -0.0806
14000TIP3    H263416   3.284   1.586  15.395 -1.8128  0.4255  0.1498
14001TIP3   OH263417   0.505   6.340   4.775 -0.2953 -0.5905 -0.2427
14001TIP3    H163418   0.425   6.309   4.732  0.3330 -1.6572 -0.6926
14001TIP3    H263419   0.576   6.304   4.722  0.4866  0.1456  0.2831
14002TIP3   OH263420   6.110   6.063   6.529  0.1706  0.1656  0.1047
14002TIP3    H163421   6.026   6.086   6.489  1.0584  1.1178 -1.3194
14002TIP3    H263422   6.122   5.970   6.510 -1.2255 -0.3668  1.6425
14003TIP3   OH263423   5.553   3.419  13.001  1.0586  0.0833  0.1453
14003TIP3    H163424   5.556   3.431  13.096  2.0961 -0.4452  0.1910
14003TIP3    H263425   5.490   3.349  12.988  0.8756  0.1896  0.4334
14004TIP3   OH263426   2.586   1.177  12.090 -0.2278  0.6683  0.3301
14004TIP3    H163427   2.602   1.096  12.040 -2.0380  0.9206 -0.7669
14004TIP3    H263428   2.619   1.247  12.033  0.8490  0.7472  1.0410
14005TIP3   OH263429   0.860   1.332  16.004 -0.2656 -0.1915 -0.3262
14005TIP3    H163430   0.862   1.322  16.099 -0.0161 -2.4859 -0.5052
14005TIP3    H263431   0.823   1.419  15.989  0.3503  0.5010  1.8540
14006TIP3   OH263432   6.641   4.571   3.434  0.0343 -0.7057  0.8299
14006TIP3    H163433   6.578   4.576   3.361  0.4976 -1.7590  0.3327
14006TIP3    H263434   6.592   4.604   3.510 -0.8239 -0.6447  0.2681
14007TIP3   OH263435   4.126   4.028   4.898  0.2039 -0.1405  0.4122
14007TIP3    H163436   4.131   3.940   4.936  2.7614  1.4743  4.5230
14007TIP3    H263437   4.046   4.066   4.936  0.0187 -0.1304  0.0178
14008TIP3   OH263438   3.156   3.626   6.090 -0.2289  1.3860 -0.5703
14008TIP3    H163439   3.195   3.700   6.137  0.0085  1.4659 -0.8874
14008TIP3    H263440   3.111   3.575   6.157  1.0842  0.8616 -0.0610
14009TIP3   OH263441   1.519   1.683   4.296  0.1727 -0.8027  0.7146
14009TIP3    H163442   1.541   1.776   4.300 -0.4190 -0.6912  1.9032
14009TIP3    H263443   1.592   1.643   4.249 -0.2699  0.4617 -1.1523
14010TIP3   OH263444   5.573   2.438  16.925  0.3980  0.4858  0.1189
14010TIP3    H163445   5.559   2.498  16.998  0.3935  0.6228  0.0057
14010TIP3    H263446   5.644   2.478  16.875  0.8989  0.0236  0.4435
14011TIP3   OH263447   3.317   5.554   3.555  0.0731  0.5174  1.2164
14011TIP3    H163448   3.258   5.494   3.509 -0.3556 -0.0597  2.4785
14011TIP3    H263449   3.272   5.638   3.552 -1.2004 -0.0556  2.7678
14012TIP3   OH263450   6.718   2.584  13.225 -0.2838  0.1300  0.4503
14012TIP3    H163451   6.711   2.499  13.181 -0.1604  0.1001  0.4886
14012TIP3    H263452   6.689   2.567  13.315  2.3064 -0.4989  1.2474
14013TIP3   OH263453   0.681   0.483   3.437  0.2068  0.4682 -0.4539
14013TIP3    H163454   0.594   0.450   3.414 -0.2385  1.5173 -0.3104
14013TIP3    H263455   0.733   0.473   3.357 -0.4392  1.1418 -0.9621
14014TIP3   OH263456   1.444   5.105   2.253  0.4083  0.0986 -0.4784
14014TIP3    H163457   1.444   5.185   2.201 -0.4380 -0.8361 -1.9791
14014TIP3    H263458   1.463   5.035   2.190 -2.2920 -1.2789  0.0797
14015TIP3   OH263459   0.336   4.366   5.902 -0.7039  0.1372 -0.2373
14015TIP3    H163460   0.431   4.372   5.903 -0.4038 -0.1280 -4.9645
14015TIP3    H263461   0.317   4.273   5.915 -0.4909  0.3516  1.9069
14016TIP3   OH263462   1.429   0.290   3.088  0.2791  0.2863  0.0964
14016TIP3    H163463   1.471   0.316   3.006 -0.3323 -1.1011 -0.7063
14016TIP3    H263464   1.410   0.372   3.133  1.6966  1.0182 -0.6004
14017TIP3   OH263465   3.941   0.727  16.187 -0.3769 -0.7445  0.4714
14017TIP3    H163466   3.868   0.789  16.189  0.2252 -0.0191  2.4473
14017TIP3    H263467   3.919   0.662  16.255  0.3062 -1.1226  0.3386
14018TIP3   OH263468   6.219   3.269  11.763  0.3165  0.0657  0.5464
14018TIP3    H163469   6.175   3.353  11.755  1.1432  0.5249  0.6512
14018TIP3    H263470   6.312   3.290  11.758  0.5551 -0.7813  1.1069
14019TIP3   OH263471   0.713   2.360  14.521 -0.1591 -0.3435 -0.1721
14019TIP3    H163472   0.760   2.415  14.584 -0.4463 -1.6071  1.2270
14019TIP3    H263473   0.779   2.298  14.490 -0.1199  0.0124 -0.8192
14020TIP3   OH263474   4.336   2.121  15.299 -0.0094 -0.2228 -0.0138
14020TIP3    H163475   4.283   2.186  15.344  0.0494  0.4242 -0.8453
14020TIP3    H263476   4.383   2.171  15.232  0.1072 -1.1035 -0.6116
14021TIP3   OH263477   4.513   1.406  14.358  0.5935  0.7847  0.0596
14021TIP3    H163478   4.451   1.392  14.286  1.2883 -0.6008 -0.3136
14021TIP3    H263479   4.504   1.328  14.413  0.4653  1.5787  1.1881
14022TIP3   OH263480   1.419   3.848   1.805  0.0519  0.0450  0.5832
14022TIP3    H163481   1.469   3.850   1.723  0.6756  0.7385  0.9597
14022TIP3    H263482   1.479   3.807   1.867 -1.0162 -1.9812  0.3433
14023TIP3   OH263483   6.594   5.769   1.179 -0.8160 -0.9895  0.3299
14023TIP3    H163484   6.609   5.839   1.115 -1.1386 -1.9019 -0.7911
14023TIP3    H263485   6.680   5.751   1.217 -0.9947  1.1884  1.9544
14024TIP3   OH263486   3.042   6.041   2.149 -0.0716 -0.5782  0.4466
14024TIP3    H163487   3.063   6.079   2.063 -0.1026 -1.3821  0.0711
14024TIP3    H263488   3.116   5.983   2.168 -0.4841 -1.0835  0.5454
14025TIP3   OH263489   2.070   2.612  16.130 -0.0441 -0.4306 -0.3571
14025TIP3    H163490   2.113   2.585  16.049 -1.0615 -0.7517 -0.8098
14025TIP3    H263491   1.977   2.599  16.112 -0.4062  1.1556  0.2483
14026TIP3   OH263492   2.776   1.401  12.838  0.2262  0.4131  0.0441
14026TIP3    H163493   2.830   1.363  12.769 -1.1340 -0.6856 -0.4632
14026TIP3    H263494   2.789   1.343  12.913  1.2774  1.2947  0.5674
14027TIP3   OH263495   2.788   2.499  16.021 -0.3620  1.0304  0.3697
14027TIP3    H163496   2.802   2.593  16.020 -1.0696  1.2384  2.6827
14027TIP3    H263497   2.722   2.486  16.089  0.6457 -1.2226  1.0104
14028TIP3   OH263498   2.932   1.092   6.472  0.2467 -0.4520  0.1101
14028TIP3    H163499   2.875   1.129   6.540 -0.4069 -1.2452  0.0080
14028TIP3    H263500   2.901   1.002   6.461  1.4241 -0.8503 -0.0654
14029TIP3   OH263501   2.242   2.581  16.345 -0.0812 -0.3648 -0.0052
14029TIP3    H163502   2.173   2.599  16.281 -2.3311  0.0667  2.3898
14029TIP3    H263503   2.296   2.661  16.345 -0.1193 -0.3140 -1.1940
14030TIP3   OH263504   4.984   2.754   5.276  0.2141 -0.5071  0.0439
14030TIP3    H163505   4.940   2.837   5.256  0.1325 -0.4234  0.5490
14030TIP3    H263506   4.919   2.687   5.256  0.0481 -0.4108  0.2495
14031TIP3   OH263507   3.520   3.691  13.833  0.1685  0.1954 -0.1116
14031TIP3    H163508   3.523   3.615  13.891 -1.7669  1.7450  2.2295
14031TIP3    H263509   3.611   3.720  13.827  0.5367 -0.4976  1.5293
14032TIP3   OH263510   4.458   3.995  14.323 -0.5704  0.2282  0.2786
14032TIP3    H163511   4.461   3.964  14.233 -2.0816 -0.4496  0.4368
14032TIP3    H263512   4.542   4.038  14.336  0.6992 -1.8296 -0.6645
14033TIP3   OH263513   6.599   2.992   4.073 -0.5646 -0.1584 -0.0629
14033TIP3    H163514   6.627   2.997   4.165  1.4630 -0.2770 -0.6291
14033TIP3    H263515   6.516   2.943   4.076  0.7487 -2.4699  1.4829
14034TIP3   OH263516   5.509   1.429   0.131 -0.0767 -0.8702 -0.4028
14034TIP3    H163517   5.491   1.377   0.210 -1.0877  0.6509  0.4065
14034TIP3    H263518   5.575   1.493   0.159  1.3404 -1.7998 -1.4565
14035TIP3   OH263519   1.031   5.470  11.174 -0.1205  0.2468  0.0150
14035TIP3    H163520   0.939   5.492  11.184 -0.5253 -1.5872  0.5946
14035TIP3    H263521   1.047   5.478  11.080 -0.7065  1.1379 -0.0203
14036TIP3   OH263522   6.035   5.803  14.745 -0.1560 -0.1443 -0.0001
14036TIP3    H163523   6.032   5.835  14.835 -1.3720  0.7720 -0.3402
14036TIP3    H263524   6.121   5.828  14.712 -0.4594  1.3373  0.2781
14037TIP3   OH263525   1.972   5.725  13.030 -0.3802 -0.5074 -0.1206
14037TIP3    H163526   1.988   5.793  13.095  0.7417  0.4562 -1.3456
14037TIP3    H263527   1.948   5.773  12.950 -0.3112 -1.5791 -0.8080
14038TIP3   OH263528   4.797   4.188  11.282  0.0183  0.4006  0.5871
14038TIP3    H163529   4.732   4.144  11.227 -0.3791  1.9037 -0.2094
14038TIP3    H263530   4.873   4.130  11.280 -0.1098  0.2423 -1.2766
14039TIP3   OH263531   1.395   3.202   3.647 -0.4137  0.0694 -0.3057
14039TIP3    H163532   1.329   3.166   3.588 -1.5123  1.1239  0.2273
14039TIP3    H263533   1.466   3.231   3.590 -0.7511 -0.3518 -0.9513
14040TIP3   OH263534   3.690   1.524   2.234  0.3862 -0.1738  0.1031
14040TIP3    H163535   3.616   1.559   2.283  0.3704 -0.8053  0.5406
14040TIP3    H263536   3.722   1.451   2.287 -0.2733 -1.5353 -1.3047
14041TIP3   OH263537   4.580   0.179  11.965  0.6995  0.2150 -0.0695
14041TIP3    H163538   4.588   0.262  11.918  0.7914  0.1337 -0.1991
14041TIP3    H263539   4.507   0.193  12.026 -0.6491 -0.2579 -1.5013
14042TIP3   OH263540   2.082   0.984  16.119 -0.5171  0.4981  0.7091
14042TIP3    H163541   1.991   0.985  16.092  0.3001 -2.0255 -2.9178
14042TIP3    H263542   2.122   1.058  16.072 -0.4657  1.0183  1.5403
14043TIP3   OH263543   5.783   5.913  16.370  0.0855  0.0932 -0.3862
14043TIP3    H163544   5.727   5.841  16.400  0.7396 -0.3508 -0.2062
14043TIP3    H263545   5.791   5.970  16.446 -0.1921  0.2055 -0.4395
14044TIP3   OH263546   0.307   2.671  11.354  0.3920  0.6444  0.1801
14044TIP3    H163547   0.271   2.629  11.275 -0.2348  0.9608  0.2958
14044TIP3    H263548   0.271   2.759  11.353 -1.9775 -0.2024  2.3328
14045TIP3   OH263549   4.473   2.584   4.996 -0.3247 -0.4561  0.3168
14045TIP3    H163550   4.479   2.497   4.955 -0.0427 -0.5746  0.6087
14045TIP3    H263551   4.443   2.567   5.085 -0.7109 -0.2147  0.2354
14046TIP3   OH263552   4.205   0.986  15.832  0.2324 -0.3954 -0.2037
14046TIP3    H163553   4.263   1.002  15.758 -1.3319 -0.6450 -1.5533
14046TIP3    H263554   4.231   0.900  15.865  1.1749 -0.1257 -0.2052
14047TIP3   OH263555   2.367   6.054  14.252  0.2068 -0.8803  0.1643
14047TIP3    H163556   2.271   6.055  14.254  0.1901 -1.4754  1.9349
14047TIP3    H263557   2.390   6.072  14.161 -1.5840 -0.9387 -0.3326
14048TIP3   OH263558   2.515   3.219  13.542  0.0363  0.3094  0.3092
14048TIP3    H163559   2.497   3.224  13.636 -0.8442 -1.1876  0.2392
14048TIP3    H263560   2.596   3.168  13.537  0.5190  1.0672  0.2813
14049TIP3   OH263561   0.290   6.468   3.504  0.7737  0.1869 -0.6855
14049TIP3    H163562   0.230   6.507   3.440  0.3258 -0.0937 -0.4431
14049TIP3    H263563   0.235   6.455   3.582  0.2315 -3.1895 -1.4999
14050TIP3   OH263564   6.555   1.251  12.900 -0.1555  0.2295  0.3033
14050TIP3    H163565   6.478   1.307  12.892 -0.2941  0.0231  0.1705
14050TIP3    H263566   6.520   1.161  12.901  0.0448  0.1542  0.7941
14051TIP3   OH263567   1.823   1.498   0.881 -0.0146  0.1035 -1.1066
14051TIP3    H163568   1.727   1.501   0.887  0.0985  2.4744  1.3982
14051TIP3    H263569   1.842   1.530   0.793 -1.5078  0.9660 -1.1499
14052TIP3   OH263570   3.183   0.505   5.950 -0.1773 -0.4925 -0.4019
14052TIP3    H163571   3.273   0.528   5.924  0.4553 -1.3372  0.8951
14052TIP3    H263572   3.148   0.584   5.988  1.2056 -0.9617  2.0527
14053TIP3   OH263573   3.049   3.566   5.791 -0.1923  0.1651 -0.5730
14053TIP3    H163574   3.135   3.600   5.766 -0.4953  0.5061 -1.1730
14053TIP3    H263575   2.995   3.644   5.803 -0.2105 -0.0145  0.6155
14054TIP3   OH263576   5.240   3.547   3.397  0.0250 -0.1820  0.1338
14054TIP3    H163577   5.248   3.583   3.309  1.2888  1.6034  0.9013
14054TIP3    H263578   5.223   3.454   3.384  3.2382 -0.6202 -2.0423
14055TIP3   OH263579   5.168   5.092   3.181  0.0103 -0.5910 -0.3379
14055TIP3    H163580   5.254   5.070   3.144  0.4881 -0.8486  0.8729
14055TIP3    H263581   5.127   5.146   3.114  0.7108 -1.2942 -1.3705
14056TIP3   OH263582   4.962   6.138  14.300 -0.3035  0.4540 -0.2272
14056TIP3    H163583   5.054   6.121  14.321 -0.1168  0.3720 -1.0893
14056TIP3    H263584   4.962   6.154  14.206 -1.3906 -1.1614 -0.5355
14057TIP3   OH263585   5.715   1.738  10.332  0.6364  0.5125  0.2278
14057TIP3    H163586   5.755   1.825  10.338 -1.1983  1.3880  0.4618
14057TIP3    H263587   5.756   1.688  10.403  0.9560  1.5245  0.7783
14058TIP3   OH263588   6.113   0.621   0.898  0.6708 -0.4050  0.4992
14058TIP3    H163589   6.105   0.604   0.992 -2.5311  0.4125  0.4889
14058TIP3    H263590   6.065   0.549   0.857  1.5239 -0.4260 -0.5036
14059TIP3   OH263591   5.414   0.036   6.504  0.0916 -0.2451 -0.0172
14059TIP3    H163592   5.358  -0.019   6.449 -0.3115  0.6486 -0.5285
14059TIP3    H263593   5.353   0.084   6.560  0.4293 -0.2156  0.3276
14060TIP3   OH263594   2.524   3.213  12.052  0.5696  0.2799  0.2915
14060TIP3    H163595   2.467   3.191  11.979  1.0039 -0.1665  0.0795
14060TIP3    H263596   2.469   3.203  12.130  0.2604  0.2112  0.0647
14061TIP3   OH263597   0.046   3.019  13.826 -0.2318  0.3595  0.2377
14061TIP3    H163598  -0.001   2.958  13.769 -1.1712  2.5380 -1.4758
14061TIP3    H263599   0.136   3.019  13.792 -0.7277  1.4565 -1.1980
14062TIP3   OH263600   5.298   1.295   6.310  0.5114  0.0718 -0.4376
14062TIP3    H163601   5.340   1.377   6.285  0.0331  0.1402 -1.0079
14062TIP3    H263602   5.357   1.258   6.376  0.9891  0.6224 -0.5479
14063TIP3   OH263603   1.055   4.743   0.262 -0.0692  0.4787 -0.0214
14063TIP3    H163604   1.148   4.756   0.243  0.5337  0.7133  2.7708
14063TIP3    H263605   1.050   4.652   0.293 -0.8785  0.3114 -0.6136
14064TIP3   OH263606   2.046   4.517  11.972  0.5094 -0.3492 -0.2661
14064TIP3    H163607   1.961   4.475  11.982  0.7756 -0.6809  0.7605
14064TIP3    H263608   2.107   4.445  11.955  0.6790 -0.1760 -0.4011
14065TIP3   OH263609   4.172   5.865   1.465 -0.6106  0.0345 -0.3416
14065TIP3    H163610   4.191   5.940   1.408 -1.7732 -0.5766 -1.5966
14065TIP3    H263611   4.110   5.812   1.415  0.7600 -2.1822  0.1569
14066TIP3   OH263612   6.164   1.744   0.702 -0.0350 -0.5932  0.6956
14066TIP3    H163613   6.141   1.734   0.794 -0.3746 -0.4701  0.6271
14066TIP3    H263614   6.105   1.813   0.670 -0.0268 -0.7423  0.3507
14067TIP3   OH263615   1.310   6.667  14.259  0.6989 -0.1190  0.2704
14067TIP3    H163616   1.338   6.632  14.174 -1.7104 -1.5216 -0.0059
14067TIP3    H263617   1.380   6.642  14.319  0.8851 -2.0452 -0.6813
14068TIP3   OH263618   5.927   3.316   4.271  0.1810 -0.0857  0.2286
14068TIP3    H163619   5.988   3.245   4.253 -0.4106 -1.5963  3.4661
14068TIP3    H263620   5.978   3.380   4.320  0.4305  1.3216 -1.7429
14069TIP3   OH263621   5.651   4.226   2.679  0.2955  0.5041  0.6287
14069TIP3    H163622   5.608   4.167   2.618  1.6046 -1.0441  1.1269
14069TIP3    H263623   5.661   4.175   2.759  1.0928  1.5502  1.2251
14070TIP3   OH263624   2.773   4.990   4.281 -0.0258 -0.4323  0.2107
14070TIP3    H163625   2.709   5.050   4.245  0.3976 -0.0583  0.0698
14070TIP3    H263626   2.776   4.918   4.217 -1.6094 -1.3553  1.1113
14071TIP3   OH263627   0.046   3.897  13.134 -0.1648 -0.3224 -0.1836
14071TIP3    H163628   0.058   3.831  13.203 -3.6271 -0.2211  0.7259
14071TIP3    H263629   0.025   3.977  13.182 -0.2084  0.3658 -1.3288
14072TIP3   OH263630   1.682   4.966   6.189  0.6637  0.0378 -0.2090
14072TIP3    H163631   1.722   5.028   6.129  1.1153  0.8325  0.8853
14072TIP3    H263632   1.620   5.018   6.240  0.3563 -0.6019  0.0829
14073TIP3   OH263633   6.773   3.968  12.220  0.0933  0.4316  0.1226
14073TIP3    H163634   6.835   3.902  12.192 -0.6517  0.3564 -1.4486
14073TIP3    H263635   6.803   4.049  12.179  0.0997  0.7372  0.7228
14074TIP3   OH263636   2.594   5.999   1.420  0.8669  0.5933  0.4400
14074TIP3    H163637   2.544   6.039   1.349 -0.3454 -1.4832  0.0499
14074TIP3    H263638   2.592   5.905   1.401  0.5530 -0.0286  3.1942
14075TIP3   OH263639   6.466   5.274  14.104  0.0375 -0.1647  0.3790
14075TIP3    H163640   6.432   5.337  14.168 -0.2452  0.2423 -0.1629
14075TIP3    H263641   6.561   5.283  14.109 -0.0163  0.7968 -0.1754
14076TIP3   OH263642   1.366   6.548   2.659  0.4935  0.0769  0.3277
14076TIP3    H163643   1.308   6.473   2.657  0.4609  0.1176 -0.7740
14076TIP3    H263644   1.446   6.516   2.699  0.5400 -0.5938 -0.2907
14077TIP3   OH263645   3.353   6.057  16.974  0.2623  0.2662 -0.2290
14077TIP3    H163646   3.406   6.016  17.042 -0.2332  0.1415  0.0893
14077TIP3    H263647   3.338   5.988  16.910 -1.5918 -0.4569  0.8934
14078TIP3   OH263648   5.531   5.157   4.767  0.2110 -0.0802  0.2957
14078TIP3    H163649   5.565   5.240   4.802 -0.1521  0.5141 -0.7218
14078TIP3    H263650   5.583   5.142   4.689 -1.5279  0.6262 -1.0618
14079TIP3   OH263651   1.494   1.438  13.875  0.6459  0.3861  0.1502
14079TIP3    H163652   1.435   1.415  13.803  0.3912  1.0175  0.1468
14079TIP3    H263653   1.437   1.440  13.952  0.3562  2.3574 -0.0693
14080TIP3   OH263654   5.965   5.832  16.676  0.6762 -0.3579 -0.2139
14080TIP3    H163655   6.034   5.807  16.614 -0.2161 -0.9034 -1.0128
14080TIP3    H263656   6.013   5.863  16.753  1.8061 -1.3833 -0.4715
14081TIP3   OH263657   2.946   4.444  12.062  0.4242 -0.3851 -0.0701
14081TIP3    H163658   2.931   4.371  12.122  3.0666 -0.3656  0.7241
14081TIP3    H263659   2.983   4.513  12.116  0.1142  0.7382 -1.2324
14082TIP3   OH263660   2.395   4.771   4.867 -0.0665 -0.0185  0.1424
14082TIP3    H163661   2.438   4.856   4.879 -0.3064  0.1130  0.0695
14082TIP3    H263662   2.464   4.707   4.885  0.3980  0.1897 -0.8440
14083TIP3   OH263663   5.640   2.523   5.475  0.1185 -0.0033 -0.7108
14083TIP3    H163664   5.606   2.606   5.506  0.2821  0.2280 -1.1347
14083TIP3    H263665   5.615   2.520   5.382 -0.2711 -0.6272 -0.5901
14084TIP3   OH263666   0.274   1.583   0.780  0.0844  0.3862 -0.8119
14084TIP3    H163667   0.321   1.666   0.767  0.8445 -0.0054 -0.6550
14084TIP3    H263668   0.323   1.520   0.728  1.0135 -0.4646  1.0046
14085TIP3   OH263669   3.540   1.780   2.748 -0.0596  0.2476  0.6605
14085TIP3    H163670   3.602   1.779   2.821  0.7852  1.5099  0.0035
14085TIP3    H263671   3.595   1.787   2.670 -0.8674 -2.2271 -0.2389
14086TIP3   OH263672   0.456   4.325  13.581 -0.6126  0.4517 -0.2488
14086TIP3    H163673   0.385   4.284  13.631 -0.6260  2.0220  1.0794
14086TIP3    H263674   0.522   4.347  13.646  1.0106 -0.6961 -1.4263
14087TIP3   OH263675   0.135   2.489  12.256  0.2913  0.0198  0.3277
14087TIP3    H163676   0.139   2.447  12.170 -0.3786  0.0622  0.2723
14087TIP3    H263677   0.075   2.435  12.307 -1.1740  1.3071  0.0223
14088TIP3   OH263678   0.459   2.392  16.750  0.0771  0.0886 -0.2049
14088TIP3    H163679   0.443   2.485  16.731 -0.0443 -0.0307 -0.7143
14088TIP3    H263680   0.372   2.352  16.748  0.3347 -0.4854 -2.5524
14089TIP3   OH263681   3.768   0.325  13.457 -0.1463 -0.1416 -0.1674
14089TIP3    H163682   3.863   0.312  13.455 -0.0403  0.7069 -1.7354
14089TIP3    H263683   3.744   0.346  13.367 -1.2390  3.6418  0.8170
14090TIP3   OH263684   0.094   5.588   0.248  0.1761 -0.2593  1.2782
14090TIP3    H163685   0.118   5.650   0.317 -2.1654  1.7563  0.4309
14090TIP3    H263686   0.082   5.642   0.170 -1.6775 -1.7824  0.4257
14091TIP3   OH263687   1.828   5.893  16.182 -0.3798 -0.1442 -0.1690
14091TIP3    H163688   1.832   5.840  16.262 -0.1655  0.1011 -0.0170
14091TIP3    H263689   1.864   5.836  16.114 -0.4341 -0.3040 -0.0649
14092TIP3   OH263690   6.101   5.077  11.840  0.6755  0.0695  0.0183
14092TIP3    H163691   6.091   5.113  11.928 -1.7064 -4.6155  2.0043
14092TIP3    H263692   6.016   5.092  11.798  1.1409  0.5030 -0.8093
14093TIP3   OH263693   0.156   1.829  12.653 -0.0116  0.0157 -0.3805
14093TIP3    H163694   0.145   1.788  12.739 -0.0872  0.8818  0.0321
14093TIP3    H263695   0.082   1.889  12.646 -0.3016 -0.4349 -1.2874
14094TIP3   OH263696   2.710   2.066   5.798  0.7840  0.7521 -0.4464
14094TIP3    H163697   2.718   2.155   5.833  0.3396  1.1455 -1.3048
14094TIP3    H263698   2.646   2.023   5.855 -0.5267  1.6306 -1.1984
14095TIP3   OH263699   1.580   1.280  12.066  0.0569  0.4578 -0.1168
14095TIP3    H163700   1.524   1.221  12.016 -0.4834  0.6720  0.2207
14095TIP3    H263701   1.668   1.267  12.031 -0.1111 -0.3124 -0.2561
14096TIP3   OH263702   4.170   4.940  16.998 -0.2227  0.3681 -0.1834
14096TIP3    H163703   4.168   4.986  16.914 -0.5982 -0.3495 -0.5711
14096TIP3    H263704   4.078   4.931  17.022 -0.1251  0.3285  0.1793
14097TIP3   OH263705   4.808   2.039   5.202  0.6859 -0.2221 -0.2889
14097TIP3    H163706   4.833   2.084   5.121 -0.6873 -1.7742 -1.6567
14097TIP3    H263707   4.725   2.079   5.227  0.7615 -0.2266 -0.0298
14098TIP3   OH263708   0.156   0.597   0.929 -0.2630 -0.1395 -0.5238
14098TIP3    H163709   0.157   0.591   1.025 -0.8316  0.4820 -0.4761
14098TIP3    H263710   0.094   0.667   0.910  0.6615  0.4795 -1.3165
14099TIP3   OH263711   1.362   4.602   5.634  0.0914  0.2601  0.1566
14099TIP3    H163712   1.317   4.615   5.718  1.8472 -1.9545  1.5916
14099TIP3    H263713   1.455   4.603   5.657  0.6090 -2.8097 -1.2375
14100TIP3   OH263714   4.675   3.520  16.194 -0.2610  0.1513 -0.1468
14100TIP3    H163715   4.612   3.463  16.239  0.8869 -0.5927  0.5730
14100TIP3    H263716   4.626   3.599  16.174 -1.7165 -0.8091 -0.5455
14101TIP3   OH263717   4.258   5.584   3.624 -0.4250  0.3869  0.3878
14101TIP3    H163718   4.292   5.617   3.707  1.1595  2.1477 -0.9033
14101TIP3    H263719   4.335   5.549   3.579 -1.0225  0.6740 -0.8841
14102TIP3   OH263720   6.338   4.824  16.782  0.1015 -0.6516 -0.2374
14102TIP3    H163721   6.255   4.872  16.790  0.8399  0.6050  0.1280
14102TIP3    H263722   6.362   4.835  16.690  0.1495 -0.5311 -0.2099
14103TIP3   OH263723   2.169   3.284  16.331  0.1625  0.0492  0.6819
14103TIP3    H163724   2.123   3.280  16.414  0.6467 -0.8823  0.9167
14103TIP3    H263725   2.186   3.377  16.317 -2.0352  0.4720  0.4269
14104TIP3   OH263726   3.061   1.334   2.920 -0.2490 -0.8306  0.2336
14104TIP3    H163727   3.001   1.385   2.866  1.7112 -0.2140 -1.4904
14104TIP3    H263728   3.053   1.245   2.888  0.0385 -0.6785 -0.2628
14105TIP3   OH263729   1.335   3.314   2.490 -0.1102  0.2614 -0.5406
14105TIP3    H163730   1.359   3.222   2.479  0.5660  0.5208 -1.2916
14105TIP3    H263731   1.293   3.338   2.408 -1.9714  0.1405  0.3252
14106TIP3   OH263732   5.783   6.046  11.335  0.2250 -0.3890  0.3318
14106TIP3    H163733   5.758   5.966  11.289  0.4128 -1.4261  1.9541
14106TIP3    H263734   5.772   6.024  11.428  1.9148  0.9109  0.8812
14107TIP3   OH263735   5.557   1.900   3.380  0.5524 -0.0803  0.5586
14107TIP3    H163736   5.554   1.827   3.318  1.5018 -0.7256  1.2580
14107TIP3    H263737   5.612   1.869   3.452  2.2042  1.8225  0.2114
14108TIP3   OH263738   6.049   4.408  10.600 -0.0766 -0.4922 -0.5617
14108TIP3    H163739   5.999   4.327  10.600  0.3758 -0.8230  1.0372
14108TIP3    H263740   6.111   4.397  10.672 -1.0234  1.8804  0.7321
14109TIP3   OH263741   6.329   1.296  12.435  0.6958 -0.2956  0.3309
14109TIP3    H163742   6.266   1.234  12.472  2.3076 -1.9461  0.4504
14109TIP3    H263743   6.403   1.242  12.407  1.3135  1.3713 -1.4850
14110TIP3   OH263744   4.641   6.190   2.145  0.2196 -0.2499  0.1072
14110TIP3    H163745   4.719   6.136   2.137 -0.0150 -0.4253 -1.1280
14110TIP3    H263746   4.585   6.164   2.072 -0.9315 -0.0088  0.8653
14111TIP3   OH263747   6.557   0.308  14.510  0.1995 -0.2272 -0.3196
14111TIP3    H163748   6.496   0.289  14.581  1.6522 -0.4874  0.9221
14111TIP3    H263749   6.556   0.403  14.502  0.0859 -0.1900  0.1062
14112TIP3   OH263750   5.471   3.571  11.349  0.1279  0.2809  0.2918
14112TIP3    H163751   5.473   3.612  11.262 -1.2532  1.7660  0.9047
14112TIP3    H263752   5.388   3.522  11.349 -0.5470  1.3854  1.2102
14113TIP3   OH263753   4.571   0.139   1.038 -0.0290 -0.7032 -1.0954
14113TIP3    H163754   4.623   0.141   0.957 -0.3428  0.1627 -1.2830
14113TIP3    H263755   4.485   0.173   1.012  0.1632  0.5295 -0.1911
14114TIP3   OH263756   6.750   1.611  12.029  0.2348  0.2426  0.1333
14114TIP3    H163757   6.773   1.664  11.953  0.0889  2.9824  1.8399
14114TIP3    H263758   6.833   1.569  12.055  0.2223 -0.9415 -1.6231
14115TIP3   OH263759   4.690   1.337  11.189  0.3417  0.3868  0.5755
14115TIP3    H163760   4.605   1.297  11.176  1.7136 -3.0682  1.1425
14115TIP3    H263761   4.719   1.361  11.100  0.3231 -2.0553 -0.1734
14116TIP3   OH263762   6.170   0.180   4.934 -0.4004  0.6574  0.1351
14116TIP3    H163763   6.189   0.112   4.998  0.5270 -0.5148 -1.3216
14116TIP3    H263764   6.193   0.262   4.978  0.5396 -0.1370  1.1746
14117TIP3   OH263765   4.565   2.094  13.095  0.4585 -0.0824  0.6210
14117TIP3    H163766   4.655   2.074  13.068 -0.1129 -0.5902 -1.0349
14117TIP3    H263767   4.541   2.020  13.152  0.8742 -0.2646  0.5712
14118TIP3   OH263768   0.166   3.732   5.440  0.4429 -0.0919 -0.0163
14118TIP3    H163769   0.249   3.685   5.436 -0.0784 -1.1951  1.2381
14118TIP3    H263770   0.190   3.824   5.446  1.6025 -0.4466  1.1137
14119TIP3   OH263771   5.507   2.051  16.300  0.7194 -0.3118  0.2088
14119TIP3    H163772   5.553   1.987  16.354 -1.2830 -2.0374  0.0178
14119TIP3    H263773   5.575   2.113  16.271  3.0519 -3.0944 -0.7116
14120TIP3   OH263774   0.317   5.183  16.475  0.0967  0.3576  0.2619
14120TIP3    H163775   0.305   5.273  16.443 -1.2892 -0.6216 -2.1913
14120TIP3    H263776   0.352   5.194  16.564 -1.6407  3.3348  0.6957
14121TIP3   OH263777   5.475   0.653  13.368 -0.0127  0.1714 -0.0571
14121TIP3    H163778   5.500   0.739  13.400 -0.9262  0.2817  0.3935
14121TIP3    H263779   5.523   0.591  13.423  1.2224  0.3782 -0.8645
14122TIP3   OH263780   3.862   2.514  17.179  0.5775  0.4276 -0.1900
14122TIP3    H163781   3.782   2.502  17.127  0.9703 -1.7017 -0.3964
14122TIP3    H263782   3.852   2.601  17.217 -1.5562  0.4818 -0.6954
14123TIP3   OH263783   5.371   2.164   2.667 -0.2809  0.3630  0.6571
14123TIP3    H163784   5.283   2.135   2.644  0.7505 -2.4303 -0.1535
14123TIP3    H263785   5.402   2.099   2.730  1.2020  1.3384  0.9830
14124TIP3   OH263786   4.047   2.552   1.466  0.0996  0.4029  0.4133
14124TIP3    H163787   4.117   2.530   1.527  0.3665 -0.2977 -0.1222
14124TIP3    H263788   4.093   2.571   1.384 -0.3690 -0.9358 -0.1859
14125TIP3   OH263789   4.839   3.995   0.373  0.0351  0.4809  0.0470
14125TIP3    H163790   4.819   4.084   0.340  2.8878  0.6252 -1.6204
14125TIP3    H263791   4.754   3.952   0.375 -1.3106  2.8979 -0.1880
14126TIP3   OH263792   1.160   4.071  16.497  0.1277 -0.1026 -0.7535
14126TIP3    H163793   1.082   4.127  16.504  0.8645  0.7379  1.8027
14126TIP3    H263794   1.232   4.132  16.480  0.7561 -0.3444  0.8087
14127TIP3   OH263795   0.893   0.142   4.452  0.2185  0.2754 -0.0197
14127TIP3    H163796   0.801   0.118   4.442  0.0149  0.9358  0.1569
14127TIP3    H263797   0.905   0.215   4.391  0.3134  0.9475  0.7739
14128TIP3   OH263798   5.831   1.331   3.904  0.2937  0.3843  0.0176
14128TIP3    H163799   5.743   1.309   3.937 -0.3098  0.1158 -1.6776
14128TIP3    H263800   5.844   1.272   3.830  1.8302  0.5854  0.1052
14129TIP3   OH263801   5.827   2.841   2.156 -0.0571 -0.0435  0.2383
14129TIP3    H163802   5.772   2.919   2.150 -0.0110  0.2310  2.5303
14129TIP3    H263803   5.841   2.814   2.065 -3.9662 -0.1259 -0.5289
14130TIP3   OH263804   6.168   1.593  14.415 -0.4832  0.0186 -0.1893
14130TIP3    H163805   6.179   1.655  14.342  1.3194 -0.7620 -0.6474
14130TIP3    H263806   6.172   1.507  14.374  2.4724 -0.4982  0.9318
14131TIP3   OH263807   6.338   3.059  16.651 -0.0783 -0.2650 -0.5330
14131TIP3    H163808   6.428   3.061  16.617 -0.5109 -1.6507 -1.8640
14131TIP3    H263809   6.323   3.147  16.685  1.5598  0.1821 -0.8886
14132TIP3   OH263810   5.468   0.767   0.236 -0.2512 -0.1920 -0.2224
14132TIP3    H163811   5.442   0.725   0.154  0.6700 -1.8041  0.2677
14132TIP3    H263812   5.392   0.760   0.292  0.1102 -1.9405  0.1005
14133TIP3   OH263813   5.806   5.353  16.851 -0.3603 -0.6086  0.5600
14133TIP3    H163814   5.781   5.409  16.778 -3.0354 -1.5093  0.7025
14133TIP3    H263815   5.795   5.264  16.819  0.1257 -1.0281  1.5155
14134TIP3   OH263816   2.571   5.261   1.463 -0.4521  0.0201 -0.6982
14134TIP3    H163817   2.631   5.301   1.399  0.8580 -0.1084  0.4117
14134TIP3    H263818   2.582   5.314   1.542  0.5204 -1.8263  0.4750
14135TIP3   OH263819   0.133   0.605  11.345 -0.0094  0.1597 -0.4901
14135TIP3    H163820   0.114   0.697  11.326  2.6796  1.3701  1.8163
14135TIP3    H263821   0.053   0.571  11.384 -1.4806  1.0787 -2.5297
14136TIP3   OH263822   4.953   5.342   1.233 -0.3876  0.3984  0.2839
14136TIP3    H163823   4.866   5.315   1.204  0.7436 -1.3411 -1.7807
14136TIP3    H263824   4.986   5.395   1.160  0.0508  1.7001  1.3783
14137TIP3   OH263825   3.783   0.148  16.347 -0.1121  0.7709  0.0892
14137TIP3    H163826   3.870   0.113  16.368 -0.5960  0.3311  1.4771
14137TIP3    H263827   3.775   0.227  16.400 -0.6194  0.7149  0.1033
14138TIP3   OH263828   1.585   2.493   0.137 -0.3374 -0.2989  0.0980
14138TIP3    H163829   1.657   2.480   0.075 -1.3438 -3.1251 -0.6152
14138TIP3    H263830   1.580   2.588   0.148  1.9200  0.1157 -1.6809
14139TIP3   OH263831   0.427   0.411   3.338  0.3889 -0.2669 -0.1000
14139TIP3    H163832   0.358   0.462   3.295  0.2647 -1.0245 -0.8020
14139TIP3    H263833   0.383   0.370   3.412  0.0599 -0.7981 -0.5818
14140TIP3   OH263834   3.628   5.227  11.140 -0.0905  0.5193 -0.1576
14140TIP3    H163835   3.565   5.163  11.174  0.4652  0.9977  1.9465
14140TIP3    H263836   3.593   5.252  11.055 -0.2881 -2.6047 -1.1306
14141TIP3   OH263837   2.391   1.807  11.707  0.3841 -0.1150 -0.1336
14141TIP3    H163838   2.393   1.825  11.613  0.8997  2.0331  0.2356
14141TIP3    H263839   2.378   1.892  11.747  0.5341 -0.9451  1.7799
14142TIP3   OH263840   5.046   2.869  16.959  0.2938 -0.3619  0.4515
14142TIP3    H163841   5.079   2.832  16.877  1.6754  1.3364  0.1786
14142TIP3    H263842   5.125   2.892  17.008 -0.5167  0.4005  1.4350
14143TIP3   OH263843   3.703   5.565  16.424  0.0365  0.4417  0.6186
14143TIP3    H163844   3.660   5.488  16.462 -0.5184  0.3964 -0.0662
14143TIP3    H263845   3.655   5.640  16.461 -0.1047  0.4166  0.4916
14144TIP3   OH263846   5.544   3.507  13.259 -0.1252 -0.4891 -0.0617
14144TIP3    H163847   5.497   3.446  13.315  0.0723  0.4522  1.1669
14144TIP3    H263848   5.624   3.528  13.308  0.0049  0.4300 -0.6455
14145TIP3   OH263849   3.244   5.402   3.036  0.1742 -0.0727  0.1817
14145TIP3    H163850   3.306   5.427   2.967 -0.3931 -0.4176 -0.4635
14145TIP3    H263851   3.161   5.440   3.008  0.4759  2.1437  2.0642
14146TIP3   OH263852   3.287   1.698  16.236  0.0538  0.8173 -0.5293
14146TIP3    H163853   3.319   1.612  16.264 -0.1104  0.6567 -0.8245
14146TIP3    H263854   3.347   1.724  16.166 -0.1700  0.7323 -0.7552
14147TIP3   OH263855   1.412   3.082   0.558 -0.2059  0.6284 -0.0054
14147TIP3    H163856   1.490   3.103   0.506 -0.9415  1.4728 -0.8027
14147TIP3    H263857   1.399   2.988   0.545 -0.9094  0.9704 -2.1527
14148TIP3   OH263858   6.327   1.139  16.822 -0.2598 -0.0918  0.3906
14148TIP3    H163859   6.292   1.226  16.804 -0.9401 -0.1081  1.5434
14148TIP3    H263860   6.291   1.084  16.753  1.2078  0.7458 -1.1300
14149TIP3   OH263861   6.606   6.301   5.361 -0.0672 -0.0554 -0.6653
14149TIP3    H163862   6.662   6.287   5.285 -1.0296  0.8079 -1.5850
14149TIP3    H263863   6.531   6.350   5.326  0.9111  3.2376  1.3748
14150TIP3   OH263864   0.983   3.070  16.228  0.6681  0.1617 -0.2846
14150TIP3    H163865   0.964   2.984  16.192  1.9708 -0.9621  1.5265
14150TIP3    H263866   1.063   3.098  16.183  1.0562 -0.2334  0.1597
14151TIP3   OH263867   6.041   2.178   2.798  0.3210 -0.0265 -0.3464
14151TIP3    H163868   6.117   2.160   2.853 -1.1241 -0.9697  1.4694
14151TIP3    H263869   5.993   2.095   2.796 -1.6175  1.0210  0.1603
14152TIP3   OH263870   3.683   0.305  14.167  0.5869  0.0030  0.5542
14152TIP3    H163871   3.642   0.372  14.221 -0.6699 -0.2134 -0.0851
14152TIP3    H263872   3.648   0.223  14.200 -1.5678 -0.0559 -1.5805
14153TIP3   OH263873   1.929   1.021   2.971  0.3092  0.3952 -0.4589
14153TIP3    H163874   1.982   1.097   2.946  0.2492  0.4416 -0.4452
14153TIP3    H263875   1.992   0.950   2.979  0.5054  0.6730  0.5436
14154TIP3   OH263876   4.201   0.386   5.287  0.8618 -0.4740  0.1025
14154TIP3    H163877   4.229   0.366   5.197  0.7055 -0.5303  0.0657
14154TIP3    H263878   4.241   0.471   5.306  2.9836 -1.5891  0.8908
14155TIP3   OH263879   6.506   2.523   0.800 -0.3502 -0.4528  0.2978
14155TIP3    H163880   6.422   2.492   0.834 -0.2074 -0.4080  0.6929
14155TIP3    H263881   6.510   2.487   0.711 -0.1354 -1.6959  0.7822
14156TIP3   OH263882   0.412   1.756   0.400  0.4867  0.5524 -0.2846
14156TIP3    H163883   0.333   1.702   0.408  1.3887 -0.8897 -0.8867
14156TIP3    H263884   0.391   1.816   0.327 -0.6491  1.3066  0.6146
14157TIP3   OH263885   6.655   2.174  15.676  0.0389 -0.2571 -0.4031
14157TIP3    H163886   6.585   2.118  15.710 -0.4370  0.4783 -0.1649
14157TIP3    H263887   6.651   2.162  15.581  1.3465 -2.2848 -0.2840
14158TIP3   OH263888   1.215   2.850   4.686 -0.2026  0.4851 -0.7164
14158TIP3    H163889   1.152   2.799   4.635  2.1800 -1.0594 -2.3224
14158TIP3    H263890   1.193   2.941   4.665 -1.7013  0.0031 -1.4378
14159TIP3   OH263891   1.827   0.010  15.971  0.8833  0.5333 -0.2842
14159TIP3    H163892   1.876   0.005  15.888 -1.0847  0.3626 -1.5002
14159TIP3    H263893   1.852   0.094  16.008 -0.6656  2.2023 -2.7502
14160TIP3   OH263894   4.595   2.997   0.859 -0.0615 -0.3372  0.9239
14160TIP3    H163895   4.666   2.989   0.795 -0.0326 -2.3655  1.1279
14160TIP3    H263896   4.535   3.061   0.821 -1.2956 -3.1656 -2.4422
14161TIP3   OH263897   3.419   1.781   1.722  0.1765  0.2898  0.2728
14161TIP3    H163898   3.383   1.728   1.793  2.1854  1.0226  1.9259
14161TIP3    H263899   3.399   1.871   1.748 -1.1072  0.5198 -1.3180
14162TIP3   OH263900   2.149   4.498  17.167  0.5142 -0.4509 -0.0517
14162TIP3    H163901   2.141   4.525  17.075 -0.8537 -1.9283 -0.4288
14162TIP3    H263902   2.135   4.578  17.217 -0.2798  0.1166 -1.1257
14163TIP3   OH263903   0.126   2.007  13.809 -0.2260 -0.4277  0.1652
14163TIP3    H163904   0.191   2.007  13.738  0.7125 -0.3188  1.0115
14163TIP3    H263905   0.097   2.098  13.815  0.5988 -0.1920  0.7236
14164TIP3   OH263906   0.846   3.075   2.013 -0.5486 -0.2650  0.3357
14164TIP3    H163907   0.916   3.125   1.970  1.0953 -1.1323  1.8686
14164TIP3    H263908   0.830   3.001   1.954 -0.6881  0.3113 -0.3618
14165TIP3   OH263909   2.202   3.947   1.558 -0.2098  0.1302 -0.4574
14165TIP3    H163910   2.160   3.890   1.494  1.7418 -0.9424 -0.8595
14165TIP3    H263911   2.270   3.993   1.509  0.4263  0.3052  0.5508
14166TIP3   OH263912   3.263   1.390  13.401  0.0545  0.3255 -0.2368
14166TIP3    H163913   3.357   1.400  13.387 -0.2636  1.7373 -1.6113
14166TIP3    H263914   3.239   1.315  13.347  0.4733 -0.5120  0.6912
14167TIP3   OH263915   4.080   1.848   1.396 -0.4881 -0.1711 -0.3017
14167TIP3    H163916   4.010   1.885   1.450 -1.2468 -0.8419 -0.8220
14167TIP3    H263917   4.084   1.905   1.319  2.6774  2.7663  1.6674
14168TIP3   OH263918   2.798   0.129  14.902  0.6868 -0.0339  0.2285
14168TIP3    H163919   2.811   0.224  14.911 -2.4750  0.4899  0.5314
14168TIP3    H263920   2.760   0.119  14.815  1.3794 -1.1124  0.0390
14169TIP3   OH263921   3.927   3.305   1.101  0.2507  0.3474 -0.4248
14169TIP3    H163922   3.932   3.260   1.017 -1.5761 -1.2192  0.2000
14169TIP3    H263923   4.010   3.285   1.145  1.0987  0.9485 -1.7231
14170TIP3   OH263924   4.294   4.300   2.451 -0.3961  0.4901  0.1197
14170TIP3    H163925   4.265   4.279   2.363  0.8591  2.7561 -0.9126
14170TIP3    H263926   4.377   4.252   2.461 -0.6151  0.1108  0.1564
14171TIP3   OH263927   1.130   1.157  13.902  0.0531 -0.0184  0.4415
14171TIP3    H163928   1.119   1.247  13.931  0.4862  0.1453  0.1006
14171TIP3    H263929   1.120   1.105  13.981  1.1974  0.4212  0.8951
14172TIP3   OH263930   2.469   3.459  17.039  1.0154 -0.5273 -0.7876
14172TIP3    H163931   2.392   3.403  17.026  0.4391 -0.4436  1.7836
14172TIP3    H263932   2.446   3.513  17.114  2.6668  1.2481 -1.4970
14173TIP3   OH263933   2.069   2.730   5.336 -0.2753  0.2236  0.2515
14173TIP3    H163934   2.153   2.715   5.379  1.3002 -0.5716 -2.8421
14173TIP3    H263935   2.090   2.785   5.261 -2.4015 -0.5607 -0.9912
14174TIP3   OH263936   5.486   2.218   2.439 -0.1658 -0.2900  0.7331
14174TIP3    H163937   5.531   2.302   2.427 -2.1640  0.5933 -1.7372
14174TIP3    H263938   5.471   2.211   2.533  1.0966  1.5450  1.1138
14175TIP3   OH263939   1.696   3.010   2.682  0.3029 -0.1619  0.0003
14175TIP3    H163940   1.663   3.062   2.755  0.4327 -0.8157  0.5320
14175TIP3    H263941   1.667   3.058   2.604  1.1148  1.1629  0.4661
14176TIP3   OH263942   1.654   1.138   3.990  0.5723 -0.2344 -0.0235
14176TIP3    H163943   1.624   1.225   4.016  2.1836  0.2680  0.2925
14176TIP3    H263944   1.577   1.095   3.954 -0.5384  0.8858  0.9384
14177TIP3   OH263945   3.113   5.598   0.898 -0.0872  0.7612 -1.5911
14177TIP3    H163946   3.185   5.557   0.851 -0.4652  0.3690 -1.8339
14177TIP3    H263947   3.035   5.574   0.848 -0.6653 -0.8092 -0.0230
14178TIP3   OH263948   6.442   1.614   4.695 -0.5778 -0.0065 -0.3973
14178TIP3    H163949   6.495   1.691   4.676 -1.0085  0.1790 -0.8741
14178TIP3    H263950   6.373   1.646   4.753  0.7863 -0.5895  1.6466
14179TIP3   OH263951   5.173   5.227   5.559 -0.0375  0.2242 -1.1522
14179TIP3    H163952   5.254   5.271   5.586  0.2616 -0.6987 -0.5334
14179TIP3    H263953   5.193   5.134   5.563 -0.9349 -0.0030 -1.6337
14180TIP3   OH263954   0.963   4.151   1.523 -0.6130 -0.1404 -0.0756
14180TIP3    H163955   0.920   4.070   1.550 -0.4813 -0.3328 -0.4309
14180TIP3    H263956   0.907   4.185   1.452 -0.3293 -0.2517 -0.3556
14181TIP3   OH263957   6.682   0.887  16.205  0.0237  0.0815  0.2290
14181TIP3    H163958   6.720   0.823  16.144 -0.7446  1.0807 -1.3719
14181TIP3    H263959   6.757   0.939  16.234  0.1472  1.2860 -1.9829
14182TIP3   OH263960   4.158   3.146  16.870  0.1807  0.0205  0.3192
14182TIP3    H163961   4.140   3.076  16.934  0.6550  0.0264  0.4635
14182TIP3    H263962   4.097   3.216  16.893 -1.4546 -0.9651 -0.8461
14183TIP3   OH263963   4.671   0.317  15.770  0.2770  0.2847  0.4153
14183TIP3    H163964   4.588   0.364  15.775  0.1536 -0.0331  1.4296
14183TIP3    H263965   4.704   0.315  15.860  1.1935  0.0629  0.0875
14184TIP3   OH263966   3.925   3.315  15.368  0.4771 -0.0419 -0.6235
14184TIP3    H163967   3.992   3.317  15.299  2.6529 -0.6322  1.3291
14184TIP3    H263968   3.973   3.339  15.448 -1.4172 -1.5476  1.0714
14185TIP3   OH263969   2.457   1.388   6.277  0.4178 -0.2264  0.5985
14185TIP3    H163970   2.539   1.350   6.245  0.3393  0.4862 -0.4853
14185TIP3    H263971   2.475   1.481   6.286 -0.1342 -0.1339  0.8125
14186TIP3   OH263972   5.026   1.516  14.482 -0.4301 -0.1569  0.3406
14186TIP3    H163973   5.087   1.449  14.453 -0.4614 -0.0339 -0.0056
14186TIP3    H263974   4.979   1.543  14.403  1.6408  2.4078 -0.1522
14187TIP3   OH263975   4.988   2.752  15.907 -0.0352 -0.4220 -0.0462
14187TIP3    H163976   5.080   2.732  15.926 -0.5859 -1.9317  1.2102
14187TIP3    H263977   4.980   2.846  15.923  1.2119 -0.3228  0.0941
14188TIP3   OH263978   0.912   1.600   1.819  0.5207  0.3506 -0.1063
14188TIP3    H163979   0.974   1.558   1.879  1.5383  2.4457  0.3814
14188TIP3    H263980   0.895   1.685   1.858 -2.7541 -0.1379 -0.2018
14189TIP3   OH263981   4.099   2.634   4.964 -0.2076 -0.2084 -0.1693
14189TIP3    H163982   4.090   2.572   5.036  1.6005 -0.6002 -0.2512
14189TIP3    H263983   4.012   2.636   4.924 -1.9913  1.7112  3.2809
14190TIP3   OH263984   5.763   0.488  15.836 -0.3711 -0.2385  0.1008
14190TIP3    H163985   5.805   0.446  15.762  1.0889 -1.0950  1.3552
14190TIP3    H263986   5.669   0.479  15.820 -0.1139 -3.1688 -0.1409
14191TIP3   OH263987   3.684   1.668   4.140 -0.0462 -0.2486  0.4085
14191TIP3    H163988   3.665   1.574   4.137  1.1102 -0.4740 -0.5688
14191TIP3    H263989   3.616   1.709   4.086  0.6505 -0.7585 -0.8889
14192TIP3   OH263990   3.301   1.694  11.583 -0.0674 -0.3172 -0.0983
14192TIP3    H163991   3.246   1.621  11.555 -1.0288  0.4321 -0.2030
14192TIP3    H263992   3.388   1.655  11.593 -0.6031 -1.5354  0.1000
14193TIP3   OH263993   0.767   0.564   4.465  0.1558 -0.3610  0.5882
14193TIP3    H163994   0.828   0.634   4.440  0.3047 -0.2736  1.1940
14193TIP3    H263995   0.745   0.582   4.556  0.4694 -1.2973  0.8676
14194TIP3   OH263996   1.901   0.148   5.667 -0.4477  0.6361  0.2508
14194TIP3    H163997   1.914   0.237   5.700 -0.8242  0.1850  1.7209
14194TIP3    H263998   1.977   0.099   5.699 -0.4136  0.3514 -0.2577
14195TIP3   OH263999   4.948   0.211   5.000  0.4398  0.7904  0.6596
14195TIP3    H164000   5.040   0.223   4.979  0.2952 -0.8494 -1.2606
14195TIP3    H264001   4.902   0.224   4.917 -0.9538  0.6340  1.3657
14196TIP3   OH264002   6.550   6.648   1.342  0.1508 -0.0546  0.3836
14196TIP3    H164003   6.563   6.583   1.272  0.4079 -0.0747  0.4466
14196TIP3    H264004   6.519   6.596   1.416 -1.0988  0.1016 -0.0036
14197TIP3   OH264005   4.497   4.448   1.562 -0.2713 -0.0770  0.0296
14197TIP3    H164006   4.568   4.512   1.566  0.2855 -0.7372  1.0420
14197TIP3    H264007   4.433   4.486   1.501  1.0411  0.4282 -1.0749
14198TIP3   OH264008   3.853   4.088  15.881  0.2137 -0.4115  0.2323
14198TIP3    H164009   3.813   4.035  15.949 -1.6159 -0.7399 -1.0252
14198TIP3    H264010   3.945   4.060  15.879 -0.2156 -1.9774  1.0248
14199TIP3   OH264011   5.602   1.553   0.907  0.5838 -0.1823 -0.3134
14199TIP3    H164012   5.568   1.622   0.851  2.6218  0.9036 -0.3097
14199TIP3    H264013   5.560   1.473   0.875 -2.1122  1.0156 -0.0971
14200TIP3   OH264014   3.038   3.636   4.691 -0.5289 -0.3699  0.2609
14200TIP3    H164015   3.052   3.643   4.597  2.1099  1.3571  0.6684
14200TIP3    H264016   3.065   3.547   4.713  2.5010  0.3239 -0.2077
14201TIP3   OH264017   1.665   4.303   3.153 -0.4230  0.4743  0.0755
14201TIP3    H164018   1.706   4.329   3.070 -1.1019  0.8660 -0.1521
14201TIP3    H264019   1.691   4.372   3.214  1.3391 -0.5961  0.6190
14202TIP3   OH264020   5.608   3.589  12.037  0.2765 -0.2703  0.6947
14202TIP3    H164021   5.704   3.588  12.029  0.3786 -0.2921  1.8215
14202TIP3    H264022   5.587   3.676  12.069 -0.3327  0.6543 -1.9463
14203TIP3   OH264023   2.550   6.156   4.249  0.5304  0.1048 -0.0797
14203TIP3    H164024   2.584   6.233   4.293  0.9915 -1.1545  1.8887
14203TIP3    H264025   2.628   6.107   4.222  0.2478  0.2512 -1.2119
14204TIP3   OH264026   4.578   3.702  16.950 -0.0102  0.3560 -0.1452
14204TIP3    H164027   4.559   3.623  16.899 -1.1181 -0.7323  1.8209
14204TIP3    H264028   4.657   3.738  16.910 -1.3391  0.1478 -3.1960
14205TIP3   OH264029   3.154   1.857  15.024 -0.8096  0.3307  0.1837
14205TIP3    H164030   3.163   1.762  15.032  1.8336  0.4376 -0.6090
14205TIP3    H264031   3.170   1.875  14.932 -1.4499  1.5688  0.2867
14206TIP3   OH264032   5.012   4.265  12.988  0.7597 -0.2607 -0.0107
14206TIP3    H164033   5.042   4.174  12.993  1.3038 -0.0950 -0.2298
14206TIP3    H264034   4.925   4.263  13.029  1.5056 -0.5454  1.6403
14207TIP3   OH264035   4.489   1.436  13.139 -0.3223  0.0023  0.3457
14207TIP3    H164036   4.534   1.464  13.219 -0.5667 -0.1215  0.5257
14207TIP3    H264037   4.396   1.435  13.163 -0.5457  1.4484 -0.3764
14208TIP3   OH264038   1.006   4.599  13.786 -0.0949  0.5150 -0.1545
14208TIP3    H164039   0.951   4.555  13.721 -0.4407  0.6537  0.0383
14208TIP3    H264040   1.078   4.637  13.735 -0.5109  0.8601 -0.5012
14209TIP3   OH264041   1.790   2.919   1.732  0.0669 -0.2283 -0.4165
14209TIP3    H164042   1.732   2.903   1.658  0.3648 -0.7918 -0.5389
14209TIP3    H264043   1.878   2.920   1.694  0.1275  0.8900 -0.2717
14210TIP3   OH264044   6.259   5.948   4.994  0.0635  0.4856 -0.3228
14210TIP3    H164045   6.283   5.885   5.063 -1.3419 -2.4421 -2.3085
14210TIP3    H264046   6.164   5.940   4.987  0.2838 -0.4032 -3.4910
14211TIP3   OH264047   5.705   5.694   3.860 -0.0962  0.5568 -0.2418
14211TIP3    H164048   5.797   5.674   3.844 -0.3334 -0.1236 -0.8690
14211TIP3    H264049   5.696   5.787   3.839  0.4907  0.6845  0.0499
14212TIP3   OH264050   1.950   1.295  14.527 -0.1875  0.3495 -0.1411
14212TIP3    H164051   1.917   1.292  14.438  0.5866  1.8366 -0.4946
14212TIP3    H264052   1.888   1.350  14.574 -0.8135 -0.7431  0.3699
14213TIP3   OH264053   0.378   3.001   0.886 -0.0579  0.7860 -0.0275
14213TIP3    H164054   0.428   2.921   0.903  1.3462  1.4635 -0.7940
14213TIP3    H264055   0.306   2.998   0.949 -1.1348 -1.9652 -1.2280
14214TIP3   OH264056   0.848   1.846  12.751 -0.6382 -0.3543 -0.7426
14214TIP3    H164057   0.824   1.824  12.661 -0.7369  0.1459 -0.8387
14214TIP3    H264058   0.817   1.772  12.802 -0.9505 -0.4499 -1.0680
14215TIP3   OH264059   5.651   4.059   0.018 -0.0129 -0.3153  0.2086
14215TIP3    H164060   5.740   4.068   0.052  0.6559  0.8115 -1.6895
14215TIP3    H264061   5.606   4.137   0.048  0.3914  0.3624 -0.9089
14216TIP3   OH264062   0.678   2.303  16.609 -0.0086 -0.3657  0.0105
14216TIP3    H164063   0.667   2.208  16.606  1.2886 -0.5262 -0.2929
14216TIP3    H264064   0.610   2.334  16.669 -1.0334 -1.3794 -0.5994
14217TIP3   OH264065   4.036   1.714   2.809  0.0099 -0.4213 -0.2097
14217TIP3    H164066   4.024   1.658   2.886 -1.7818  0.2297  0.0376
14217TIP3    H264067   3.973   1.785   2.821 -0.3395 -0.3158 -2.3039
14218TIP3   OH264068   6.275   1.346   4.279 -0.0803  0.3221  0.0122
14218TIP3    H164069   6.252   1.404   4.351 -2.4414 -0.2182 -0.2465
14218TIP3    H264070   6.264   1.399   4.200  1.0628  0.4766 -0.0631
14219TIP3   OH264071   5.659   4.328   1.305 -0.2238  0.0933 -0.4271
14219TIP3    H164072   5.748   4.303   1.330 -0.2670  0.1485 -0.2183
14219TIP3    H264073   5.611   4.245   1.301 -0.3332  0.1302  0.1314
14220TIP3   OH264074   5.441   5.505  11.062  0.2000  0.0855 -0.4326
14220TIP3    H164075   5.441   5.563  11.138  1.1808  0.2277 -0.5193
14220TIP3    H264076   5.361   5.528  11.014  0.5512  1.3686 -0.4545
14221TIP3   OH264077   4.555   4.470  12.026 -0.4345  0.1609 -0.6802
14221TIP3    H164078   4.592   4.539  11.969 -1.9001  1.7311  0.1832
14221TIP3    H264079   4.470   4.504  12.052 -0.8781 -1.6810  0.4183
14222TIP3   OH264080   5.415   3.056   4.660 -0.0803  0.1513 -0.3492
14222TIP3    H164081   5.400   3.131   4.718  0.4637  0.5112 -0.6631
14222TIP3    H264082   5.383   2.981   4.709  2.2813  0.1317  1.3588
14223TIP3   OH264083   3.967   5.180  14.133  0.1822 -0.2535 -0.7237
14223TIP3    H164084   3.974   5.084  14.135 -0.3107 -0.2883 -0.4585
14223TIP3    H264085   3.890   5.199  14.186  0.1550  0.2814 -0.9525
14224TIP3   OH264086   0.552   4.055   1.223 -0.3917  0.4809 -0.0751
14224TIP3    H164087   0.512   4.137   1.252  0.0431  1.3698 -1.7921
14224TIP3    H264088   0.559   4.002   1.302  0.7799  2.7152  1.4545
14225TIP3   OH264089   0.090   0.830  13.199  0.1384  0.9159 -0.5309
14225TIP3    H164090   0.013   0.887  13.206 -1.3510 -0.8237 -1.8488
14225TIP3    H264091   0.155   0.883  13.152 -0.4002  2.2430  0.1714
14226TIP3   OH264092   1.592   6.227  11.260  0.2467  0.1946 -0.2355
14226TIP3    H164093   1.687   6.219  11.250  0.5929 -0.0730  2.4796
14226TIP3    H264094   1.568   6.304  11.208  2.1245  0.8971 -0.1271
14227TIP3   OH264095   4.990   1.670   2.185 -0.0740  0.4780 -0.2434
14227TIP3    H164096   4.997   1.729   2.110 -2.1855  2.7966  1.2395
14227TIP3    H264097   5.028   1.588   2.154  1.2982  2.0151 -3.0410
14228TIP3   OH264098   0.585   1.977   2.559 -0.3868  0.1641  0.4218
14228TIP3    H164099   0.542   1.892   2.560  1.2391 -0.6768  0.9449
14228TIP3    H264100   0.605   1.996   2.650 -1.5010  1.5406  0.4199
14229TIP3   OH264101   3.358   4.687   0.084 -0.3047 -0.2227 -0.3400
14229TIP3    H164102   3.378   4.615   0.145  0.5020 -0.0033 -0.3371
14229TIP3    H264103   3.343   4.644   0.000  3.5388 -0.2438 -1.1863
14230TIP3   OH264104   5.393   0.382   4.701 -0.0588  0.1858  1.2614
14230TIP3    H164105   5.384   0.475   4.678  1.9362  0.4419  1.3352
14230TIP3    H264106   5.386   0.337   4.617  1.5925  0.6574  0.8305
14231TIP3   OH264107   0.899   1.827  13.690  0.7963  0.2629 -0.1295
14231TIP3    H164108   0.849   1.748  13.671  0.9156 -0.3839  2.0429
14231TIP3    H264109   0.940   1.811  13.774  0.8279  2.6333  0.3972
14232TIP3   OH264110   1.730   2.366  10.677 -0.1250  0.4826  0.1905
14232TIP3    H164111   1.714   2.461  10.681 -1.3427  0.2997  0.1732
14232TIP3    H264112   1.794   2.350  10.746  0.0724  1.3146  0.2161
14233TIP3   OH264113   0.016   6.692  13.621 -0.2625  0.4646 -0.3251
14233TIP3    H164114   0.058   6.629  13.679 -2.0333 -0.8123 -0.3427
14233TIP3    H264115   0.083   6.715  13.557  0.6729 -0.7845  0.1752
14234TIP3   OH264116   3.744   3.436  11.765  0.0535  0.3329 -0.2585
14234TIP3    H164117   3.829   3.463  11.732  0.8335 -0.8586  0.7161
14234TIP3    H264118   3.706   3.517  11.801  0.3925  1.0423 -1.4435
14235TIP3   OH264119   0.007   5.219  13.791  0.2277  0.2890  0.9196
14235TIP3    H164120  -0.033   5.134  13.810 -0.1924  0.0554 -0.8375
14235TIP3    H264121  -0.065   5.273  13.760  0.9551  0.3589 -0.7449
14236TIP3   OH264122   2.613   5.972   1.103  0.2449  0.7864  0.1030
14236TIP3    H164123   2.527   5.932   1.105  0.2037  0.8584  2.3336
14236TIP3    H264124   2.638   5.972   1.010 -1.8039  0.0854 -0.4918
14237TIP3   OH264125   6.423   3.220   4.340  0.1931 -0.1497  1.0725
14237TIP3    H164126   6.461   3.179   4.418 -0.7283 -0.6293  1.2865
14237TIP3    H264127   6.392   3.147   4.287 -1.6246  0.2289  1.5375
14238TIP3   OH264128   4.834   5.955  13.484  0.1945 -0.0116 -0.2337
14238TIP3    H164129   4.757   5.987  13.436  1.7426  1.1008 -2.0892
14238TIP3    H264130   4.883   6.034  13.506  1.6345 -0.7775 -0.5693
14239TIP3   OH264131   5.131   4.080   0.763 -0.4078 -0.1395 -0.2398
14239TIP3    H164132   5.138   3.985   0.771  1.0460 -0.0158  0.3819
14239TIP3    H264133   5.093   4.109   0.846 -2.3615 -0.2815 -1.0490
14240TIP3   OH264134   4.494   3.337   2.473  0.1498  0.2331 -0.3439
14240TIP3    H164135   4.548   3.297   2.405  0.4729 -0.9379  0.5682
14240TIP3    H264136   4.554   3.356   2.544 -0.2144  1.2829 -0.3013
14241TIP3   OH264137   1.624   1.265  15.356  0.6786 -0.2137  0.0055
14241TIP3    H164138   1.570   1.320  15.300  1.6458  1.3660  0.5557
14241TIP3    H264139   1.562   1.220  15.413 -0.1750 -0.2061 -0.8906
14242TIP3   OH264140   0.354   6.009   0.126 -0.2593 -0.7487  0.2102
14242TIP3    H164141   0.299   6.013   0.204  0.3039  0.1248  0.5777
14242TIP3    H264142   0.295   5.978   0.057 -0.7204 -1.6996  1.0105
14243TIP3   OH264143   0.674   6.360  12.257  0.1631 -0.1069 -0.4200
14243TIP3    H164144   0.751   6.366  12.201  0.4810 -1.1270 -0.1125
14243TIP3    H264145   0.622   6.289  12.220  1.0605 -1.7622  1.3487
14244TIP3   OH264146   4.263   6.616  12.702 -0.2120  0.4040 -0.0478
14244TIP3    H164147   4.224   6.550  12.760  0.3832  0.8326  0.8612
14244TIP3    H264148   4.192   6.677  12.684 -0.2710  0.5734  0.7017
14245TIP3   OH264149   0.444   0.449  15.770 -0.3203 -0.2738  0.1561
14245TIP3    H164150   0.393   0.459  15.851  1.5938  0.8029  1.3236
14245TIP3    H264151   0.380   0.430  15.702 -2.3303  1.7189  1.3981
14246TIP3   OH264152   5.975   3.141  13.617  0.1351 -0.6494 -0.0695
14246TIP3    H164153   5.919   3.076  13.573  0.8811 -0.7195 -0.9313
14246TIP3    H264154   6.062   3.100  13.619  0.7446  0.5559 -1.1466
14247TIP3   OH264155   3.460   0.387  16.507 -0.3464  0.2965  0.0796
14247TIP3    H164156   3.411   0.434  16.575 -0.9014  1.1514 -0.8914
14247TIP3    H264157   3.421   0.416  16.425  1.3655  0.4991 -0.6965
14248TIP3   OH264158   5.593   1.770   1.116  0.0137  0.0198 -0.1546
14248TIP3    H164159   5.656   1.724   1.171  3.2580  2.2622 -1.6703
14248TIP3    H264160   5.593   1.722   1.033  1.1197  0.9472 -0.7242
14249TIP3   OH264161   1.506   6.135   6.245 -0.1815  0.0041  0.6087
14249TIP3    H164162   1.502   6.098   6.334 -0.3516  0.8418  0.9616
14249TIP3    H264163   1.459   6.218   6.252  0.3392  0.3653 -0.1234
14250TIP3   OH264164   2.092   0.057   3.656 -0.4133 -0.2966 -0.4600
14250TIP3    H164165   2.069  -0.016   3.598 -0.8376 -0.1843 -0.4407
14250TIP3    H264166   2.176   0.032   3.694 -1.0100 -1.2281  0.2991
14251TIP3   OH264167   2.770   1.678  12.288 -0.3314  0.0102 -0.3502
14251TIP3    H164168   2.679   1.704  12.275  0.0391  0.9859 -1.1053
14251TIP3    H264169   2.818   1.722  12.218  1.1784  2.0129  1.8120
14252TIP3   OH264170   2.471   3.538   2.095 -0.2819 -0.0707 -0.3856
14252TIP3    H164171   2.472   3.442   2.104 -0.0025 -0.2704 -2.1107
14252TIP3    H264172   2.382   3.558   2.066  0.2889 -0.1237 -2.3573
14253TIP3   OH264173   2.376   6.050   3.228 -0.2076 -0.0500 -0.1090
14253TIP3    H164174   2.289   6.084   3.247  1.4735  4.3829  0.9067
14253TIP3    H264175   2.386   6.061   3.133 -0.6042 -0.2400 -0.1760
14254TIP3   OH264176   3.215   2.851   1.790 -0.3204  0.0231 -0.5182
14254TIP3    H164177   3.203   2.885   1.701 -0.7120  0.7125 -0.2090
14254TIP3    H264178   3.132   2.809   1.811  0.5062 -2.1610 -1.3044
14255TIP3   OH264179   5.088   4.712   5.406 -1.2474 -0.2737 -0.0473
14255TIP3    H164180   5.051   4.800   5.407 -0.5878  0.0115  0.7813
14255TIP3    H264181   5.131   4.705   5.321 -2.8043 -0.4602 -0.8421
14256TIP3   OH264182   0.815   2.419  11.845 -0.0137 -0.6401 -0.0081
14256TIP3    H164183   0.858   2.482  11.788  2.0266  0.1686  2.2468
14256TIP3    H264184   0.728   2.406  11.806  0.5369  1.3763 -2.1051
14257TIP3   OH264185   6.417   5.365  11.896 -0.6641 -0.1391  0.1695
14257TIP3    H164186   6.403   5.280  11.938  0.9033 -1.2916 -1.5066
14257TIP3    H264187   6.508   5.388  11.918 -0.4103  0.1010 -1.0718
14258TIP3   OH264188   0.769   1.934  11.124  0.2241  0.5465 -0.1620
14258TIP3    H164189   0.836   1.987  11.080  0.4619 -0.5773 -1.1888
14258TIP3    H264190   0.699   1.926  11.060  0.0678 -0.1492  0.0874
14259TIP3   OH264191   6.738   1.028   1.221 -0.2685  0.4451  0.1417
14259TIP3    H164192   6.721   1.064   1.308 -0.3983  1.4771 -0.2946
14259TIP3    H264193   6.666   0.966   1.206 -1.4067  1.7798 -0.0456
14260TIP3   OH264194   1.921   0.328   4.357  0.1309  0.0068 -0.1986
14260TIP3    H164195   2.011   0.296   4.367  0.5447  0.4136 -2.1511
14260TIP3    H264196   1.931   0.414   4.315 -1.1126  0.9775  1.3918
14261TIP3   OH264197   3.824   0.329   0.344 -0.3183  0.4018  0.4895
14261TIP3    H164198   3.868   0.366   0.421 -0.4278 -1.0130  1.2700
14261TIP3    H264199   3.839   0.235   0.351 -1.4246  0.1249 -0.5420
14262TIP3   OH264200   5.105   4.867   2.144  0.6196  0.2325 -0.8390
14262TIP3    H164201   5.129   4.959   2.153  0.9290  0.0892 -0.0974
14262TIP3    H264202   5.134   4.843   2.056  1.0848  0.6849 -0.8163
14263TIP3   OH264203   2.421   1.376   3.283  0.1493  0.4180 -0.4653
14263TIP3    H164204   2.481   1.336   3.220 -0.0553 -0.0786 -0.3529
14263TIP3    H264205   2.437   1.470   3.276  1.8196  0.2398  0.4400
14264TIP3   OH264206   4.039   5.232  11.738 -0.1909  0.3592  0.2404
14264TIP3    H164207   4.021   5.150  11.691  2.7063 -0.5641  0.5693
14264TIP3    H264208   4.034   5.208  11.830  3.9801 -0.4680  0.4248
14265TIP3   OH264209   1.658   3.727   0.197 -0.2138 -0.0918  0.3045
14265TIP3    H164210   1.666   3.823   0.196  0.4477 -0.1452 -0.2623
14265TIP3    H264211   1.748   3.695   0.198 -0.4257 -0.7165  2.0607
14266TIP3   OH264212   3.733   4.926   2.725 -0.1161  0.3039  0.2748
14266TIP3    H164213   3.807   4.973   2.762 -1.3412  0.8897  2.1005
14266TIP3    H264214   3.772   4.858   2.670  1.7810 -0.0127  1.9359
14267TIP3   OH264215   6.059   3.086   4.908  0.0561 -0.0962  0.0021
14267TIP3    H164216   6.062   3.010   4.966  0.7293 -1.3782 -1.6273
14267TIP3    H264217   6.072   3.161   4.966  0.1136 -1.2628  1.5663
14268TIP3   OH264218   6.201   1.531  12.905 -0.3724 -0.1367 -0.2988
14268TIP3    H164219   6.185   1.454  12.851  0.0729  0.0713 -0.7298
14268TIP3    H264220   6.294   1.527  12.927  0.1795  1.3937 -2.1027
14269TIP3   OH264221   3.929   4.987   6.157 -0.0981  0.6069  0.0802
14269TIP3    H164222   3.910   4.918   6.221 -2.1032  0.1658 -0.9019
14269TIP3    H264223   3.896   5.067   6.197  0.5481  0.6983  0.4453
14270TIP3   OH264224   4.490   0.183   3.236 -0.0953 -0.2367  0.6099
14270TIP3    H164225   4.549   0.117   3.270 -0.0074 -1.0341 -1.0408
14270TIP3    H264226   4.533   0.218   3.158 -1.7339 -0.8128 -0.6147
14271TIP3   OH264227   4.329   4.005   1.303 -0.0088 -0.0995 -0.4411
14271TIP3    H164228   4.418   4.040   1.299  0.6873 -1.3835  2.0277
14271TIP3    H264229   4.293   4.025   1.217  2.2196  1.5585 -1.1166
14272TIP3   OH264230   6.221   0.821  16.893 -0.1207  0.6992  0.6101
14272TIP3    H164231   6.276   0.842  16.817  0.2977  0.5771  0.8796
14272TIP3    H264232   6.154   0.890  16.893 -0.1218  0.7013  0.1311
14273TIP3   OH264233   4.823   0.371  15.037 -0.1443 -0.6664  0.4796
14273TIP3    H164234   4.732   0.363  15.008 -0.4608 -0.2742  1.3421
14273TIP3    H264235   4.872   0.314  14.978 -0.9243 -0.7422 -0.1067
14274TIP3   OH264236   1.004   6.304  14.069 -0.8053  0.5138 -0.1312
14274TIP3    H164237   0.953   6.383  14.085  0.2042  1.2804 -0.5885
14274TIP3    H264238   1.076   6.309  14.132 -1.4089 -0.6989  0.7055
14275TIP3   OH264239   6.346   0.709   6.142  0.3814 -0.3601 -0.7680
14275TIP3    H164240   6.328   0.672   6.228 -0.2774 -0.6401 -1.0195
14275TIP3    H264241   6.412   0.776   6.158 -0.8185  0.6494  0.1897
14276TIP3   OH264242   2.166   2.724   4.658  0.2641 -0.2885 -0.8392
14276TIP3    H164243   2.087   2.689   4.619 -0.9646  0.4193  0.9073
14276TIP3    H264244   2.163   2.818   4.638  0.4280 -0.1817 -0.3700
14277TIP3   OH264245   4.939   0.100   1.694 -0.5179  0.1469 -0.3708
14277TIP3    H164246   4.921   0.063   1.608 -1.8291  2.3832 -1.1308
14277TIP3    H264247   5.020   0.149   1.683 -0.9661  0.8667 -0.4807
14278TIP3   OH264248   3.201   6.750   2.281  0.0129 -0.2759  0.2533
14278TIP3    H164249   3.203   6.798   2.364  2.0305 -1.6026  1.0521
14278TIP3    H264250   3.113   6.712   2.278  0.2253 -1.0959  2.3729
14279TIP3   OH264251   1.294   5.935   2.098  0.7585  0.1857  0.5486
14279TIP3    H164252   1.284   5.845   2.129 -0.9020  0.4150  0.7901
14279TIP3    H264253   1.381   5.961   2.127  0.3595 -0.5533  2.6289
14280TIP3   OH264254   5.995   5.231   5.259 -0.6695 -0.3694 -0.3004
14280TIP3    H164255   6.073   5.187   5.226 -0.8621  1.8097 -4.2721
14280TIP3    H264256   5.922   5.180   5.225 -0.9820 -0.4404  0.4493
14281TIP3   OH264257   5.900   6.202   0.951  0.8028  0.3795 -0.1794
14281TIP3    H164258   5.834   6.261   0.985  1.4033  0.7092  0.4252
14281TIP3    H264259   5.858   6.160   0.876 -0.7457 -0.7766  1.2682
14282TIP3   OH264260   0.613   0.714  15.356  0.1183  0.0562 -0.0315
14282TIP3    H164261   0.524   0.689  15.333 -0.1794  0.6799  0.3967
14282TIP3    H264262   0.654   0.633  15.387  0.1502 -0.5329 -1.5294
14283TIP3   OH264263   0.710   0.123  16.496 -0.0860 -0.4137  0.3316
14283TIP3    H164264   0.708   0.160  16.409  0.6034 -1.9796 -0.3920
14283TIP3    H264265   0.791   0.155  16.535 -1.0268  1.3539  0.9311
14284TIP3   OH264266   6.032   4.015  11.207 -0.4255 -0.3285  0.2603
14284TIP3    H164267   6.114   4.050  11.241  0.2156 -0.4673 -1.0909
14284TIP3    H264268   5.969   4.086  11.220  0.2809  0.3892 -0.1446
14285TIP3   OH264269   4.769   3.711   4.540  0.0939  0.6381 -0.0895
14285TIP3    H164270   4.829   3.643   4.507 -0.9696  0.4557 -1.7571
14285TIP3    H264271   4.695   3.662   4.575  0.9892  0.8507  2.3171
14286TIP3   OH264272   1.278   2.478   2.782 -0.4428  0.1773  0.8303
14286TIP3    H164273   1.342   2.497   2.713 -0.9979 -0.3061  0.1628
14286TIP3    H264274   1.243   2.563   2.807 -0.2420  0.3545  0.5108
14287TIP3   OH264275   0.663   5.590  11.917  0.0015 -0.4039 -0.5906
14287TIP3    H164276   0.757   5.581  11.933 -0.1270  0.3885  0.7401
14287TIP3    H264277   0.651   5.561  11.827  1.8380  1.4835 -1.5185
14288TIP3   OH264278   1.253   2.652   1.894 -0.2013 -0.1095 -0.7369
14288TIP3    H164279   1.305   2.711   1.949 -0.0595 -2.0525  1.3330
14288TIP3    H264280   1.298   2.653   1.810  0.0729  2.2990 -0.6532
14289TIP3   OH264281   2.659   4.236   3.381  0.0667  0.0140  0.1035
14289TIP3    H164282   2.650   4.163   3.321  1.6738  0.5754 -0.9026
14289TIP3    H264283   2.729   4.290   3.343 -0.9725  2.0073  0.8699
14290TIP3   OH264284   0.690   5.471  14.501  0.1195  0.3128 -0.5650
14290TIP3    H164285   0.624   5.497  14.437 -0.2159  1.3746  0.1926
14290TIP3    H264286   0.773   5.497  14.461 -0.1198  1.3614 -0.4042
14291TIP3   OH264287   2.740   4.460   5.795 -1.0377  0.3985 -0.1630
14291TIP3    H164288   2.723   4.493   5.884 -3.6618 -0.3336 -0.3038
14291TIP3    H264289   2.661   4.411   5.773 -0.8452  1.3164 -3.2612
14292TIP3   OH264290   3.344   2.039   6.488 -0.1829  0.4226 -0.2039
14292TIP3    H164291   3.328   1.945   6.489  0.7648  0.2549  0.4311
14292TIP3    H264292   3.435   2.048   6.460  0.5402  0.9948  2.0797
14293TIP3   OH264293   5.008   4.767  10.919  0.5755  0.1106  0.2346
14293TIP3    H164294   5.050   4.790  11.002  0.2308  1.6642 -0.0045
14293TIP3    H264295   5.077   4.775  10.853  0.6448 -0.3154  0.2536
14294TIP3   OH264296   6.623   2.243   1.637 -0.0883 -0.4912 -0.4782
14294TIP3    H164297   6.566   2.253   1.713  0.4803  0.6513 -0.1816
14294TIP3    H264298   6.697   2.301   1.655  0.3734 -0.7133 -1.6024
14295TIP3   OH264299   1.436   3.517  12.286 -0.7353  0.3171 -0.3198
14295TIP3    H164300   1.459   3.584  12.221 -0.8042 -0.8102 -1.5637
14295TIP3    H264301   1.428   3.565  12.368 -0.0162  1.7029 -1.0181
14296TIP3   OH264302   4.266   4.083  15.765  0.2662  0.1282  0.3244
14296TIP3    H164303   4.221   4.011  15.721  1.0692 -0.2932  0.1625
14296TIP3    H264304   4.199   4.149  15.778 -0.1068  0.0751 -1.1286
14297TIP3   OH264305   0.946   4.415   1.730 -0.2966 -0.2855  0.1713
14297TIP3    H164306   1.019   4.472   1.753 -2.0641  1.6387  1.3544
14297TIP3    H264307   0.981   4.358   1.661  1.9315  1.3670 -0.1845
14298TIP3   OH264308   0.219   4.220  11.824 -0.5486 -0.3903 -0.3578
14298TIP3    H164309   0.178   4.279  11.887  0.9630  1.1165 -0.7227
14298TIP3    H264310   0.308   4.253  11.814  0.5468 -3.0425 -0.2269
14299TIP3   OH264311   2.544   4.495   6.948  0.4600 -0.0225 -0.6682
14299TIP3    H164312   2.508   4.446   6.875 -0.9575  0.0387 -0.0515
14299TIP3    H264313   2.635   4.514   6.923 -0.0055  0.0353 -2.3985
14300TIP3   OH264314   6.197   4.356  16.113  0.4253 -0.5581  0.1228
14300TIP3    H164315   6.153   4.278  16.078  0.1920 -0.6851  0.6938
14300TIP3    H264316   6.126   4.419  16.127  0.6775 -0.0369 -0.8495
14301TIP3   OH264317   5.770   2.540  11.675  0.0868 -0.6946 -0.3766
14301TIP3    H164318   5.788   2.578  11.589  0.5877 -0.6500 -0.2562
14301TIP3    H264319   5.845   2.482  11.691  1.8491  1.8465  1.5230
14302TIP3   OH264320   2.957   5.797  13.849 -0.3043 -0.7956  0.1776
14302TIP3    H164321   2.994   5.715  13.884 -0.7476 -0.8181  0.6009
14302TIP3    H264322   2.894   5.768  13.783  0.9844 -0.7393 -1.1225
14303TIP3   OH264323   5.636   1.730   4.997 -0.1094 -0.4039 -0.2567
14303TIP3    H164324   5.540   1.724   4.991 -0.1856 -1.4107  1.3586
14303TIP3    H264325   5.652   1.821   5.021 -0.5498  0.0834 -1.6513
14304TIP3   OH264326   0.907   0.270  12.613 -0.1676  0.8641 -0.0989
14304TIP3    H164327   0.911   0.279  12.709  0.0661 -1.5597  0.1696
14304TIP3    H264328   0.830   0.321  12.588 -2.2897 -1.1508  1.8216
14305TIP3   OH264329   2.938   4.949   2.948 -0.1126 -0.0886 -0.3803
14305TIP3    H164330   2.910   4.886   2.882  1.7260 -0.1834 -1.1265
14305TIP3    H264331   3.007   4.905   2.997 -0.6230  0.4199  0.8686
14306TIP3   OH264332   1.305   2.477  14.503  0.0074 -0.2639  0.3806
14306TIP3    H164333   1.372   2.512  14.445  1.2206 -0.7238  1.4556
14306TIP3    H264334   1.242   2.436  14.444  1.0101 -0.3957 -0.6398
14307TIP3   OH264335   0.667   3.587  11.341 -0.2334 -0.1800 -0.3344
14307TIP3    H164336   0.727   3.630  11.281 -1.2784  0.3973 -0.9878
14307TIP3    H264337   0.695   3.495  11.341 -0.8082 -0.4071 -2.5039
14308TIP3   OH264338   2.493   3.276   2.184 -0.5232 -0.1094 -0.1371
14308TIP3    H164339   2.450   3.220   2.119 -0.6930 -0.4050  0.2246
14308TIP3    H264340   2.548   3.217   2.235  0.0283  0.2069 -0.3521
14309TIP3   OH264341   1.739   4.446   0.077  0.3206  0.5258 -0.1766
14309TIP3    H164342   1.757   4.443  -0.017  1.9275  0.2853  0.1072
14309TIP3    H264343   1.669   4.511   0.087  0.8205  1.2852 -1.4418
14310TIP3   OH264344   5.070   5.932   1.927 -0.2256  0.3525  0.0192
14310TIP3    H164345   5.042   5.993   1.858  0.8312 -0.6249 -1.3199
14310TIP3    H264346   5.077   5.848   1.883  3.8149  0.3079  0.4161
14311TIP3   OH264347   5.126   5.738   5.247 -0.2059 -0.1492  0.7074
14311TIP3    H164348   5.150   5.664   5.192 -1.4672 -0.2964  0.3287
14311TIP3    H264349   5.157   5.815   5.198 -1.8477 -0.2362 -0.5630
14312TIP3   OH264350   0.662   3.110   4.923  0.1944 -0.0329 -0.0752
14312TIP3    H164351   0.737   3.104   4.983 -0.4284  1.6273  0.9422
14312TIP3    H264352   0.589   3.138   4.978 -1.6066 -3.0011 -0.7611
14313TIP3   OH264353   2.600   2.703   3.321  0.1460 -0.0410  0.4152
14313TIP3    H164354   2.611   2.612   3.350 -0.0705 -0.0685  0.4138
14313TIP3    H264355   2.511   2.706   3.286 -0.6891  0.7400  2.4753
14314TIP3   OH264356   3.277   2.455  15.817  0.0787  0.4148  0.0084
14314TIP3    H164357   3.293   2.411  15.900  1.2296 -0.1876 -0.5069
14314TIP3    H264358   3.213   2.399  15.772 -0.7730  0.9005  0.5967
14315TIP3   OH264359   0.990   1.393   4.291 -0.2052  0.8078  0.5869
14315TIP3    H164360   1.050   1.438   4.232  0.2755  0.9759  1.1862
14315TIP3    H264361   0.983   1.304   4.257  0.5546  0.7262  0.6232
14316TIP3   OH264362   1.521   5.448  13.124 -0.2672  0.3686  0.3757
14316TIP3    H164363   1.610   5.481  13.135 -0.0296 -0.6069  1.6915
14316TIP3    H264364   1.532   5.367  13.075 -0.3670  0.0560  0.8563
14317TIP3   OH264365   3.988   3.617   0.223 -0.4009  0.9905  0.0298
14317TIP3    H164366   4.015   3.706   0.248  0.5297  0.6523  0.2702
14317TIP3    H264367   4.068   3.565   0.230 -0.9581  0.1106 -0.0202
14318TIP3   OH264368   2.155   3.995   5.530  0.1930  0.7093  0.0765
14318TIP3    H164369   2.080   3.947   5.494  0.0730  0.1438  1.0638
14318TIP3    H264370   2.134   4.008   5.622  1.2111  0.7523  0.3139
14319TIP3   OH264371   4.001   0.817   4.222 -0.1127  0.4827 -0.1039
14319TIP3    H164372   4.041   0.740   4.263  2.6280  2.3401  1.0090
14319TIP3    H264373   4.060   0.839   4.150 -1.5321  0.8730 -1.1837
14320TIP3   OH264374   6.043   0.686  16.338  0.6264 -0.0982  0.2159
14320TIP3    H164375   5.978   0.625  16.303 -0.8794  0.6353  1.6365
14320TIP3    H264376   6.095   0.711  16.261 -1.9769  0.7702 -1.3787
14321TIP3   OH264377   5.333   4.966   4.895 -0.4060 -0.3168 -0.3626
14321TIP3    H164378   5.333   4.998   4.985  2.3338 -0.8192 -0.0817
14321TIP3    H264379   5.384   5.031   4.847 -0.0679 -1.0973 -1.0792
14322TIP3   OH264380   4.972   4.689   0.566  0.1383 -0.6271 -0.1491
14322TIP3    H164381   4.987   4.596   0.581  0.7103 -0.5237 -0.0703
14322TIP3    H264382   5.011   4.732   0.642 -0.9390 -0.3762  0.2811
14323TIP3   OH264383   5.254   2.202  11.845 -0.1855  0.0175  0.1783
14323TIP3    H164384   5.239   2.293  11.820  1.6271  0.1241 -0.6730
14323TIP3    H264385   5.268   2.205  11.940  2.6238  1.1093 -0.1743
14324TIP3   OH264386   2.324   6.645   0.265 -0.3570 -0.2460 -0.0733
14324TIP3    H164387   2.276   6.724   0.243  0.4847  0.7131  1.3244
14324TIP3    H264388   2.357   6.611   0.182 -1.5335  0.3236 -0.7849
14325TIP3   OH264389   2.651   5.964   4.960 -0.0531 -0.0516 -0.0615
14325TIP3    H164390   2.682   5.945   4.872  0.6209  0.7522 -0.0005
14325TIP3    H264391   2.566   5.919   4.965  0.1242 -0.5102 -0.9411
14326TIP3   OH264392   5.745   3.134   0.208 -0.3675 -0.7452 -0.5305
14326TIP3    H164393   5.767   3.117   0.300 -0.5688  1.2538 -0.0575
14326TIP3    H264394   5.655   3.102   0.199 -0.6953 -0.0700  0.2561
14327TIP3   OH264395   0.191   3.119   4.049  0.2271  0.1471 -0.1993
14327TIP3    H164396   0.105   3.143   4.082  0.1014  0.3731 -0.6735
14327TIP3    H264397   0.246   3.195   4.065  1.5258 -1.3865  3.9793
14328TIP3   OH264398   5.845   6.018  12.892  0.0223 -0.4360 -0.2803
14328TIP3    H164399   5.773   6.040  12.951 -1.7899 -0.5022 -2.3589
14328TIP3    H264400   5.912   5.981  12.949 -1.4940 -0.1937  1.7623
14329TIP3   OH264401   5.655   3.506   5.455 -0.4948  0.0359  0.2264
14329TIP3    H164402   5.568   3.527   5.490 -0.7341  1.7263 -1.2125
14329TIP3    H264403   5.638   3.459   5.374 -0.1314  1.0315 -0.4552
14330TIP3   OH264404   2.348   1.388   4.993  0.2055 -0.5615  0.0912
14330TIP3    H164405   2.338   1.408   4.900 -1.3023  0.3621  0.4106
14330TIP3    H264406   2.302   1.305   5.004 -0.0057 -0.4457  0.0875
14331TIP3   OH264407   5.972   1.608  13.715 -0.8996 -0.0719 -0.0150
14331TIP3    H164408   5.967   1.634  13.807 -1.4854 -1.4562  0.3613
14331TIP3    H264409   6.052   1.650  13.682  0.0483 -0.6618  1.4723
14332TIP3   OH264410   1.508   4.304   4.298 -0.3500 -0.0170  0.3920
14332TIP3    H164411   1.478   4.369   4.362 -0.3725 -0.7766  1.1635
14332TIP3    H264412   1.445   4.310   4.226 -0.6441  0.4573  0.6827
14333TIP3   OH264413   6.322   5.722   3.684  0.3472  0.0836 -0.2860
14333TIP3    H164414   6.417   5.719   3.672  0.5845  1.3220  0.9799
14333TIP3    H264415   6.295   5.806   3.648  0.7835  2.8624  4.8921
14334TIP3   OH264416   3.677   1.012  11.620 -0.1967  0.0379 -0.0555
14334TIP3    H164417   3.759   1.044  11.658  0.9639 -1.1393 -1.4193
14334TIP3    H264418   3.694   0.920  11.599 -2.1972 -0.5019  0.4457
14335TIP3   OH264419   3.469   3.477  17.179 -0.0382 -0.6572 -0.4286
14335TIP3    H164420   3.459   3.572  17.172 -0.2778 -0.6787 -0.3832
14335TIP3    H264421   3.455   3.445  17.089 -1.6331 -0.7966 -0.1754
14336TIP3   OH264422   5.417   5.985  15.127  0.1250  0.0123  0.0153
14336TIP3    H164423   5.489   6.046  15.117  0.0429  0.0749 -0.2113
14336TIP3    H264424   5.448   5.920  15.190 -0.4676  1.3152  1.7176
14337TIP3   OH264425   4.017   0.714   4.667  0.0220  0.1194  0.0303
14337TIP3    H164426   3.954   0.777   4.631 -1.1926 -2.3050 -2.4883
14337TIP3    H264427   4.103   0.756   4.655 -0.8635  3.1286  2.7369
14338TIP3   OH264428   3.343   5.857  16.793  0.3242 -0.3303 -0.0069
14338TIP3    H164429   3.282   5.806  16.740  2.1776 -1.8037 -0.8330
14338TIP3    H264430   3.372   5.796  16.861 -0.7052  1.0150  1.7482
14339TIP3   OH264431   2.168   5.529  15.716  0.3497 -0.3356  0.1010
14339TIP3    H164432   2.159   5.590  15.789 -1.9560 -0.0936 -0.3264
14339TIP3    H264433   2.197   5.583  15.643  1.4901 -0.3660  0.5110
14340TIP3   OH264434   3.034   3.445   1.297  0.2221 -0.1669  0.0384
14340TIP3    H164435   3.008   3.435   1.205  0.6840 -0.5569 -0.0534
14340TIP3    H264436   3.007   3.363   1.339 -0.1483  0.0815  0.2929
14341TIP3   OH264437   6.085   5.226   2.476  0.2828  0.1627 -0.0245
14341TIP3    H164438   6.090   5.276   2.395 -1.1932  1.8561  0.8417
14341TIP3    H264439   6.176   5.206   2.498  0.6659 -1.7641 -2.8501
14342TIP3   OH264440   5.260   5.191   0.764  0.2502  0.4666  0.7372
14342TIP3    H164441   5.264   5.156   0.675 -1.9059  0.9748  0.3771
14342TIP3    H264442   5.344   5.167   0.803 -0.0497 -2.8531 -0.2887
14343TIP3   OH264443   1.195   1.319  15.446 -0.0638  0.0214 -0.0267
14343TIP3    H164444   1.179   1.354  15.534 -1.5062 -1.8194  0.5136
14343TIP3    H264445   1.108   1.314  15.406  0.6397  1.3759 -1.8110
14344TIP3   OH264446   4.462   0.383  12.638 -0.8769  0.3776 -0.0848
14344TIP3    H164447   4.484   0.291  12.651 -0.0834  0.6335  0.4571
14344TIP3    H264448   4.371   0.382  12.606  0.1675 -0.7618 -3.3678
14345TIP3   OH264449   3.799   3.808   6.280  0.6188  0.6258 -0.0196
14345TIP3    H164450   3.824   3.857   6.358  0.3879 -0.8270  1.0147
14345TIP3    H264451   3.852   3.728   6.284 -1.1129 -0.5849 -0.0186
14346TIP3   OH264452   4.275   1.574   5.946  0.1887 -0.0869 -0.5032
14346TIP3    H164453   4.210   1.511   5.977  0.7638 -0.0847  0.7910
14346TIP3    H264454   4.224   1.652   5.926 -0.1457  0.2672  1.4884
14347TIP3   OH264455   3.006   4.822  12.724  0.0664  0.1398 -0.3009
14347TIP3    H164456   2.931   4.836  12.666  0.2820 -0.0248 -0.6273
14347TIP3    H264457   3.027   4.729  12.714  0.5365  0.2599 -0.4941
14348TIP3   OH264458   1.203   4.783   4.163  0.0584  0.0465 -0.3846
14348TIP3    H164459   1.108   4.791   4.170 -0.1287 -1.5916 -0.6098
14348TIP3    H264460   1.237   4.843   4.230 -1.2366 -1.4138  1.7171
14349TIP3   OH264461   2.215   1.307  14.336  0.5316 -0.7355 -0.1439
14349TIP3    H164462   2.125   1.282  14.356  0.9601 -2.4359 -0.1841
14349TIP3    H264463   2.229   1.277  14.246  0.6915  0.8887 -0.6934
14350TIP3   OH264464   2.435   5.818   2.586 -0.2997 -0.0274 -0.0383
14350TIP3    H164465   2.446   5.913   2.594  1.9711 -0.2200 -0.0398
14350TIP3    H264466   2.521   5.783   2.610 -0.1748 -1.9025 -2.7554
14351TIP3   OH264467   2.979   2.585   3.205 -0.0075 -0.1454 -0.3312
14351TIP3    H164468   3.013   2.648   3.269 -2.1766  0.6492  0.1184
14351TIP3    H264469   3.057   2.556   3.157  1.4387  0.6247  1.4279
14352TIP3   OH264470   5.808   3.653   0.918  0.5295  0.3528 -0.7203
14352TIP3    H164471   5.807   3.557   0.907  1.1207  0.4402 -1.7216
14352TIP3    H264472   5.718   3.680   0.900 -0.3243 -0.2280  2.1988
14353TIP3   OH264473   1.023   4.047  15.631 -0.1685  0.4723 -0.4929
14353TIP3    H164474   0.936   4.079  15.654 -0.2046  0.2570 -0.3209
14353TIP3    H264475   1.012   3.952  15.621  0.2127  0.3325  0.3310
14354TIP3   OH264476   4.932   1.633   1.788  1.0590  0.0528  0.2494
14354TIP3    H164477   4.978   1.568   1.734  0.2835  0.4396 -0.9097
14354TIP3    H264478   4.891   1.581   1.858  1.9535 -0.4731  0.4029
14355TIP3   OH264479   6.152   6.391   4.174  0.1254 -0.1377 -0.2941
14355TIP3    H164480   6.150   6.486   4.172  0.2524 -0.1491 -1.4032
14355TIP3    H264481   6.206   6.369   4.250  0.5696  0.6697 -0.3775
14356TIP3   OH264482   0.731   5.550   0.642 -0.4169 -0.4025  0.4033
14356TIP3    H164483   0.775   5.523   0.562 -0.4443  0.0478  0.2345
14356TIP3    H264484   0.787   5.519   0.713  0.6253  0.9165  0.1832
14357TIP3   OH264485   6.678   6.330  16.265 -0.2307  0.7031 -0.3499
14357TIP3    H164486   6.735   6.404  16.285  2.9345 -1.6341  0.2957
14357TIP3    H264487   6.596   6.368  16.235  0.5155  4.3994  1.7962
14358TIP3   OH264488   0.084   6.460   4.170  0.2665 -0.6369 -0.0527
14358TIP3    H164489   0.111   6.383   4.221 -0.5870 -1.1680 -0.3778
14358TIP3    H264490  -0.004   6.481   4.202  0.6287  0.4370  0.2828
14359TIP3   OH264491   0.605   4.964   0.028 -0.3608 -0.6778 -0.1110
14359TIP3    H164492   0.688   5.011   0.019 -0.1741 -0.8819  0.5117
14359TIP3    H264493   0.549   5.023   0.078  0.5703 -1.9266  2.5688
14360TIP3   OH264494   0.086   6.102   4.133 -0.0240  0.6254 -0.6889
14360TIP3    H164495   0.024   6.166   4.166 -0.1141  0.7862 -1.1591
14360TIP3    H264496   0.046   6.067   4.054 -1.1114 -1.8115  0.8099
14361TIP3   OH264497   3.390   0.904   4.846  0.1827  0.4875 -0.0330
14361TIP3    H164498   3.296   0.888   4.853  0.0721  0.3539 -1.5556
14361TIP3    H264499   3.418   0.851   4.772  1.2154  1.5062 -0.3973
14362TIP3   OH264500   2.442   1.599  15.006  0.1786  0.3398 -0.5095
14362TIP3    H164501   2.521   1.551  15.032 -1.3845 -0.7285  2.7681
14362TIP3    H264502   2.384   1.533  14.968 -0.4943  0.3820  0.4214
14363TIP3   OH264503   5.764   1.533  16.286 -0.2435  0.3228 -0.7392
14363TIP3    H164504   5.818   1.609  16.261 -0.8326  1.8107  2.0307
14363TIP3    H264505   5.678   1.571  16.305 -1.1528 -1.4092 -1.2446
14364TIP3   OH264506   3.899   1.126  11.762  0.9410  0.2726  0.2134
14364TIP3    H164507   3.906   1.221  11.772  1.5793  0.0363  2.7227
14364TIP3    H264508   3.977   1.092  11.805  0.4571 -1.4004 -0.1800
14365TIP3   OH264509   0.187   2.711  16.924 -0.0314 -0.9451 -0.0175
14365TIP3    H164510   0.267   2.747  16.961 -0.8336  0.7863  0.1008
14365TIP3    H264511   0.186   2.620  16.954  1.0030 -0.5180  1.4122
14366TIP3   OH264512   1.779   0.786  13.924 -0.5228 -0.0759 -0.0257
14366TIP3    H164513   1.743   0.865  13.965 -0.8023 -0.9429  1.4871
14366TIP3    H264514   1.835   0.819  13.854  0.8513  1.5961  1.7168
14367TIP3   OH264515   0.841   2.614  12.085 -0.3377 -0.1871 -0.4005
14367TIP3    H164516   0.826   2.628  11.992 -2.6709 -0.2060 -0.0948
14367TIP3    H264517   0.936   2.614  12.095 -0.0347  2.0972 -2.4208
14368TIP3   OH264518   5.519   6.342  17.310 -0.5566 -0.0960  0.9303
14368TIP3    H164519   5.492   6.251  17.300 -1.0344  0.0811  0.5677
14368TIP3    H264520   5.614   6.341  17.299 -0.5942 -0.5078  0.6438
14369TIP3   OH264521   3.680   4.401   3.702  0.4319 -0.6662  0.3264
14369TIP3    H164522   3.767   4.377   3.733  1.2303  0.2813 -1.0656
14369TIP3    H264523   3.663   4.342   3.629  0.5640  0.1370 -0.3635
14370TIP3   OH264524   3.924   2.694   5.898 -0.0789 -0.5275 -0.1430
14370TIP3    H164525   3.879   2.761   5.949 -0.0164 -0.8076  0.2843
14370TIP3    H264526   3.959   2.633   5.963  2.4702  0.5965 -0.3216
14371TIP3   OH264527   3.463   3.405  11.922 -0.7478  0.4081 -0.2940
14371TIP3    H164528   3.529   3.464  11.957 -0.7436  0.6444 -0.6888
14371TIP3    H264529   3.410   3.379  11.997 -0.1395  0.1287  0.0466
14372TIP3   OH264530   4.128   6.087  13.734 -0.0320 -0.4403  0.5477
14372TIP3    H164531   4.080   6.013  13.696 -0.8946 -0.0207  0.7932
14372TIP3    H264532   4.203   6.047  13.776  0.2925 -1.0432 -0.5458
14373TIP3   OH264533   3.307   5.893   2.100  0.9206 -0.6626  0.5784
14373TIP3    H164534   3.352   5.895   2.184  1.5087 -2.0396  0.3223
14373TIP3    H264535   3.346   5.819   2.053 -0.3815 -0.8047 -0.3494
14374TIP3   OH264536   4.027   6.394  11.909 -0.2484  0.2315 -0.6293
14374TIP3    H164537   3.966   6.440  11.966 -0.4934  1.0312 -1.4989
14374TIP3    H264538   4.061   6.462  11.850  1.3846 -0.2107 -0.2589
14375TIP3   OH264539   2.635   4.625   0.948 -0.1616  0.6620 -0.0090
14375TIP3    H164540   2.659   4.711   0.915 -3.6181  1.8165  0.0648
14375TIP3    H264541   2.661   4.625   1.040 -0.1919  1.6518  0.0025
14376TIP3   OH264542   1.937   6.565  12.284 -0.2160  0.3281 -0.4504
14376TIP3    H164543   2.002   6.532  12.223  0.5113  0.3432  0.2915
14376TIP3    H264544   1.864   6.595  12.229  1.2543  2.2877 -1.4595
14377TIP3   OH264545   2.097   2.117   0.808  0.2351 -0.3178 -0.1852
14377TIP3    H164546   2.054   2.078   0.885 -0.8303  0.0522 -0.5653
14377TIP3    H264547   2.032   2.108   0.738  0.6746  0.5257 -0.7186
14378TIP3   OH264548   6.406   0.279  14.203 -0.3914  0.2300 -0.1038
14378TIP3    H164549   6.500   0.292  14.191 -0.2101 -0.5017  0.4230
14378TIP3    H264550   6.399   0.232  14.286 -1.2220  0.2438 -0.1576
14379TIP3   OH264551   0.847   6.153  13.401  0.4798 -0.5654  0.9272
14379TIP3    H164552   0.765   6.164  13.352  0.9318 -0.9408  0.0692
14379TIP3    H264553   0.914   6.195  13.347  0.5200  1.9702  2.7814
14380TIP3   OH264554   5.428   5.764   4.025  0.6047  0.1985 -0.8604
14380TIP3    H164555   5.505   5.748   4.079 -0.9115 -0.6826  1.2225
14380TIP3    H264556   5.380   5.681   4.027 -0.8479  0.9851 -1.2693
14381TIP3   OH264557   2.347   5.098  14.246  0.0288 -0.3875 -0.9734
14381TIP3    H164558   2.391   5.171  14.204 -0.0066  0.8223  0.9747
14381TIP3    H264559   2.384   5.095  14.334 -3.4254  0.5099  0.7055
14382TIP3   OH264560   3.504   4.653   4.849  0.0945 -0.0219 -0.8037
14382TIP3    H164561   3.581   4.687   4.803  0.6004 -0.8274 -0.5647
14382TIP3    H264562   3.513   4.558   4.844  0.7536 -0.1678  1.9339
14383TIP3   OH264563   0.727   3.692  12.141 -0.3632 -0.4441 -0.6545
14383TIP3    H164564   0.812   3.734  12.150 -0.1972 -0.8328 -0.3819
14383TIP3    H264565   0.690   3.729  12.061 -0.2029  0.1848 -0.4454
14384TIP3   OH264566   0.411   3.635  16.260  0.1385  0.6540 -0.7551
14384TIP3    H164567   0.329   3.586  16.268  0.8855 -0.3791  1.1924
14384TIP3    H264568   0.387   3.726  16.280 -0.3248  0.1190  1.4368
14385TIP3   OH264569   1.415   0.272  11.929  0.8337 -0.5285  0.2593
14385TIP3    H164570   1.395   0.316  11.847  0.6709 -0.7577  0.1752
14385TIP3    H264571   1.462   0.193  11.903 -2.5778 -2.6917  0.0563
14386TIP3   OH264572   1.545   5.658  13.584 -0.4568  0.2837 -0.0218
14386TIP3    H164573   1.475   5.694  13.529  0.4237  0.6947 -0.8956
14386TIP3    H264574   1.537   5.563  13.573 -1.7047  0.2468  0.9483
14387TIP3   OH264575   5.771   1.234   1.486  0.6242  0.3374  0.5631
14387TIP3    H164576   5.820   1.301   1.437  0.9893  0.2666  0.8316
14387TIP3    H264577   5.699   1.283   1.526  0.6125  0.4854  0.3673
14388TIP3   OH264578   4.332   6.592   4.408  0.0623 -0.7078 -0.3913
14388TIP3    H164579   4.407   6.578   4.351  2.7347  1.4976  2.2845
14388TIP3    H264580   4.302   6.504   4.430  2.6474 -1.7280 -0.6141
14389TIP3   OH264581   3.806   1.449   5.196 -0.1452 -0.2773 -0.4642
14389TIP3    H164582   3.822   1.540   5.221 -2.3091  0.2129 -0.6179
14389TIP3    H264583   3.876   1.429   5.134  0.7396  1.0685  0.0495
14390TIP3   OH264584   0.722   6.228   3.663  0.5909  0.1565  0.1568
14390TIP3    H164585   0.634   6.253   3.634  0.9458  1.7119  0.3365
14390TIP3    H264586   0.762   6.186   3.587  0.2714  0.9717 -0.4724
14391TIP3   OH264587   1.338   3.756   0.807  0.1876  0.1430 -0.1785
14391TIP3    H164588   1.363   3.844   0.782 -0.8163  0.4099 -0.3188
14391TIP3    H264589   1.388   3.699   0.748  1.4183  0.5681  0.4282
14392TIP3   OH264590   4.534   4.825   2.051  0.1892  0.2634  0.2478
14392TIP3    H164591   4.606   4.815   2.113 -1.1488 -1.8580  1.6011
14392TIP3    H264592   4.567   4.788   1.969  0.8541 -0.0927  0.6743
14393TIP3   OH264593   1.047   5.756   1.312  0.9903  0.3500 -0.5448
14393TIP3    H164594   0.954   5.764   1.293  0.6622 -1.6914 -0.0607
14393TIP3    H264595   1.079   5.846   1.315 -0.5147  1.0531 -2.7416
14394TIP3   OH264596   1.036   4.071   4.811  0.0892  0.3137  0.2785
14394TIP3    H164597   0.973   4.144   4.813  0.0669  0.3104 -0.3249
14394TIP3    H264598   1.106   4.101   4.753 -0.5210 -0.6433 -0.9791
14395TIP3   OH264599   6.194   0.008  11.122 -0.1711  0.3003  0.1223
14395TIP3    H164600   6.122   0.060  11.157 -2.3696 -1.0090 -2.1508
14395TIP3    H264601   6.262   0.072  11.100 -1.5188  1.8381  0.3027
14396TIP3   OH264602   4.537   5.754  10.701 -0.0002  0.4369  0.0614
14396TIP3    H164603   4.619   5.802  10.697  0.5196 -0.4720 -0.6186
14396TIP3    H264604   4.471   5.814  10.667  0.3797  1.1594  0.5807
14397TIP3   OH264605   0.861   0.116   1.009 -0.1968  0.2016  0.3374
14397TIP3    H164606   0.808   0.081   1.081  1.3622 -1.3957  0.7821
14397TIP3    H264607   0.799   0.131   0.939 -1.2804 -1.5846  0.8421
14398TIP3   OH264608   4.102   4.503   4.955 -0.5077 -0.1540  0.1372
14398TIP3    H164609   4.137   4.583   4.915 -1.2543 -0.2264 -0.6893
14398TIP3    H264610   4.177   4.464   5.001  0.1121  0.4859 -0.3178
14399TIP3   OH264611   0.918   3.824   2.901  0.4821 -0.3434  0.3009
14399TIP3    H164612   0.918   3.914   2.869  1.2869 -0.6237 -0.5245
14399TIP3    H264613   0.847   3.822   2.965  1.1574  1.1538  1.1565
14400TIP3   OH264614   3.404   2.380  15.420  0.0365 -0.2260  0.1047
14400TIP3    H164615   3.347   2.312  15.384  0.4531 -0.6542  0.2317
14400TIP3    H264616   3.490   2.337  15.427  0.7473  0.8469 -1.5027
14401TIP3   OH264617   0.283   0.082  16.275  0.3716 -0.1094  0.3311
14401TIP3    H164618   0.268   0.026  16.199  2.1655  2.0325 -1.7797
14401TIP3    H264619   0.202   0.131  16.285  0.7641  1.1198 -1.7213
14402TIP3   OH264620   0.049   5.942   4.600  0.1484  0.4729 -0.2345
14402TIP3    H164621  -0.014   5.996   4.553  0.2798  1.2597  0.4936
14402TIP3    H264622   0.028   5.852   4.573 -1.1530  0.7397 -0.1333
14403TIP3   OH264623   0.845   4.614  15.179  0.2937  0.8711  0.1362
14403TIP3    H164624   0.787   4.627  15.103  0.1610  0.1720  0.1116
14403TIP3    H264625   0.839   4.520  15.198 -0.0443  1.1147  1.3162
14404TIP3   OH264626   6.093   1.050   3.652 -0.4738  0.5907 -0.1211
14404TIP3    H164627   6.162   1.068   3.716 -0.5093 -0.5033  0.2343
14404TIP3    H264628   6.017   1.026   3.706 -1.0219  1.3651 -0.5248
14405TIP3   OH264629   0.235   0.060   6.106 -0.6752  0.2925 -0.0353
14405TIP3    H164630   0.143   0.060   6.081 -0.5272  0.7772 -0.5960
14405TIP3    H264631   0.279   0.012   6.036 -0.4997  0.0379  0.2430
14406TIP3   OH264632   6.775   0.362   4.312  0.2251  0.4090  0.5347
14406TIP3    H164633   6.753   0.375   4.220  0.2522 -0.4586  0.3945
14406TIP3    H264634   6.691   0.365   4.358  0.1782  0.5376  0.4384
14407TIP3   OH264635   3.922   2.236  15.847 -0.5239  0.4992 -0.4123
14407TIP3    H164636   4.017   2.226  15.862 -0.6307  1.0184  0.6850
14407TIP3    H264637   3.915   2.308  15.785 -0.1915  0.4333 -0.5305
14408TIP3   OH264638   2.693   2.662   0.117 -0.2881 -0.1657 -0.2229
14408TIP3    H164639   2.635   2.669   0.193 -0.5720  1.2240 -0.5337
14408TIP3    H264640   2.682   2.745   0.071 -0.3465 -1.0799 -1.9532
14409TIP3   OH264641   6.508   4.516  17.328  0.0378  0.1586 -0.0244
14409TIP3    H164642   6.559   4.592  17.355 -0.8051  0.5554  0.4745
14409TIP3    H264643   6.505   4.460  17.405 -1.6435  0.8945  0.4717
14410TIP3   OH264644   4.200   0.370  14.147 -0.3225 -0.4386 -0.1667
14410TIP3    H164645   4.115   0.329  14.162  1.0011 -3.0275  0.7578
14410TIP3    H264646   4.179   0.461  14.124 -3.3718 -1.3184 -1.2873
14411TIP3   OH264647   3.090   6.512  13.082  0.1644 -0.3530  0.0441
14411TIP3    H164648   3.053   6.561  13.009 -1.2792  0.2447  1.1178
14411TIP3    H264649   3.015   6.464  13.119  0.8097 -0.4978  1.2206
14412TIP3   OH264650   3.264   0.966   3.052 -0.4257  0.2286  0.1937
14412TIP3    H164651   3.233   0.965   3.143  0.9879 -0.7885  0.7115
14412TIP3    H264652   3.343   0.912   3.054 -1.0425 -0.8433 -1.9097
14413TIP3   OH264653   6.730   5.063  11.776  0.3503  0.0733 -0.1211
14413TIP3    H164654   6.712   5.144  11.728 -0.8357  0.8179  1.4813
14413TIP3    H264655   6.646   5.017  11.778  0.5173 -0.2132  0.7148
14414TIP3   OH264656   5.000   6.219   6.184 -0.1975 -0.6768  0.1281
14414TIP3    H164657   5.012   6.241   6.092 -0.6480 -1.3485 -0.0949
14414TIP3    H264658   5.023   6.299   6.231  1.3674 -0.7282 -0.4867
14415TIP3   OH264659   5.764   2.197  12.461  0.2151 -0.2926  0.1821
14415TIP3    H164660   5.746   2.125  12.401 -0.6182  0.6872 -0.7760
14415TIP3    H264661   5.859   2.204  12.463  0.3491 -1.8262  0.8127
14416TIP3   OH264662   4.892   6.239  16.652 -0.2643  0.1432 -0.0966
14416TIP3    H164663   4.843   6.231  16.570  2.3189 -0.9884 -1.6657
14416TIP3    H264664   4.932   6.325  16.648  0.6016 -0.2690 -0.4946
14417TIP3   OH264665   2.293   5.293  11.704  0.8763  1.0349  0.2385
14417TIP3    H164666   2.318   5.249  11.785  0.6049 -1.9628 -1.1541
14417TIP3    H264667   2.361   5.269  11.641 -0.3769  0.8451 -1.1139
14418TIP3   OH264668   4.209   0.537  14.517 -0.0383  0.4156 -0.0698
14418TIP3    H164669   4.212   0.515  14.610  0.0091 -0.2484 -0.2222
14418TIP3    H264670   4.281   0.598  14.504 -0.5532  1.1652  0.4895
14419TIP3   OH264671   4.130   5.265  11.100 -0.3694 -0.6999  0.0675
14419TIP3    H164672   4.121   5.282  11.006 -0.6153  0.1383  0.2350
14419TIP3    H264673   4.223   5.247  11.113  0.0197  1.1377 -0.0341
14420TIP3   OH264674   5.106   0.552   4.220 -0.7446 -0.3867 -0.5884
14420TIP3    H164675   5.102   0.511   4.134  0.2667 -1.6709 -0.0593
14420TIP3    H264676   5.154   0.489   4.274  0.9385  1.5438  0.2738
14421TIP3   OH264677   3.585   2.136  13.333 -0.7013  0.2045 -0.2314
14421TIP3    H164678   3.535   2.213  13.306 -0.7436  0.5229  0.6922
14421TIP3    H264679   3.522   2.064  13.331 -0.5898  0.1272 -1.3799
14422TIP3   OH264680   0.816   1.394  11.333 -0.2526 -0.5523  0.0099
14422TIP3    H164681   0.809   1.372  11.426 -0.2246 -0.4130  0.0438
14422TIP3    H264682   0.744   1.455  11.317  1.6485  2.0189  0.6802
14423TIP3   OH264683   2.271   0.122   2.282 -0.0655 -0.3255 -0.9695
14423TIP3    H164684   2.347   0.064   2.287  1.0031  1.0852  0.0798
14423TIP3    H264685   2.260   0.155   2.371 -1.7163 -0.2114 -1.1743
14424TIP3   OH264686   2.417   5.564  14.874  0.6606  0.5857  0.1146
14424TIP3    H164687   2.460   5.616  14.943  1.9839 -1.8992  1.3166
14424TIP3    H264688   2.486   5.549  14.809  0.9541 -1.2409  0.7732
14425TIP3   OH264689   4.832   1.265  14.279  0.6432  0.4246  0.7908
14425TIP3    H164690   4.831   1.352  14.240  0.1788  0.0807  0.0079
14425TIP3    H264691   4.823   1.281  14.373  0.0389  1.1971  0.6136
14426TIP3   OH264692   3.288   5.956  14.460 -0.1169  0.1667 -0.0793
14426TIP3    H164693   3.270   6.031  14.517 -0.5916  1.3744 -1.7436
14426TIP3    H264694   3.303   5.995  14.373  0.9740 -1.5703 -0.7207
14427TIP3   OH264695   1.637   5.636   6.689  0.3169  0.1993  0.1146
14427TIP3    H164696   1.733   5.639   6.678  0.3011  0.1179 -0.0525
14427TIP3    H264697   1.606   5.716   6.647  0.3659  0.5749  0.7768
14428TIP3   OH264698   2.881   1.784  13.583  0.2205 -0.2212 -0.2427
14428TIP3    H164699   2.923   1.768  13.498 -0.7852  0.0767 -0.8199
14428TIP3    H264700   2.857   1.697  13.615 -0.2852 -0.2787 -0.7512
14429TIP3   OH264701   3.814   5.234  12.896 -0.4047 -0.7135 -0.3127
14429TIP3    H164702   3.779   5.322  12.883 -0.0054 -0.5550 -0.3400
14429TIP3    H264703   3.791   5.187  12.815 -0.5599 -0.6138 -0.3269
14430TIP3   OH264704   3.086   5.283  15.507 -0.6794 -0.3636  0.3957
14430TIP3    H164705   3.024   5.210  15.498 -0.6827 -0.4381  0.9543
14430TIP3    H264706   3.042   5.357  15.467  0.0086 -1.0344 -1.7079
14431TIP3   OH264707   2.704   1.908   3.339  0.4891  0.5591 -0.4180
14431TIP3    H164708   2.645   1.833   3.341  0.0064  0.9445 -0.2342
14431TIP3    H264709   2.746   1.907   3.425  0.5598  0.4450 -0.4523
14432TIP3   OH264710   4.489   5.930  11.935 -0.4774 -0.0982 -0.1952
14432TIP3    H164711   4.402   5.913  11.970 -1.1190 -0.0921 -1.7218
14432TIP3    H264712   4.530   5.987  12.000 -1.7097  0.1398  0.4038
14433TIP3   OH264713   3.700   6.258  11.557 -0.4778 -0.0779  0.7306
14433TIP3    H164714   3.666   6.337  11.514 -1.0695  1.3614  3.5769
14433TIP3    H264715   3.622   6.204  11.572 -0.7324  0.6741  2.3050
14434TIP3   OH264716   6.303   6.635   0.291  0.0924  0.8645 -0.0200
14434TIP3    H164717   6.307   6.628   0.386 -1.0790 -2.2605 -0.0976
14434TIP3    H264718   6.394   6.650   0.264  0.3203  2.7860  1.5500
14435TIP3   OH264719   0.286   4.561  16.553  0.1088  0.6810  0.0767
14435TIP3    H164720   0.312   4.628  16.489  0.6083  0.7954  0.3921
14435TIP3    H264721   0.296   4.478  16.505 -1.7203  0.8726 -0.7267
14436TIP3   OH264722   4.545   3.326   0.022  0.1310  0.2484  0.1354
14436TIP3    H164723   4.543   3.417   0.051 -0.9917  0.8824 -1.7501
14436TIP3    H264724   4.463   3.289   0.053 -0.4605  0.5555 -1.0004
14437TIP3   OH264725   4.077   1.100  16.580  0.4226 -0.4344 -0.1221
14437TIP3    H164726   4.131   1.035  16.534  2.0425  0.5825  0.2872
14437TIP3    H264727   3.989   1.085  16.546  1.1150 -1.4766 -1.5695
14438TIP3   OH264728   3.638   2.946  12.270  0.1006 -0.1625  0.1100
14438TIP3    H164729   3.598   3.019  12.316  0.9213 -0.1311  0.8010
14438TIP3    H264730   3.593   2.868  12.305  0.4344 -0.1078  0.6840
14439TIP3   OH264731   2.672   4.014   5.298 -0.1664 -0.4296  0.2503
14439TIP3    H164732   2.655   4.089   5.241  0.4143  0.4928  1.2637
14439TIP3    H264733   2.752   3.975   5.263 -0.6265 -0.7588 -0.4512
14440TIP3   OH264734   2.758   0.688   5.849  0.1596  0.5151 -0.3858
14440TIP3    H164735   2.847   0.713   5.827  0.1490 -0.7366 -2.0575
14440TIP3    H264736   2.763   0.594   5.869 -0.5086  0.7996  1.2698
14441TIP3   OH264737   3.936   3.727  10.690  0.0486 -0.1788  0.1243
14441TIP3    H164738   3.887   3.719  10.608  1.3963 -0.1517 -0.7152
14441TIP3    H264739   3.877   3.692  10.757 -1.0081 -0.3701 -0.8767
14442TIP3   OH264740   4.340   3.108   4.729  0.1134  0.0994  0.0098
14442TIP3    H164741   4.324   3.166   4.804  0.9675  0.6202 -0.1916
14442TIP3    H264742   4.398   3.159   4.673  0.2179 -0.6525 -0.5672
14443TIP3   OH264743   1.847   5.192  16.026 -0.0162  0.1527 -0.7729
14443TIP3    H164744   1.900   5.234  16.094 -0.0030  2.5083 -2.1125
14443TIP3    H264745   1.894   5.111  16.005  0.2923 -0.3253  1.5296
14444TIP3   OH264746   5.697   0.633  17.121 -0.0842  0.2709  0.1730
14444TIP3    H164747   5.789   0.653  17.105 -0.2085  0.5421 -0.2151
14444TIP3    H264748   5.659   0.623  17.033 -0.0247 -1.7382  0.3225
14445TIP3   OH264749   6.594   3.896  12.627 -0.6408  0.2501  0.5948
14445TIP3    H164750   6.662   3.955  12.660  0.4777  0.2957 -1.6289
14445TIP3    H264751   6.615   3.811  12.667  1.5498 -0.0314 -0.9364
14446TIP3   OH264752   1.193   3.609  11.352  0.4332  0.4061 -0.1254
14446TIP3    H164753   1.147   3.658  11.420  1.0411  0.6157  0.1423
14446TIP3    H264754   1.246   3.675  11.306  0.1447  0.2408 -0.7050
14447TIP3   OH264755   1.293   1.370  17.109 -1.0884 -0.1444 -0.0329
14447TIP3    H164756   1.308   1.277  17.126  2.8905  0.5099  1.0848
14447TIP3    H264757   1.265   1.406  17.193 -1.3192 -0.1189 -0.1206
14448TIP3   OH264758   5.468   6.348  14.855 -0.1907  0.2021  0.1955
14448TIP3    H164759   5.374   6.353  14.874  0.1072  2.3490  1.4285
14448TIP3    H264760   5.504   6.429  14.892  1.9674  0.0263 -1.3496
14449TIP3   OH264761   4.772   2.526  14.559  0.7274  0.6039 -0.5607
14449TIP3    H164762   4.730   2.485  14.635 -0.9016  2.1329 -0.5509
14449TIP3    H264763   4.793   2.453  14.501 -2.0018 -0.3438 -0.5439
14450TIP3   OH264764   5.518   5.498   3.844  0.3800  0.3797 -0.0007
14450TIP3    H164765   5.552   5.587   3.853  0.1842  0.5439 -0.8419
14450TIP3    H264766   5.432   5.502   3.887  0.7536  0.3547  0.7664
14451TIP3   OH264767   1.989   3.031   2.094 -0.5373 -0.6157  0.0130
14451TIP3    H164768   2.002   3.035   1.999 -1.5488 -0.3791 -0.1310
14451TIP3    H264769   2.066   3.073   2.131  0.3299 -1.5522 -0.6625
14452TIP3   OH264770   4.023   2.178  14.261  0.7677 -0.0345 -0.3206
14452TIP3    H164771   4.098   2.129  14.227  2.1900  0.0471  2.4511
14452TIP3    H264772   3.952   2.114  14.267  1.4113 -0.7648 -0.4677
14453TIP3   OH264773   3.405   3.304   0.252  0.3535  0.0277  0.1927
14453TIP3    H164774   3.449   3.223   0.226  0.3266  0.1102 -0.1038
14453TIP3    H264775   3.466   3.347   0.312  2.2445  1.8551 -2.8143
14454TIP3   OH264776   5.524   4.456   5.683 -0.4444 -0.3492  0.3340
14454TIP3    H164777   5.506   4.543   5.648  0.5270 -0.2190  0.1264
14454TIP3    H264778   5.551   4.473   5.774  0.8439 -0.3074 -0.0352
14455TIP3   OH264779   4.935   3.079   4.332  0.1136 -0.7137  0.5768
14455TIP3    H164780   4.957   3.172   4.339  0.2783 -0.7247  0.2017
14455TIP3    H264781   4.873   3.064   4.403  0.6202 -0.4763  1.0782
14456TIP3   OH264782   6.193   2.690   2.781  0.3820 -0.1364  0.5305
14456TIP3    H164783   6.121   2.752   2.770 -1.2406 -1.5536  2.4504
14456TIP3    H264784   6.193   2.639   2.700  0.3930  0.9712 -0.1982
14457TIP3   OH264785   4.800   6.370  12.462  0.0408 -0.5913 -0.1065
14457TIP3    H164786   4.771   6.368  12.553 -0.6201 -0.6327 -0.3130
14457TIP3    H264787   4.720   6.355  12.411  0.0678  1.3233 -0.7716
14458TIP3   OH264788   6.475   0.271  11.363  0.0541 -0.5294 -0.5449
14458TIP3    H164789   6.438   0.234  11.283 -1.3332 -0.4306  0.0155
14458TIP3    H264790   6.400   0.276  11.423  0.9273  0.0307  0.5217
14459TIP3   OH264791   1.718   6.151   5.506  0.1514  0.5391 -0.8566
14459TIP3    H164792   1.803   6.166   5.546  0.5122  0.8201 -1.7104
14459TIP3    H264793   1.672   6.234   5.515 -0.5755  0.0055  0.8220
14460TIP3   OH264794   2.009   1.915  11.060 -0.1513 -0.2032 -0.2463
14460TIP3    H164795   1.971   1.827  11.052  2.1526 -1.2651 -0.3334
14460TIP3    H264796   1.982   1.960  10.980 -0.2124 -1.3000 -0.8594
14461TIP3   OH264797   5.484   3.509  12.576 -0.3715 -0.0665 -0.7481
14461TIP3    H164798   5.550   3.450  12.613  0.2839  1.7454  1.1878
14461TIP3    H264799   5.513   3.523  12.485  2.6604  1.5032  0.3138
14462TIP3   OH264800   5.062   1.265  16.950 -0.0212 -0.1295 -0.6092
14462TIP3    H164801   5.125   1.332  16.977 -0.5572 -0.4216  1.5988
14462TIP3    H264802   5.107   1.182  16.966 -0.3989 -0.3148 -0.4933
14463TIP3   OH264803   2.449   4.338  13.749 -0.2478  0.3574 -0.5639
14463TIP3    H164804   2.480   4.355  13.661  0.6606  2.0267  0.0374
14463TIP3    H264805   2.442   4.424  13.790 -0.7635 -0.3581  0.9692
14464TIP3   OH264806   0.911   4.850  13.323 -1.3493 -0.4114 -0.1231
14464TIP3    H164807   0.900   4.945  13.328 -4.9123 -0.3912 -3.6057
14464TIP3    H264808   0.943   4.834  13.234 -0.1043 -2.5252  0.6206
14465TIP3   OH264809   3.883   4.320  13.145  0.1750 -0.2702 -0.2103
14465TIP3    H164810   3.932   4.320  13.227  0.6568  0.0209 -0.4951
14465TIP3    H264811   3.794   4.345  13.171  0.8199  2.1196 -0.0356
14466TIP3   OH264812   5.563   5.971  15.900 -0.3637  1.0591 -0.3547
14466TIP3    H164813   5.634   6.025  15.933 -1.0102  1.9720 -0.4263
14466TIP3    H264814   5.483   6.015  15.929 -1.0043 -1.6685  2.6601
14467TIP3   OH264815   4.583   5.742  15.821  0.4398  0.3495  0.5429
14467TIP3    H164816   4.552   5.751  15.911  0.8087 -0.2133  0.7317
14467TIP3    H264817   4.678   5.750  15.827  0.4581  0.4574  0.1793
14468TIP3   OH264818   1.623   4.503   2.206 -0.1709  0.1980  0.0658
14468TIP3    H164819   1.552   4.472   2.150 -2.9399  0.5767  3.0911
14468TIP3    H264820   1.620   4.598   2.197  0.4774  0.1893 -0.3192
14469TIP3   OH264821   3.202   3.049   6.368 -0.7376  0.7934 -0.2329
14469TIP3    H164822   3.112   3.051   6.400 -0.8828  0.6499 -0.6233
14469TIP3    H264823   3.250   3.000   6.435 -0.8619  1.2245  0.1809
14470TIP3   OH264824   2.931   1.135   5.513  0.4101  0.6844 -0.1909
14470TIP3    H164825   2.976   1.165   5.434  0.3607  0.5241 -0.2818
14470TIP3    H264826   2.943   1.205   5.576  0.5863  0.7455 -0.2918
14471TIP3   OH264827   3.795   0.502  15.798 -0.0466 -0.2290  0.5160
14471TIP3    H164828   3.888   0.479  15.790 -0.1763 -0.3629 -0.7383
14471TIP3    H264829   3.793   0.572  15.864  0.9152 -0.3838  0.7190
14472TIP3   OH264830   3.445   3.767   3.537  0.4253  0.3122 -0.7571
14472TIP3    H164831   3.397   3.828   3.594 -0.0593  0.8378 -1.6992
14472TIP3    H264832   3.393   3.763   3.457  0.7843 -0.8799 -0.9491
14473TIP3   OH264833   2.111   4.426  13.851 -0.5164 -0.5249  0.0332
14473TIP3    H164834   2.039   4.440  13.912 -1.0527 -0.0181 -0.6906
14473TIP3    H264835   2.119   4.509  13.804  1.4522 -0.0897  1.0157
14474TIP3   OH264836   5.139   3.628   3.938 -0.2688 -0.6451  0.1004
14474TIP3    H164837   5.118   3.593   3.851  0.1984 -1.0104  0.1329
14474TIP3    H264838   5.235   3.631   3.940 -0.2869  0.2370  0.2553
14475TIP3   OH264839   3.496   0.024   4.164  0.0733  0.5783  0.0388
14475TIP3    H164840   3.436  -0.026   4.108 -0.8184 -0.2999  1.6819
14475TIP3    H264841   3.528   0.095   4.108 -0.2591 -0.6204 -1.7460
14476TIP3   OH264842   2.043   5.005   2.408  0.0366 -0.1282 -0.6942
14476TIP3    H164843   2.079   5.091   2.384  1.6513 -0.9794 -1.5319
14476TIP3    H264844   1.948   5.016   2.403  0.1727  1.8391  0.1070
14477TIP3   OH264845   5.881   1.969  16.281  0.1360 -0.1216 -0.4418
14477TIP3    H164846   5.939   2.044  16.293  1.2608 -1.0237 -0.0526
14477TIP3    H264847   5.863   1.938  16.370 -0.9266  0.1179 -0.5595
14478TIP3   OH264848   4.072   1.795  16.009 -0.4481  0.1350  0.1078
14478TIP3    H164849   4.155   1.758  16.039  0.4725  2.2649  0.3028
14478TIP3    H264850   4.087   1.816  15.916 -0.7887  0.4663  0.1242
14479TIP3   OH264851   5.019   3.185  16.504  0.2217 -0.1898  0.3508
14479TIP3    H164852   4.980   3.202  16.589 -1.7967  0.0323 -0.5752
14479TIP3    H264853   4.966   3.235  16.442  1.1473 -0.9778 -1.1370
14480TIP3   OH264854   0.476   5.062   5.362  0.3425 -0.9306  0.5230
14480TIP3    H164855   0.560   5.098   5.333 -0.3986 -1.1951 -2.1618
14480TIP3    H264856   0.500   4.997   5.429  2.0444  0.7106  1.6244
14481TIP3   OH264857   5.735   4.760   1.693  0.2278 -0.1453 -0.2170
14481TIP3    H164858   5.723   4.841   1.645 -0.8299 -0.6427 -0.8291
14481TIP3    H264859   5.730   4.786   1.785 -2.4503  0.2239 -0.3760
14482TIP3   OH264860   4.846   1.036  16.269 -0.6172  0.2518 -0.4786
14482TIP3    H164861   4.796   1.013  16.191 -1.7337 -0.8777  0.5295
14482TIP3    H264862   4.781   1.067  16.331  0.2509  1.0831  0.0458
14483TIP3   OH264863   4.984   2.279  12.529  0.5288  0.9708 -0.1437
14483TIP3    H164864   4.997   2.355  12.585  0.1724 -0.1219  1.5113
14483TIP3    H264865   5.040   2.212  12.566  0.6629  0.3398 -1.4265
14484TIP3   OH264866   0.422   0.172  13.769 -0.2412 -0.1212  0.3716
14484TIP3    H164867   0.346   0.225  13.791 -0.5775 -0.1910 -0.5700
14484TIP3    H264868   0.431   0.180  13.674  0.1987 -1.0833  0.3111
14485TIP3   OH264869   1.826   6.060   0.468  0.1281 -0.0310 -0.4418
14485TIP3    H164870   1.887   6.126   0.438 -0.1530  0.6531  0.4397
14485TIP3    H264871   1.862   6.031   0.552  0.3403 -1.1329 -0.8957
14486TIP3   OH264872   6.707   1.775   3.185  0.1628  0.2111  0.4117
14486TIP3    H164873   6.703   1.859   3.139  0.9299 -0.4155 -0.8866
14486TIP3    H264874   6.616   1.748   3.194 -0.0251 -0.6300 -2.7463
14487TIP3   OH264875   3.785   2.139  11.887  0.2522  0.0895  0.0025
14487TIP3    H164876   3.863   2.157  11.834  0.6005 -2.6894 -0.5765
14487TIP3    H264877   3.817   2.136  11.977  1.2219 -2.4594 -0.3398
14488TIP3   OH264878   4.068   4.457  11.070  0.0107 -0.2412  0.3627
14488TIP3    H164879   4.000   4.511  11.031  0.3117 -0.2364 -0.1638
14488TIP3    H264880   4.036   4.439  11.158 -1.2217 -1.2112 -0.2484
14489TIP3   OH264881   3.177   4.669   5.170  0.5164  0.0838 -0.0708
14489TIP3    H164882   3.193   4.625   5.087  2.1116  1.2081 -0.4028
14489TIP3    H264883   3.197   4.761   5.154  0.5675  0.3821  1.4652
14490TIP3   OH264884   2.233   4.081  14.087  0.2408  0.1388  0.4263
14490TIP3    H164885   2.285   4.021  14.141  0.6205 -0.0478 -0.1313
14490TIP3    H264886   2.213   4.154  14.144  0.2573 -0.2603  0.9512
14491TIP3   OH264887   2.567   0.456  13.127  0.1065  0.2839 -0.2243
14491TIP3    H164888   2.505   0.443  13.199 -0.3513  0.3624 -0.5983
14491TIP3    H264889   2.648   0.482  13.170 -0.2359  0.5946  0.2462
14492TIP3   OH264890   6.102   4.773   2.160  0.5251 -0.7246  0.9540
14492TIP3    H164891   6.038   4.709   2.130 -1.4058  2.2623 -2.0634
14492TIP3    H264892   6.072   4.799   2.247 -1.8106 -0.1593  0.0296
14493TIP3   OH264893   1.033   2.277  12.249 -0.1266  0.2293 -0.4431
14493TIP3    H164894   1.090   2.201  12.240  1.6562  1.3883  0.5490
14493TIP3    H264895   0.991   2.285  12.163  1.0623 -0.7810 -1.1609
14494TIP3   OH264896   4.455   2.345  16.992  0.1691  0.2524 -0.3666
14494TIP3    H164897   4.500   2.394  17.060 -0.5187  0.9615 -0.4172
14494TIP3    H264898   4.364   2.373  16.998 -0.3656 -1.4360 -0.0119
14495TIP3   OH264899   6.513   1.793  15.486  0.1029 -0.2360 -0.2858
14495TIP3    H164900   6.526   1.718  15.544 -3.0289 -0.4100  0.3764
14495TIP3    H264901   6.505   1.868  15.544  1.1823  0.3345 -0.8269
14496TIP3   OH264902   4.189   4.917  13.661 -0.1405 -0.3103  0.1673
14496TIP3    H164903   4.276   4.930  13.699  1.0220  1.8251 -2.8069
14496TIP3    H264904   4.190   4.827  13.628  1.6369  0.1842 -1.2677
14497TIP3   OH264905   2.434   1.269   0.836 -0.0164 -0.8862 -0.7649
14497TIP3    H164906   2.458   1.201   0.898  0.9410  0.4375  0.3809
14497TIP3    H264907   2.497   1.262   0.765  0.0094 -1.2639 -0.7027
14498TIP3   OH264908   0.052   1.493   4.906  0.3669  0.2258  0.5160
14498TIP3    H164909  -0.040   1.516   4.919 -0.1740 -1.6699  0.2942
14498TIP3    H264910   0.067   1.509   4.813  0.2243  0.4338  0.5284
14499TIP3   OH264911   3.944   1.571   0.808  0.3216  0.2378 -0.1246
14499TIP3    H164912   4.031   1.607   0.828  0.0147  0.2963  1.1902
14499TIP3    H264913   3.928   1.506   0.876 -0.6076  0.1162 -0.4410
14500TIP3   OH264914   2.431   6.547   3.474  0.0610  0.3941 -0.2823
14500TIP3    H164915   2.384   6.630   3.465  0.0326  0.6210  1.5830
14500TIP3    H264916   2.362   6.481   3.483  0.0944  0.2934 -0.7278
14501TIP3   OH264917   5.988   2.592  14.298  0.1196  0.0664  0.5982
14501TIP3    H164918   6.082   2.598  14.282  0.1084  1.3139  0.8626
14501TIP3    H264919   5.948   2.621  14.216 -0.0182  0.2204  0.7178
14502TIP3   OH264920   6.218   6.006   3.619  0.5602 -0.1197  0.3803
14502TIP3    H164921   6.157   6.023   3.691 -0.5671 -1.1990 -0.2780
14502TIP3    H264922   6.279   6.080   3.622 -1.2477  1.4574  0.5922
14503TIP3   OH264923   2.274   3.535  13.463 -0.1879 -0.1052 -0.2884
14503TIP3    H164924   2.226   3.455  13.486  0.4631 -0.4882 -0.2126
14503TIP3    H264925   2.281   3.584  13.544  2.5347 -1.6818  0.5679
14504TIP3   OH264926   4.206   6.127   2.985 -0.3476 -0.1564  0.3131
14504TIP3    H164927   4.231   6.055   2.927  0.3444  0.2614  0.0903
14504TIP3    H264928   4.185   6.084   3.069 -0.5418 -0.6743  0.0037
14505TIP3   OH264929   2.183   2.794   4.376  0.6324 -0.8490 -0.4744
14505TIP3    H164930   2.230   2.733   4.433 -0.4389 -0.5532  0.7540
14505TIP3    H264931   2.090   2.774   4.390  0.2980  0.2330 -1.0021
14506TIP3   OH264932   3.244   3.042   3.746  0.0562  0.3460  0.0578
14506TIP3    H164933   3.339   3.047   3.754  0.1573 -2.2595  1.5236
14506TIP3    H264934   3.211   3.100   3.814  0.6408 -0.0652  0.7038
14507TIP3   OH264935   6.214   1.647  13.480  0.8301  0.1595 -0.2509
14507TIP3    H164936   6.247   1.725  13.435  0.1185  1.2286  1.0162
14507TIP3    H264937   6.285   1.620  13.538  1.0695 -0.1446 -0.6765
14508TIP3   OH264938   1.944   0.182  11.166  0.1886  0.2755 -0.0123
14508TIP3    H164939   1.930   0.178  11.261  1.3485  0.6560  0.1874
14508TIP3    H264940   1.860   0.211  11.131 -1.1989 -2.6176  0.5875
14509TIP3   OH264941   0.146   6.578  13.829 -0.2577  0.6281  0.0278
14509TIP3    H164942   0.239   6.600  13.837 -0.6952  2.2637  1.2441
14509TIP3    H264943   0.133   6.504  13.887 -0.0660  1.6612  1.4364
14510TIP3   OH264944   3.153   6.217  12.559 -0.1511 -0.0668  0.0006
14510TIP3    H164945   3.082   6.281  12.558 -0.3369 -0.2728 -0.3615
14510TIP3    H264946   3.169   6.198  12.466  0.2068 -0.2072  0.0902
14511TIP3   OH264947   3.617   0.319   1.405 -0.3339  0.6000 -0.3351
14511TIP3    H164948   3.695   0.333   1.351  0.0836 -0.7185 -0.1174
14511TIP3    H264949   3.583   0.234   1.376 -0.6898  0.3508  0.7776
14512TIP3   OH264950   3.524   1.892  16.311 -0.0185  0.0930 -0.0304
14512TIP3    H164951   3.538   1.804  16.278 -0.5451 -0.5120  1.2712
14512TIP3    H264952   3.609   1.919  16.347  0.0289 -0.0636 -0.0264
14513TIP3   OH264953   6.218   3.797   3.420  0.4868  0.3920  0.4693
14513TIP3    H164954   6.158   3.823   3.489 -0.2778  0.1569 -0.0919
14513TIP3    H264955   6.274   3.873   3.407 -0.8951  1.3264 -0.2708
14514TIP3   OH264956   0.315   4.624  12.373 -0.1342  0.5440 -0.5788
14514TIP3    H164957   0.317   4.700  12.314  1.4769 -0.0757 -1.3925
14514TIP3    H264958   0.238   4.638  12.428 -0.6647  2.0590 -1.6373
14515TIP3   OH264959   2.158   6.068  17.120  0.7805  0.6184  0.1360
14515TIP3    H164960   2.251   6.079  17.137  0.7827  1.2720 -0.2423
14515TIP3    H264961   2.121   6.156  17.128  0.1424  0.3202  0.5710
14516TIP3   OH264962   3.787   6.064  12.153 -0.2813 -0.4096  1.0993
14516TIP3    H164963   3.747   6.041  12.237 -0.4087  0.6946  1.3590
14516TIP3    H264964   3.862   6.118  12.177 -0.7940  0.6019  0.4879
14517TIP3   OH264965   0.449   1.853  16.988  0.6279  0.1040  0.1234
14517TIP3    H164966   0.381   1.786  16.982 -0.3288  0.9489  0.8816
14517TIP3    H264967   0.493   1.835  17.071  1.1204 -0.2503 -0.2133
14518TIP3   OH264968   4.256   3.382   0.859  0.3018  0.1146 -0.1290
14518TIP3    H164969   4.164   3.389   0.886  0.3827  1.2627 -0.0960
14518TIP3    H264970   4.297   3.330   0.928 -0.3990 -0.7478 -0.3446
14519TIP3   OH264971   3.904   3.378   0.383 -0.5075 -0.3961 -0.6381
14519TIP3    H164972   3.937   3.427   0.307 -0.2658  0.1875 -0.1707
14519TIP3    H264973   3.890   3.445   0.450  0.0815 -1.0063  0.1095
14520TIP3   OH264974   5.431   5.810   2.958 -0.3004 -0.5826 -0.3061
14520TIP3    H164975   5.496   5.832   2.891  1.6411  1.8503  2.1462
14520TIP3    H264976   5.360   5.873   2.944  1.4884  2.0543  1.6059
14521TIP3   OH264977   5.441   4.213   4.711 -0.1365  0.0318 -0.0624
14521TIP3    H164978   5.362   4.164   4.735  0.6117 -1.4465 -0.4804
14521TIP3    H264979   5.430   4.232   4.618 -0.3339  0.5051  0.0538
14522TIP3   OH264980   3.421   5.303  16.136  0.4689 -0.3515 -0.6689
14522TIP3    H164981   3.436   5.210  16.118 -0.9263 -0.6434 -0.3999
14522TIP3    H264982   3.346   5.327  16.082 -0.5255  0.0669  0.8335
14523TIP3   OH264983   5.209   5.605  10.911 -0.2501  0.1355 -0.1432
14523TIP3    H164984   5.226   5.545  10.839  1.9152 -0.2771  0.6290
14523TIP3    H264985   5.252   5.686  10.885  1.1002 -0.2065  0.8953
14524TIP3   OH264986   4.298   1.708  12.927 -0.3368  0.2520 -0.7255
14524TIP3    H164987   4.358   1.636  12.947 -0.3095  0.1531 -1.1614
14524TIP3    H264988   4.245   1.676  12.854 -2.1922 -0.3923  0.8103
14525TIP3   OH264989   5.847   5.936   5.579  0.1670  0.3021 -0.3972
14525TIP3    H164990   5.924   5.993   5.583  0.3399  0.0647 -0.3489
14525TIP3    H264991   5.787   5.981   5.520  1.1073 -0.4463 -1.9916
14526TIP3   OH264992   1.686   2.029  15.842 -0.0223 -0.4225 -0.0322
14526TIP3    H164993   1.753   1.989  15.897 -0.3137 -0.1636  0.5235
14526TIP3    H264994   1.617   1.963  15.836  0.1309 -0.5546 -0.3083
14527TIP3   OH264995   1.321   3.317   0.226 -0.0995  0.1534 -0.1325
14527TIP3    H164996   1.279   3.387   0.275  1.6542  0.6928  0.6929
14527TIP3    H264997   1.268   3.307   0.147 -2.4970 -0.1527  1.4324
14528TIP3   OH264998   1.640   3.743   1.944 -0.4622  0.4847  0.3035
14528TIP3    H164999   1.701   3.807   1.979 -0.2081 -0.3949  1.5444
14528TIP3    H265000   1.664   3.735   1.851  1.3336  0.1667  0.7520
14529TIP3   OH265001   5.953   6.230  16.245 -0.2813  0.4048  0.1275
14529TIP3    H165002   5.864   6.251  16.216 -0.7090 -0.2780  0.8968
14529TIP3    H265003   5.971   6.291  16.316 -1.1202 -1.0564  1.6533
14530TIP3   OH265004   4.548   0.237  14.532 -0.0892 -0.2084 -0.0031
14530TIP3    H165005   4.560   0.289  14.453 -1.3478 -0.1564 -0.1781
14530TIP3    H265006   4.533   0.148  14.500  3.7170 -1.1272  0.3259
14531TIP3   OH265007   2.912   4.452   5.568  0.0316 -0.4995 -0.3039
14531TIP3    H165008   2.859   4.463   5.647 -0.2327 -0.2888 -0.5088
14531TIP3    H265009   2.936   4.541   5.543 -0.6896 -0.5032 -1.0094
14532TIP3   OH265010   3.220   3.222  13.603  0.1032  0.0582  0.6574
14532TIP3    H165011   3.175   3.293  13.648 -1.4443 -0.6405  0.2926
14532TIP3    H265012   3.150   3.160  13.580  1.1843 -0.8034 -0.4543
14533TIP3   OH265013   3.594   6.396   3.044 -0.2736 -0.0658  0.2666
14533TIP3    H165014   3.608   6.311   3.088 -1.6289 -0.0952  0.7062
14533TIP3    H265015   3.655   6.455   3.088  1.4015 -0.9944 -0.7088
14534TIP3   OH265016   0.634   0.265   1.249 -0.2168 -0.2280  0.3319
14534TIP3    H165017   0.643   0.327   1.177 -1.3837  0.1658  0.5103
14534TIP3    H265018   0.540   0.254   1.260 -0.0414 -1.8044  0.5111
14535TIP3   OH265019   4.614   3.743  14.415  1.0609 -0.0245  0.5110
14535TIP3    H165020   4.623   3.694  14.333  0.6956  0.9474 -0.1250
14535TIP3    H265021   4.532   3.792  14.406  2.2169  2.0281  0.3674
14536TIP3   OH265022   6.301   3.106  14.612  0.4020  0.0598  0.3531
14536TIP3    H165023   6.278   3.024  14.568  1.8556 -1.4878  2.2809
14536TIP3    H265024   6.235   3.115  14.682  0.3569  0.4369  0.2634
14537TIP3   OH265025   6.325   0.903  16.618  0.0672  0.1624 -0.1630
14537TIP3    H165026   6.244   0.858  16.596  1.1364 -1.3121 -1.3167
14537TIP3    H265027   6.367   0.921  16.534  0.4762  1.8666  0.3572
14538TIP3   OH265028   4.860   1.074  11.976  0.6442 -0.4547 -0.4715
14538TIP3    H165029   4.897   1.140  11.917  2.2776 -0.7066  0.2196
14538TIP3    H265030   4.929   1.057  12.039 -0.8013 -0.7201  1.1203
14539TIP3   OH265031   3.021   2.747  12.299 -0.0616 -0.4272  0.0940
14539TIP3    H165032   2.950   2.695  12.336  0.3320 -1.3525 -0.4095
14539TIP3    H265033   3.025   2.720  12.207 -1.2608  2.0768 -0.7558
14540TIP3   OH265034   0.229   0.351  13.788 -0.3403  0.6622 -0.2127
14540TIP3    H165035   0.153   0.400  13.819 -0.0587 -0.9846  3.6190
14540TIP3    H265036   0.288   0.418  13.753 -2.8154  2.1379 -1.8657
14541TIP3   OH265037   5.532   5.070   1.663 -0.1373 -0.2159  0.3852
14541TIP3    H165038   5.471   5.133   1.624  0.3551 -1.2702 -2.3190
14541TIP3    H265039   5.616   5.089   1.622  0.9931 -0.0095  2.6492
14542TIP3   OH265040   5.338   2.671  12.458  0.1647  0.1390 -0.4593
14542TIP3    H165041   5.292   2.593  12.425  1.1523  0.1781 -2.0394
14542TIP3    H265042   5.327   2.736  12.388  0.0494  1.1639  0.4836
14543TIP3   OH265043   1.928   3.298   5.942 -0.2057  0.1416  0.6419
14543TIP3    H165044   1.984   3.297   6.019 -0.6447  2.9173  1.0845
14543TIP3    H265045   1.930   3.388   5.911 -0.0802 -0.8309 -2.6334
14544TIP3   OH265046   1.829   4.543  14.826  0.0753  0.0226  0.1493
14544TIP3    H165047   1.753   4.597  14.845  0.4127  1.2190 -1.6435
14544TIP3    H265048   1.799   4.453  14.841 -2.1938  0.3336 -1.8899
14545TIP3   OH265049   6.536   6.081  12.685 -0.2964 -0.7223  0.3586
14545TIP3    H165050   6.580   6.137  12.749  0.5805 -1.6477  0.5985
14545TIP3    H265051   6.524   5.998  12.731  0.7752 -1.5597 -0.8124
14546TIP3   OH265052   3.211   5.215   3.753 -0.0670 -0.2303  0.4321
14546TIP3    H165053   3.220   5.163   3.672 -0.1042 -0.3987  0.5368
14546TIP3    H265054   3.117   5.220   3.768 -0.0143 -1.5345  1.3272
14547TIP3   OH265055   2.349   6.252   2.775 -0.6733  0.5249  0.6850
14547TIP3    H165056   2.439   6.285   2.784 -0.2109 -0.4925 -0.0200
14547TIP3    H265057   2.298   6.303   2.838  0.4052  1.0788  1.1310
14548TIP3   OH265058   1.438   1.034   3.221  0.1572 -0.0423  0.1626
14548TIP3    H165059   1.401   1.005   3.305  1.5945  0.9870  1.2044
14548TIP3    H265060   1.514   0.979   3.208 -0.1159 -0.2592 -0.5288
14549TIP3   OH265061   6.503   2.170  14.156 -0.3428 -0.0930  0.4948
14549TIP3    H165062   6.457   2.174  14.240 -2.0971  1.1745 -0.4605
14549TIP3    H265063   6.577   2.230  14.168 -1.1077  0.8219  0.8730
14550TIP3   OH265064   1.506   6.304  13.445 -0.1662  0.0312 -0.0052
14550TIP3    H165065   1.557   6.338  13.519 -0.2269 -0.9060  0.4864
14550TIP3    H265066   1.536   6.355  13.370 -0.9883  1.8651  0.8471
14551TIP3   OH265067   1.124   0.087   3.849 -0.1292  0.2823  0.0017
14551TIP3    H165068   1.146   0.044   3.766 -0.2970  1.3163 -0.6067
14551TIP3    H265069   1.061   0.155   3.824  2.3110  2.8583  0.4122
14552TIP3   OH265070   5.858   4.224  11.718  0.3564  0.2472  0.2572
14552TIP3    H165071   5.804   4.268  11.652 -0.5456 -0.3800  0.5560
14552TIP3    H265072   5.924   4.177  11.667 -0.0902  0.0895 -0.1893
14553TIP3   OH265073   1.571   5.576   5.182  0.5679 -0.3494 -0.0535
14553TIP3    H165074   1.500   5.519   5.154  0.2640 -0.5692  1.1171
14553TIP3    H265075   1.528   5.647   5.231  1.0231  0.3585 -0.6504
14554TIP3   OH265076   5.422   0.420   4.199  0.2469  0.5067 -0.3829
14554TIP3    H165077   5.352   0.396   4.259  0.9837  0.1129  0.3366
14554TIP3    H265078   5.377   0.446   4.118 -0.7464  0.8516  0.2673
14555TIP3   OH265079   6.183   6.451  12.326  0.1137 -0.5606  0.1580
14555TIP3    H165080   6.272   6.423  12.305 -0.1864 -2.0132  0.7681
14555TIP3    H265081   6.130   6.371  12.320 -1.0895  0.2058  0.1921
14556TIP3   OH265082   3.351   2.411   6.067  0.2954 -0.0550  0.0504
14556TIP3    H165083   3.278   2.356   6.041  0.5470 -1.0110  1.2790
14556TIP3    H265084   3.419   2.350   6.096  1.3119  0.8342 -0.3630
14557TIP3   OH265085   5.589   6.678  13.752 -0.0488  0.0847  0.3343
14557TIP3    H165086   5.664   6.668  13.810  0.0180  0.6785  0.3541
14557TIP3    H265087   5.601   6.611  13.685  0.1213 -0.2920  0.7338
14558TIP3   OH265088   1.538   5.700   2.147  0.2390 -0.5564  0.0504
14558TIP3    H165089   1.547   5.609   2.176  1.9183 -0.4636 -0.0643
14558TIP3    H265090   1.557   5.752   2.225  1.9157 -0.3170 -0.4808
14559TIP3   OH265091   2.945   4.079  13.767  0.1271  0.5402  0.1530
14559TIP3    H165092   2.885   4.154  13.771 -2.3983 -1.3606  0.2319
14559TIP3    H265093   2.987   4.086  13.682 -1.5363  1.0281 -0.6608
14560TIP3   OH265094   0.261   3.520   1.473 -0.0363  0.0783  0.2340
14560TIP3    H165095   0.248   3.468   1.394 -1.2525 -0.3754  0.7091
14560TIP3    H265096   0.284   3.456   1.541  0.7766  0.4360  0.3038
14561TIP3   OH265097   3.389   3.121   2.280 -0.0428  0.1466  0.3548
14561TIP3    H165098   3.334   3.094   2.354  0.0016  2.5243  1.3578
14561TIP3    H265099   3.332   3.113   2.204 -1.6039  1.7474  1.2671
14562TIP3   OH265100   2.467   3.771  16.591  0.7552 -0.3463 -0.4666
14562TIP3    H165101   2.476   3.809  16.503  0.1279 -0.2192 -0.4804
14562TIP3    H265102   2.389   3.717  16.586  1.5533 -1.5532 -0.4005
14563TIP3   OH265103   3.181   3.569  13.570 -0.2782  0.0004  0.3149
14563TIP3    H165104   3.119   3.615  13.626  0.1462 -0.8949  1.5647
14563TIP3    H265105   3.249   3.633  13.551  0.1452  0.0254  1.7738
14564TIP3   OH265106   0.781   1.004   6.185 -0.3699 -0.7143  0.5087
14564TIP3    H165107   0.859   0.951   6.201 -0.0665 -0.1726  0.8305
14564TIP3    H265108   0.801   1.089   6.224 -1.4623 -0.8459  1.3844
14565TIP3   OH265109   1.690   5.344   5.329 -0.0015  0.0792 -0.6325
14565TIP3    H165110   1.746   5.320   5.255  0.2322  1.2670 -0.8505
14565TIP3    H265111   1.643   5.422   5.300 -0.7135 -0.0683  0.0844
14566TIP3   OH265112   2.892   1.835  15.695  0.2394  0.2729  0.6410
14566TIP3    H165113   2.851   1.763  15.646  1.0083 -0.0174  0.4017
14566TIP3    H265114   2.986   1.823  15.681  0.3927  1.1873  0.8016
14567TIP3   OH265115   5.559   5.711  12.406 -0.4433  0.0680  0.8273
14567TIP3    H165116   5.632   5.770  12.386 -0.9561  0.0580 -1.2504
14567TIP3    H265117   5.592   5.624  12.384 -1.0214  0.0476  0.0077
14568TIP3   OH265118   3.209   2.472   3.446  0.0297 -0.3501  0.0143
14568TIP3    H165119   3.224   2.479   3.352  0.2260  2.0999  0.1593
14568TIP3    H265120   3.260   2.543   3.484 -0.9762 -0.5432  1.8608
14569TIP3   OH265121   3.874   2.872  13.029  0.2937  0.0184  0.1164
14569TIP3    H165122   3.856   2.872  12.934  1.8598 -3.3159 -0.3157
14569TIP3    H265123   3.960   2.832  13.037  0.2429  0.2910  3.0143
14570TIP3   OH265124   3.669   6.429  11.835 -0.6654 -0.0412 -0.8862
14570TIP3    H165125   3.712   6.509  11.806 -0.9473  0.1072 -0.8880
14570TIP3    H265126   3.601   6.413  11.771  0.1600 -0.9406 -1.5665
14571TIP3   OH265127   0.957   3.179   5.712  1.0148 -0.2393  0.8895
14571TIP3    H165128   1.039   3.130   5.713  0.9962 -0.2800  2.3500
14571TIP3    H265129   0.891   3.116   5.742  0.6736  0.1567  0.9783
14572TIP3   OH265130   5.281   6.653  12.842 -0.4825  0.6283  0.1174
14572TIP3    H165131   5.189   6.671  12.865 -0.4494  0.1260  0.6549
14572TIP3    H265132   5.316   6.605  12.917  0.4012  1.3476  0.1806
14573TIP3   OH265133   1.963   2.623   4.500 -0.5480  0.4504  0.4711
14573TIP3    H165134   1.984   2.580   4.417 -1.5938 -1.2903  1.0589
14573TIP3    H265135   1.868   2.615   4.508 -0.5118  0.9436  1.6606
14574TIP3   OH265136   2.660   0.053   2.079 -0.7842 -0.5960 -0.6338
14574TIP3    H165137   2.614   0.108   2.015 -0.0868 -1.9689 -2.3809
14574TIP3    H265138   2.751   0.082   2.075 -0.7990 -0.4563  0.0005
14575TIP3   OH265139   5.005   6.001  13.990  0.4356  0.2175 -0.2945
14575TIP3    H165140   5.065   6.057  13.941 -0.7262  2.1127  0.3704
14575TIP3    H265141   4.950   5.960  13.923  3.4631 -3.0244 -1.1134
14576TIP3   OH265142   3.908   2.016  16.649  0.8094  0.1665 -0.5262
14576TIP3    H165143   4.003   2.007  16.639  0.7977  0.0987 -0.5735
14576TIP3    H265144   3.897   2.059  16.734  0.9388  1.4634 -1.1312
14577TIP3   OH265145   5.134   6.756  13.171  0.1182 -0.6551 -0.0493
14577TIP3    H165146   5.060   6.792  13.121  0.3696  2.7975  1.7442
14577TIP3    H265147   5.095   6.722  13.252  0.3405  0.0021  0.3410
14578TIP3   OH265148   5.534   3.357  11.600 -0.3340  0.2365 -0.1052
14578TIP3    H165149   5.586   3.326  11.675 -0.5663  0.0146 -0.0339
14578TIP3    H265150   5.598   3.398  11.542 -0.2801  1.2494  0.6421
14579TIP3   OH265151   0.042   4.419   6.223  0.2571  0.7258  0.0437
14579TIP3    H165152   0.112   4.463   6.174  1.8412 -1.1132  0.5225
14579TIP3    H265153   0.081   4.401   6.309  0.0030 -2.1976 -0.3531
14580TIP3   OH265154   2.186   3.157  14.383  0.5677 -0.1771  0.2414
14580TIP3    H165155   2.270   3.176  14.425  1.0810 -3.0974  0.7111
14580TIP3    H265156   2.123   3.159  14.455  0.5168  0.2536  0.1885
14581TIP3   OH265157   5.613   4.163   3.805  0.0980  0.1855 -0.5382
14581TIP3    H165158   5.542   4.220   3.834  0.5251  1.1932 -1.4187
14581TIP3    H265159   5.569   4.084   3.773 -0.5011  0.0190  0.6285
14582TIP3   OH265160   4.000   4.855  16.681  0.0326 -0.0715 -0.1023
14582TIP3    H165161   4.074   4.907  16.713 -0.6037 -0.2167  1.7206
14582TIP3    H265162   4.026   4.764  16.695 -0.7267 -0.1112  1.1807
14583TIP3   OH265163   6.587   0.290  13.505 -0.3268 -0.2380  0.2803
14583TIP3    H165164   6.628   0.260  13.586 -0.7462  0.2038  0.6682
14583TIP3    H265165   6.660   0.320  13.451 -0.0860  0.0853  0.7660
14584TIP3   OH265166   2.347   4.867   4.423  0.7879 -0.0254  0.1036
14584TIP3    H165167   2.375   4.898   4.337  2.1042 -1.3046  0.0176
14584TIP3    H265168   2.254   4.889   4.428  0.5384 -0.4332 -1.8915
14585TIP3   OH265169   4.767   3.165   5.101 -0.3952 -0.8152 -0.1419
14585TIP3    H165170   4.772   3.118   5.184  0.3686 -3.0656 -1.3764
14585TIP3    H265171   4.858   3.176   5.074 -0.6234  0.1214 -0.5890
14586TIP3   OH265172   3.026   0.088   3.267 -0.5543  0.4885 -0.5946
14586TIP3    H165173   2.985   0.171   3.289  0.4159  0.3819  1.9946
14586TIP3    H265174   2.967   0.021   3.302 -0.6335  0.1140 -1.4019
14587TIP3   OH265175   5.265   1.360   2.609 -0.4269 -0.9239  0.3821
14587TIP3    H165176   5.260   1.358   2.705  0.9435  1.5122  0.6051
14587TIP3    H265177   5.355   1.388   2.591 -1.1040  0.1943 -1.5538
14588TIP3   OH265178   3.724   3.833  11.108  0.2401  0.6867  0.6132
14588TIP3    H165179   3.809   3.866  11.081 -1.0318  2.6301 -1.2559
14588TIP3    H265180   3.680   3.909  11.146  0.0165 -0.7640  3.5700
14589TIP3   OH265181   4.529   1.623  16.214  0.1664 -0.0616  0.4541
14589TIP3    H165182   4.483   1.548  16.252  2.8573 -1.3333  1.4657
14589TIP3    H265183   4.461   1.671  16.166 -2.8207 -0.1794  4.0777
14590TIP3   OH265184   2.741   5.617   0.507 -0.3253 -0.0882 -0.3037
14590TIP3    H165185   2.770   5.688   0.449 -1.8951  1.0877  0.2773
14590TIP3    H265186   2.813   5.554   0.506 -0.7742 -0.8546 -4.6659
14591TIP3   OH265187   3.288   3.470   0.749  0.0881 -0.1349  0.6632
14591TIP3    H165188   3.202   3.470   0.705  1.0969  0.3442 -1.4287
14591TIP3    H265189   3.286   3.391   0.803 -1.1001 -0.9961 -0.5527
14592TIP3   OH265190   4.208   5.673   1.987  0.0603  0.1151 -0.1428
14592TIP3    H165191   4.119   5.704   1.975 -0.3142 -1.2159 -1.0327
14592TIP3    H265192   4.262   5.738   1.942 -0.3205  1.6177  1.5059
14593TIP3   OH265193   0.643   2.111  14.259  1.3216  0.0996 -0.0747
14593TIP3    H165194   0.585   2.185  14.243  0.6493 -0.3559  0.2099
14593TIP3    H265195   0.725   2.135  14.217  0.3698 -0.0304 -2.1163
14594TIP3   OH265196   2.769   3.994  16.537  0.1120 -0.1648 -0.6914
14594TIP3    H165197   2.822   4.007  16.459  1.0638 -1.4524 -0.2802
14594TIP3    H265198   2.822   4.029  16.609 -0.0901 -0.4035 -0.4210
14595TIP3   OH265199   3.599   0.101   5.769  0.0788 -0.1496  0.6449
14595TIP3    H165200   3.625   0.088   5.860  0.3429 -0.7289  0.4887
14595TIP3    H265201   3.548   0.023   5.747 -0.1523  0.0804  0.3543
14596TIP3   OH265202   0.431   3.859  15.479  0.5098  0.1826  0.1736
14596TIP3    H165203   0.477   3.853  15.395  2.3124  1.4052  1.0084
14596TIP3    H265204   0.479   3.800  15.537  0.2912  0.5768  0.7594
14597TIP3   OH265205   3.245   0.857  13.213  0.1056 -0.1961  0.0771
14597TIP3    H165206   3.214   0.842  13.302 -0.9843 -0.8155 -0.3937
14597TIP3    H265207   3.330   0.900  13.225 -0.0203 -0.2630  1.4081
14598TIP3   OH265208   0.009   4.945  13.225 -0.0104  0.2850 -0.1018
14598TIP3    H165209  -0.014   4.929  13.317 -0.1618  0.5539 -0.0914
14598TIP3    H265210   0.066   5.022  13.227 -0.0575  0.3235 -0.2379
14599TIP3   OH265211   2.237   1.927   5.150 -0.4475  0.6466 -0.2380
14599TIP3    H165212   2.278   1.949   5.234  0.4748  1.3856 -0.8684
14599TIP3    H265213   2.143   1.921   5.171 -0.7140  4.2171  0.2572
14600TIP3   OH265214   4.249   3.706   5.214  0.2732  0.4082  0.1650
14600TIP3    H165215   4.329   3.726   5.166  0.1905 -0.6678 -0.4490
14600TIP3    H265216   4.241   3.776   5.278  1.9110  0.3093  0.4995
14601TIP3   OH265217   3.612   1.930  14.475  0.5101  0.4349 -0.1893
14601TIP3    H165218   3.539   1.869  14.469  1.0495 -0.3453  0.8223
14601TIP3    H265219   3.678   1.894  14.415  0.1592  1.0140 -0.9314
14602TIP3   OH265220   3.429   2.747   0.545  0.1097  0.3320 -0.0553
14602TIP3    H165221   3.396   2.659   0.563 -0.4254  0.3819 -0.7850
14602TIP3    H265222   3.522   2.743   0.570  0.2397 -0.6120 -0.6473
14603TIP3   OH265223   1.478   2.149  13.993 -0.6325  0.4347 -0.3032
14603TIP3    H165224   1.487   2.055  14.005  1.0659  0.7173  0.9820
14603TIP3    H265225   1.477   2.185  14.082  1.6067  1.8169 -0.7532
14604TIP3   OH265226   1.214   1.048   1.519  0.7542  0.1837  1.0197
14604TIP3    H165227   1.238   1.103   1.444 -0.2989  0.0579  0.5696
14604TIP3    H265228   1.158   0.980   1.482  2.1589 -1.3156  1.5387
14605TIP3   OH265229   1.294   6.457   2.092  0.1284 -0.3797 -0.1007
14605TIP3    H165230   1.313   6.386   2.031  1.1851 -1.1819  1.1245
14605TIP3    H265231   1.232   6.419   2.155  0.7814 -0.2819  0.6233
14606TIP3   OH265232   0.811   4.638   4.412  0.6653 -0.2412  0.6770
14606TIP3    H165233   0.900   4.616   4.384  0.1583 -0.8076 -0.5720
14606TIP3    H265234   0.798   4.728   4.383  0.2442 -0.7315 -0.7242
14607TIP3   OH265235   4.916   3.379  16.344  0.3752  0.2060  0.2456
14607TIP3    H165236   4.840   3.424  16.306  1.4324  2.4255  0.5913
14607TIP3    H265237   4.984   3.447  16.348  2.1727 -1.5309  0.5750
14608TIP3   OH265238   4.985   6.650   1.983 -0.0083  0.1091  0.1578
14608TIP3    H165239   5.001   6.679   2.073 -0.8535 -0.1376  0.3963
14608TIP3    H265240   5.069   6.616   1.954  0.5404  1.1308  0.4930
14609TIP3   OH265241   0.148   3.894   2.498 -0.3806 -0.5456  0.0201
14609TIP3    H165242   0.241   3.885   2.478 -0.1124 -0.5069  1.1783
14609TIP3    H265243   0.115   3.953   2.430  1.1161  1.9753  1.3076
14610TIP3   OH265244   0.282   1.666   5.247  0.2055 -0.2730 -0.9145
14610TIP3    H165245   0.368   1.637   5.218 -0.2605 -1.6217 -0.9925
14610TIP3    H265246   0.255   1.731   5.182  1.3793  0.5532 -0.5912
14611TIP3   OH265247   2.134   5.072   0.594 -0.1664 -0.3353  0.2680
14611TIP3    H165248   2.078   5.149   0.605 -0.3372 -0.1962 -1.4052
14611TIP3    H265249   2.137   5.033   0.682 -1.3757  0.6714  0.7962
14612TIP3   OH265250   2.411   4.517   3.030 -0.3601 -0.1044  0.8670
14612TIP3    H165251   2.383   4.501   3.120 -2.7696 -1.5639 -0.0626
14612TIP3    H265252   2.468   4.442   3.010  2.2653  1.4731  1.8649
14613TIP3   OH265253   5.180   4.560  15.844 -0.5805  0.1218 -0.3927
14613TIP3    H165254   5.092   4.522  15.841 -0.2852 -0.5632 -0.3945
14613TIP3    H265255   5.209   4.546  15.934 -0.3949  0.1723 -0.4455
14614TIP3   OH265256   0.051   2.286  17.253  0.3536  0.9862  0.1398
14614TIP3    H165257   0.008   2.360  17.296 -0.1816 -1.7700  5.1355
14614TIP3    H265258   0.115   2.256  17.318  0.7557 -2.7261 -1.7555
14615TIP3   OH265259   5.971   5.383   2.178 -0.1788 -0.2117 -0.3955
14615TIP3    H165260   5.994   5.452   2.116  1.1484  0.9338  1.2670
14615TIP3    H265261   5.980   5.302   2.128  1.2476  0.6420 -1.6133
14616TIP3   OH265262   4.634   1.516  12.195 -0.2083 -0.6324 -0.5874
14616TIP3    H165263   4.569   1.474  12.139 -1.5369  0.2524  0.2196
14616TIP3    H265264   4.664   1.592  12.145  0.0369 -0.9013 -0.8563
14617TIP3   OH265265   5.674   5.697   4.582 -0.0146 -0.0053  0.3839
14617TIP3    H165266   5.708   5.785   4.567  0.7174 -0.0892  1.4840
14617TIP3    H265267   5.681   5.683   4.676 -0.3976 -1.1293  0.2663
14618TIP3   OH265268   1.254   1.533   4.182 -0.6511 -0.1588 -0.5907
14618TIP3    H165269   1.237   1.555   4.274  0.9135 -0.6896 -0.1298
14618TIP3    H265270   1.331   1.585   4.159 -1.2661  0.2622 -1.7366
14619TIP3   OH265271   6.423   2.187   0.671  0.1039  0.1837  0.1911
14619TIP3    H165272   6.402   2.182   0.764  0.1067 -1.4252  0.1245
14619TIP3    H265273   6.341   2.164   0.627  0.1956  0.6038 -0.2053
14620TIP3   OH265274   2.071   2.137  14.983 -0.0333  0.2463  0.0906
14620TIP3    H165275   2.005   2.143  14.913 -0.0161 -0.1333  0.0373
14620TIP3    H265276   2.154   2.156  14.939 -0.1686  1.2722  0.2711
14621TIP3   OH265277   5.388   3.140   4.125 -0.3119 -0.5230 -0.0953
14621TIP3    H165278   5.427   3.092   4.198 -1.9724 -0.8624  0.6334
14621TIP3    H265279   5.414   3.091   4.047  1.4488 -0.1841  0.2558
14622TIP3   OH265280   5.431   2.026  13.742  0.3506 -0.7070 -0.5323
14622TIP3    H165281   5.514   1.984  13.764  0.4165 -1.1865 -1.5980
14622TIP3    H265282   5.388   1.964  13.682 -1.6601 -1.3883  1.4619
14623TIP3   OH265283   1.547   0.183  17.280 -0.2689 -0.5716  0.1241
14623TIP3    H165284   1.488   0.254  17.256 -0.1458 -0.9970 -1.5060
14623TIP3    H265285   1.621   0.227  17.322 -0.3017  0.2387 -0.6508
14624TIP3   OH265286   0.756   1.153  14.668 -0.0210 -0.8097  0.2873
14624TIP3    H165287   0.797   1.085  14.614 -0.1224 -0.5897 -0.0682
14624TIP3    H265288   0.667   1.160  14.634  0.2276  0.0587 -0.1973
14625TIP3   OH265289   4.760   4.654  15.398 -0.7375 -0.3982  0.4230
14625TIP3    H165290   4.808   4.714  15.454 -0.7891 -1.0355  1.1610
14625TIP3    H265291   4.826   4.593  15.365 -0.8597 -0.6284  0.5939
14626TIP3   OH265292   4.440   0.408  13.254 -0.3984  0.2892  0.4228
14626TIP3    H165293   4.389   0.327  13.259  3.0177 -2.1838 -0.9355
14626TIP3    H265294   4.524   0.382  13.215  1.2174  4.3868  0.6000
14627TIP3   OH265295   6.023   5.592  14.558  0.1596  0.5818 -0.5891
14627TIP3    H165296   6.032   5.669  14.615 -2.4325  1.2267 -0.9261
14627TIP3    H265297   6.035   5.517  14.616 -1.4152  1.2412  0.6752
14628TIP3   OH265298   1.390   5.274   6.120  0.0917 -0.0999 -0.3686
14628TIP3    H165299   1.452   5.259   6.191  0.6151 -1.7117 -1.1212
14628TIP3    H265300   1.337   5.348   6.150  0.2673 -0.7478  1.6928
14629TIP3   OH265301   3.690   4.290   2.969 -0.1218 -0.0043  0.5989
14629TIP3    H165302   3.712   4.265   3.058 -2.4913  0.2701  1.3459
14629TIP3    H265303   3.596   4.272   2.962 -0.6650  2.8282 -0.8348
14630TIP3   OH265304   5.303   6.160   6.265  0.5741  0.5341  0.1121
14630TIP3    H165305   5.237   6.151   6.197  1.8143 -0.2131 -1.0407
14630TIP3    H265306   5.331   6.251   6.260 -1.2225  1.2263  1.4894
14631TIP3   OH265307   3.450   5.744  12.283  0.2456 -0.1412 -0.2293
14631TIP3    H165308   3.365   5.774  12.251 -0.0821  0.4170  1.0889
14631TIP3    H265309   3.500   5.825  12.295  0.4539 -0.3519  0.3644
14632TIP3   OH265310   5.901   1.898   1.580 -0.0758 -0.0114 -0.5116
14632TIP3    H165311   5.923   1.915   1.672 -1.3693 -2.1152  0.2618
14632TIP3    H265312   5.806   1.889   1.579 -0.0304 -0.6212 -1.9526
14633TIP3   OH265313   6.661   4.488  14.487 -0.2268  0.3878  0.4496
14633TIP3    H165314   6.661   4.540  14.406  0.7076  3.0467  2.0122
14633TIP3    H265315   6.586   4.521  14.537 -0.7734 -1.1894  0.7219
14634TIP3   OH265316   2.722   6.532   2.975  0.0842  0.2724  0.2300
14634TIP3    H165317   2.790   6.598   2.964  0.8269 -0.5277 -0.1595
14634TIP3    H265318   2.700   6.535   3.068  1.3985 -0.1349  0.5792
14635TIP3   OH265319   3.226   4.840   2.178 -0.4713  0.3249 -0.2345
14635TIP3    H165320   3.287   4.768   2.169  2.0722  2.3415 -0.3673
14635TIP3    H265321   3.238   4.893   2.099 -3.4107  0.1772 -0.9208
14636TIP3   OH265322   1.643   2.526   6.441  0.1479  0.0402  0.2421
14636TIP3    H165323   1.669   2.581   6.368  2.5720 -0.9647  0.2495
14636TIP3    H265324   1.548   2.517   6.432  0.0730  1.8637 -1.3678
14637TIP3   OH265325   5.976   4.599   4.194 -0.0531 -0.0578 -0.5418
14637TIP3    H165326   5.953   4.671   4.253  1.5009  0.6099 -0.7085
14637TIP3    H265327   5.941   4.521   4.237  2.0234  0.2338  1.9372
14638TIP3   OH265328   1.600   2.457   0.671 -0.3383  0.4563 -0.3914
14638TIP3    H165329   1.576   2.367   0.692 -0.4644  0.0885 -1.9436
14638TIP3    H265330   1.642   2.491   0.750 -0.1053 -1.0227  0.1424
14639TIP3   OH265331   3.003   1.606   3.359 -0.1569 -0.2117  0.0187
14639TIP3    H165332   2.918   1.563   3.355  0.0425 -0.7828  1.2514
14639TIP3    H265333   3.063   1.543   3.320 -0.1133 -0.3427  0.2969
14640TIP3   OH265334   2.300   0.007  17.297  0.0496 -0.0877  0.1613
14640TIP3    H165335   2.279  -0.082  17.326  1.1774 -0.1505  0.8506
14640TIP3    H265336   2.283   0.006  17.203 -0.3730 -0.9013  0.2413
14641TIP3   OH265337   1.328   5.435   2.649  0.0013 -0.4430  0.7452
14641TIP3    H165338   1.397   5.415   2.712  0.5005  0.7538  0.6034
14641TIP3    H265339   1.360   5.400   2.566 -1.1683 -3.0890  1.2774
14642TIP3   OH265340   4.544   5.583  12.724  0.4166 -0.1383  0.5230
14642TIP3    H165341   4.522   5.501  12.680  0.1125  0.2981 -0.1661
14642TIP3    H265342   4.618   5.618  12.675 -1.4062  1.5261 -1.2200
14643TIP3   OH265343   5.888   5.853  14.187 -0.3886  0.0968  0.3422
14643TIP3    H165344   5.895   5.910  14.263  0.2220  1.3664 -0.6392
14643TIP3    H265345   5.795   5.857  14.163 -0.5901 -0.3257  1.0094
14644TIP3   OH265346   1.250   0.331  15.915  0.2670 -0.1187 -0.1517
14644TIP3    H165347   1.174   0.320  15.857 -0.9145 -0.6088  1.4216
14644TIP3    H265348   1.322   0.288  15.868 -0.2318  0.9100 -1.9761
14645TIP3   OH265349   3.826   2.499  10.614 -0.1636  0.3639 -0.5160
14645TIP3    H165350   3.896   2.448  10.656 -1.9533  0.5131  3.0923
14645TIP3    H265351   3.816   2.575  10.671 -1.6408  1.6287 -2.3610
14646TIP3   OH265352   5.291   4.514  16.075  0.2292  0.1175  0.2729
14646TIP3    H165353   5.243   4.546  16.152 -1.5479  0.7445 -1.0318
14646TIP3    H265354   5.265   4.422  16.068 -0.3710  0.3120 -0.1150
14647TIP3   OH265355   2.741   6.451   2.537 -0.0216  0.7029 -0.2038
14647TIP3    H165356   2.826   6.484   2.566  0.2652  1.3011 -1.6394
14647TIP3    H265357   2.745   6.357   2.552  0.6835  0.7968  0.2205
14648TIP3   OH265358   5.342   4.260   3.096 -0.5112 -0.0121  0.0719
14648TIP3    H165359   5.360   4.344   3.138  0.0736 -0.5435  0.9317
14648TIP3    H265360   5.429   4.225   3.075 -0.7572 -0.3050 -0.5000
14649TIP3   OH265361   1.406   4.820   4.510  0.1986 -0.2748  0.1934
14649TIP3    H165362   1.318   4.826   4.473  0.9967 -1.5964 -2.1395
14649TIP3    H265363   1.395   4.839   4.603 -2.4489  0.1324 -0.1450
14650TIP3   OH265364   6.761   3.529   2.311  0.0070  0.0119  0.3511
14650TIP3    H165365   6.708   3.516   2.233 -0.8715  1.5828  0.6340
14650TIP3    H265366   6.847   3.492   2.289 -0.9283 -1.7639 -0.4429
14651TIP3   OH265367   0.858   6.684   5.272 -0.6785  0.2223 -0.2292
14651TIP3    H165368   0.948   6.709   5.250 -0.0266  0.0713  2.0424
14651TIP3    H265369   0.805   6.760   5.246  0.0348  0.2533 -1.7300
14652TIP3   OH265370   3.274   3.316   4.621 -0.0975 -0.9709  0.3067
14652TIP3    H165371   3.353   3.272   4.652  0.5886 -1.9882 -2.4892
14652TIP3    H265372   3.233   3.251   4.563 -0.1891  1.2292 -2.3216
14653TIP3   OH265373   2.696   1.259   6.190  0.5388 -0.6182 -0.0593
14653TIP3    H165374   2.773   1.287   6.239  1.4977 -0.2876 -1.7071
14653TIP3    H265375   2.731   1.218   6.111 -0.9775 -0.9556 -0.5907
14654TIP3   OH265376   0.342   2.968   4.948 -0.0094 -0.3810  0.0582
14654TIP3    H165377   0.252   3.001   4.943  0.1065 -0.0276  0.2633
14654TIP3    H265378   0.392   3.040   4.986  0.2830 -0.7266  0.3427
14655TIP3   OH265379   6.481   4.211   0.842 -0.0087  0.5832  0.4164
14655TIP3    H165380   6.490   4.226   0.748  1.8746  2.5109  0.8174
14655TIP3    H265381   6.557   4.157   0.864 -0.0848  0.6818  0.9225
14656TIP3   OH265382   3.217   6.490  12.700 -0.0166  0.0497  0.1883
14656TIP3    H165383   3.242   6.478  12.609  0.2168 -0.4598  0.3131
14656TIP3    H265384   3.223   6.402  12.738 -0.9198  0.1111  0.4930
14657TIP3   OH265385   5.165   5.521   3.040  0.4053  0.5562 -0.0288
14657TIP3    H165386   5.203   5.480   2.962 -0.4550  0.0423 -0.1946
14657TIP3    H265387   5.240   5.556   3.088  0.8735  1.6015 -1.4839
14658TIP3   OH265388   2.940   1.303   4.951  0.0791  0.3014  0.2347
14658TIP3    H165389   2.850   1.332   4.941 -0.1654 -0.1671  1.0113
14658TIP3    H265390   2.985   1.337   4.873 -0.5043  1.5278  0.4088
14659TIP3   OH265391   5.445   1.492   2.984  0.3042  0.4772  0.3290
14659TIP3    H165392   5.524   1.450   2.949  0.2448  0.7905 -0.1855
14659TIP3    H265393   5.373   1.445   2.942  0.2352  2.0442 -1.4441
14660TIP3   OH265394   5.158   6.119  10.508 -0.8655 -0.6838  0.2045
14660TIP3    H165395   5.099   6.061  10.557  0.4528 -1.7283  0.6012
14660TIP3    H265396   5.180   6.070  10.429 -0.5514 -0.2959  0.0482
14661TIP3   OH265397   4.960   0.906   4.665 -0.3993  0.2109 -0.3010
14661TIP3    H165398   5.001   0.939   4.745 -1.0978 -0.3534  0.3068
14661TIP3    H265399   4.875   0.950   4.661 -0.6871 -0.3301 -0.3146
14662TIP3   OH265400   3.040   5.615   2.908 -0.0987  0.4165 -0.6117
14662TIP3    H165401   3.009   5.676   2.841  3.1736  2.8134 -0.1853
14662TIP3    H265402   3.076   5.671   2.977  0.8046 -2.0117  1.0179
14663TIP3   OH265403   5.344   5.355  15.139 -0.3820  0.6971 -0.4308
14663TIP3    H165404   5.325   5.274  15.187  0.1511 -0.6218 -2.3516
14663TIP3    H265405   5.432   5.342  15.104 -0.9749  1.3127 -2.2754
14664TIP3   OH265406   1.467   2.842   0.430  0.0323 -0.0144 -0.1467
14664TIP3    H165407   1.388   2.859   0.379 -0.8999  0.4576  1.3924
14664TIP3    H265408   1.537   2.834   0.365 -0.7779  2.3560 -1.4169
14665TIP3   OH265409   4.952   5.482  12.304 -0.0650 -0.4240  0.5313
14665TIP3    H165410   4.869   5.493  12.256 -0.7840  0.6647  1.9643
14665TIP3    H265411   4.943   5.538  12.381  2.0951 -0.1507  0.6394
14666TIP3   OH265412   4.842   5.345  17.226  0.0207 -0.3884  0.3254
14666TIP3    H165413   4.771   5.384  17.175  0.3660  1.4452  1.1484
14666TIP3    H265414   4.904   5.313  17.161 -0.3127  0.4311 -0.4143
14667TIP3   OH265415   4.258   2.108  13.067 -0.3613  0.4282  0.1940
14667TIP3    H165416   4.351   2.126  13.072 -0.5071  2.1373 -1.9958
14667TIP3    H265417   4.250   2.016  13.095  2.0648 -0.0246 -0.3968
14668TIP3   OH265418   4.909   5.426  12.668  0.5164  0.2658 -0.2610
14668TIP3    H165419   4.909   5.460  12.757 -1.6866  1.8949 -0.8098
14668TIP3    H265420   4.868   5.494  12.616 -0.5301 -1.6685 -2.1050
14669TIP3   OH265421   5.773   0.791  11.269  0.7410  0.3905 -0.4362
14669TIP3    H165422   5.700   0.852  11.277 -0.4209 -1.0898  0.8554
14669TIP3    H265423   5.802   0.800  11.178 -1.3620  0.6821 -1.1282
14670TIP3   OH265424   0.525   2.420   4.028 -0.0080  0.6245  0.3249
14670TIP3    H165425   0.479   2.408   3.945  0.5308  1.4879 -0.1154
14670TIP3    H265426   0.561   2.509   4.023  1.3584  0.1337  0.8244
14671TIP3   OH265427   2.751   4.488  10.756 -0.4665 -0.2929  0.3146
14671TIP3    H165428   2.837   4.455  10.731 -0.1711  1.0254 -0.5206
14671TIP3    H265429   2.704   4.497  10.673 -0.6837  0.9177  0.5558
14672TIP3   OH265430   2.694   1.386  14.892  0.2992 -0.8208 -0.5487
14672TIP3    H165431   2.784   1.353  14.901  0.4396 -0.1347  0.6954
14672TIP3    H265432   2.667   1.408  14.981 -0.6725  0.1361 -1.0589
14673TIP3   OH265433   5.210   0.706  13.265 -0.3111 -0.0014  0.7671
14673TIP3    H165434   5.287   0.679  13.315  0.6626 -0.5207 -0.9160
14673TIP3    H265435   5.135   0.679  13.319  0.6692 -0.7819  1.7874
14674TIP3   OH265436   6.572   2.058  14.712 -0.2885  0.3759  0.2375
14674TIP3    H165437   6.640   2.097  14.767 -0.6186  0.5125  0.5530
14674TIP3    H265438   6.541   2.130  14.658  0.2265  0.1795 -0.3256
14675TIP3   OH265439   6.704   2.874   2.654 -0.4074 -0.0100 -0.1551
14675TIP3    H165440   6.641   2.910   2.591  0.0043  2.6129  0.8368
14675TIP3    H265441   6.654   2.862   2.734  0.3258  2.4189  0.7440
14676TIP3   OH265442   6.300   0.630   2.750  0.0639 -0.1539 -0.4836
14676TIP3    H165443   6.291   0.535   2.746  0.0102 -0.3317  2.0993
14676TIP3    H265444   6.362   0.645   2.821  1.5330  1.7348 -2.0580
14677TIP3   OH265445   4.640   3.896   0.769 -0.1915  0.4077 -0.6549
14677TIP3    H165446   4.646   3.804   0.743  0.5584  0.6164 -1.2716
14677TIP3    H265447   4.688   3.900   0.852  0.4504  0.3749 -1.0148
14678TIP3   OH265448   2.477   4.159  12.577 -0.1913 -0.0835 -0.1222
14678TIP3    H165449   2.424   4.223  12.625 -1.1811  0.6947 -2.1600
14678TIP3    H265450   2.546   4.211  12.537 -0.0159 -0.5457 -0.4195
14679TIP3   OH265451   2.730   5.346  16.639  0.0235 -0.2683 -0.1954
14679TIP3    H165452   2.820   5.312  16.629  0.5208  0.4970  1.3917
14679TIP3    H265453   2.719   5.404  16.564  0.8568 -0.3761 -0.4208
14680TIP3   OH265454   5.820   3.306   2.121  0.3794  0.0330 -0.4699
14680TIP3    H165455   5.771   3.381   2.087  0.8379  1.0677  1.0915
14680TIP3    H265456   5.754   3.252   2.165  0.0508 -0.5105 -1.5867
14681TIP3   OH265457   0.601   2.420   0.098  0.0681 -0.1118 -0.3886
14681TIP3    H165458   0.611   2.392   0.190 -0.1755  2.2362  0.4231
14681TIP3    H265459   0.660   2.363   0.049 -0.8435 -2.3965  0.9942
14682TIP3   OH265460   5.300   4.525   3.190 -0.3109 -0.1147 -0.0399
14682TIP3    H165461   5.211   4.529   3.224 -0.7859  1.3787 -1.3190
14682TIP3    H265462   5.321   4.616   3.168  1.6119 -0.4017  0.4110
14683TIP3   OH265463   4.619   4.175  16.450  0.0038 -0.7978 -0.5998
14683TIP3    H165464   4.684   4.180  16.521 -0.3606 -0.6445 -0.2744
14683TIP3    H265465   4.590   4.266  16.439 -0.1646 -0.8698 -0.7387
14684TIP3   OH265466   2.053   1.556   3.253 -0.0290 -0.0424  0.2387
14684TIP3    H165467   2.037   1.642   3.212 -0.6227 -0.5974 -0.7298
14684TIP3    H265468   2.102   1.507   3.187  0.6745 -0.3121  0.9556
14685TIP3   OH265469   1.472   0.713  16.376 -0.3218 -0.2217 -0.2601
14685TIP3    H165470   1.471   0.713  16.280 -2.0390 -1.0026 -0.2809
14685TIP3    H265471   1.562   0.735  16.399  0.1399 -0.0837 -2.0485
14686TIP3   OH265472   5.749   1.057   4.798  0.5670 -0.4589 -0.1640
14686TIP3    H165473   5.813   1.121   4.767  0.8949  0.4997  2.2458
14686TIP3    H265474   5.685   1.108   4.848 -1.1406 -1.6180 -1.0661
14687TIP3   OH265475   4.080   0.609  16.816 -0.3972 -0.1563  0.0614
14687TIP3    H165476   4.007   0.634  16.759  1.0306  1.9788 -0.9567
14687TIP3    H265477   4.144   0.570  16.756  0.2923  0.2497  0.5264
14688TIP3   OH265478   4.629   3.163  16.336  0.0817 -0.0684  0.3320
14688TIP3    H165479   4.626   3.188  16.428 -0.4242  0.6487  0.1274
14688TIP3    H265480   4.541   3.181  16.304  0.6150  0.9586 -0.6146
14689TIP3   OH265481   1.171   1.929  12.509 -0.2521 -0.5267  0.1131
14689TIP3    H165482   1.143   1.916  12.599  0.2727  1.2992  0.5826
14689TIP3    H265483   1.093   1.960  12.463 -0.2945 -0.5545  0.1679
14690TIP3   OH265484   0.291   5.858  15.503  0.1263  0.2130  0.2686
14690TIP3    H165485   0.210   5.806  15.497 -0.1064  0.6519 -0.5779
14690TIP3    H265486   0.269   5.941  15.460  0.4910  1.0405  1.6371
14691TIP3   OH265487   3.873   0.676   3.014 -0.1925 -0.6978  0.0310
14691TIP3    H165488   3.928   0.604   3.045  1.5614 -0.3086 -2.0231
14691TIP3    H265489   3.934   0.742   2.983 -1.8057  0.7149 -0.2909
14692TIP3   OH265490   4.277   6.042   0.372  0.0544  0.2232  0.0428
14692TIP3    H165491   4.266   6.129   0.411  1.1840 -0.4474  2.0488
14692TIP3    H265492   4.300   5.985   0.446 -0.8408 -1.8423 -1.1680
14693TIP3   OH265493   5.077   0.337   2.814  0.2794 -0.3181  0.2028
14693TIP3    H165494   5.141   0.385   2.867  0.1745 -0.6207  0.6006
14693TIP3    H265495   5.065   0.393   2.737 -0.4465  0.7044  1.0294
14694TIP3   OH265496   5.583   2.355  17.257 -0.3621 -0.0201 -0.3965
14694TIP3    H165497   5.661   2.343  17.202  2.1175 -0.8644  3.0261
14694TIP3    H265498   5.595   2.440  17.298 -1.0129 -0.3449  0.5062
14695TIP3   OH265499   0.869   3.861   3.997  0.1244 -0.4562 -0.4899
14695TIP3    H165500   0.916   3.860   4.080 -2.0708 -2.5476  0.8550
14695TIP3    H265501   0.893   3.778   3.955 -1.2122 -0.8859 -0.4310
14696TIP3   OH265502   6.513   2.342  14.566  0.1229 -0.2126 -0.5994
14696TIP3    H165503   6.455   2.300  14.502  1.7233 -1.2460 -1.4385
14696TIP3    H265504   6.534   2.427  14.527  1.3671 -0.9742 -1.6835
14697TIP3   OH265505   5.378   0.638   5.424 -0.5836 -0.1236  0.4899
14697TIP3    H165506   5.399   0.552   5.461 -1.5756  0.0025  1.3898
14697TIP3    H265507   5.417   0.700   5.486 -1.4599  0.0833  0.8367
14698TIP3   OH265508   3.492   1.972  15.135  0.2280  0.3965 -0.2523
14698TIP3    H165509   3.562   1.999  15.076 -0.0449  0.6675 -0.4579
14698TIP3    H265510   3.431   2.046  15.136 -1.1937 -0.6623 -1.8252
14699TIP3   OH265511   2.586   6.550   3.269 -0.9937 -0.1727  0.4912
14699TIP3    H165512   2.656   6.485   3.264 -1.4441 -0.5773 -1.1952
14699TIP3    H265513   2.548   6.537   3.356  1.3036  0.3974  1.6539
14700TIP3   OH265514   1.198   0.073   4.694  0.1697 -0.4275 -0.6654
14700TIP3    H165515   1.286   0.086   4.730  0.6641  1.2581 -2.3085
14700TIP3    H265516   1.177   0.157   4.652 -2.6917 -0.4109  0.5899
14701TIP3   OH265517   5.300   2.833   4.570  0.5313  0.4143 -0.9850
14701TIP3    H165518   5.306   2.737   4.567  0.2796  0.2084  1.9631
14701TIP3    H265519   5.208   2.852   4.554  0.2708  0.0155 -0.0244
14702TIP3   OH265520   1.782   0.599   4.710 -0.3589 -0.2621  0.1373
14702TIP3    H165521   1.781   0.512   4.670  2.2075 -1.0684  1.6487
14702TIP3    H265522   1.873   0.627   4.705 -0.2981  0.4968  3.4248
14703TIP3   OH265523   0.839   3.700  15.960 -0.0365  0.2591  0.2868
14703TIP3    H165524   0.762   3.754  15.977 -0.4415 -0.5255  0.9830
14703TIP3    H265525   0.914   3.755  15.983 -0.4495  0.4849  1.0868
14704TIP3   OH265526   4.295   4.285  12.492  0.1398  0.0832  0.0517
14704TIP3    H165527   4.259   4.245  12.570  0.3724  1.0644  0.6870
14704TIP3    H265528   4.225   4.281  12.427  0.1226 -1.2044  0.1296
14705TIP3   OH265529   1.241   2.103  16.523  0.2064  0.0693  0.4217
14705TIP3    H165530   1.208   2.023  16.565 -0.1591  0.4135  0.7917
14705TIP3    H265531   1.185   2.114  16.447  0.3753 -0.1256  0.2668
14706TIP3   OH265532   0.628   6.778   0.223  0.0338  0.1878 -0.0665
14706TIP3    H165533   0.635   6.695   0.176 -0.3451 -0.6134  1.2545
14706TIP3    H265534   0.717   6.812   0.225  0.1290  0.0299 -0.9687
14707TIP3   OH265535   4.036   5.819   3.945 -0.1308 -0.2083 -0.1349
14707TIP3    H165536   4.080   5.865   4.016  0.6022  0.1401 -0.7914
14707TIP3    H265537   3.952   5.864   3.935  0.9367  1.6445 -1.3664
14708TIP3   OH265538   5.964   2.246   5.701 -0.4453 -0.2184 -0.3102
14708TIP3    H165539   5.917   2.299   5.637 -0.8720 -0.7559 -0.4496
14708TIP3    H265540   5.906   2.171   5.717  0.3839 -0.9115 -0.5172
14709TIP3   OH265541   6.347   3.632  13.495 -0.4156  0.3397  0.3136
14709TIP3    H165542   6.305   3.714  13.468 -1.6487 -0.3960 -0.0923
14709TIP3    H265543   6.274   3.573  13.516  0.4304 -0.7799  0.2308
14710TIP3   OH265544   1.049   5.916  16.415 -0.6659 -0.1671 -0.3749
14710TIP3    H165545   0.955   5.895  16.411 -0.7246  0.1103 -0.5015
14710TIP3    H265546   1.054   6.007  16.385 -0.1892 -0.6337 -1.7804
14711TIP3   OH265547   0.932   6.376   6.809 -0.2593  0.1867 -0.6862
14711TIP3    H165548   0.979   6.453   6.840 -0.5934 -0.0989  0.6228
14711TIP3    H265549   0.842   6.388   6.841 -0.2743 -0.8122 -0.2957
14712TIP3   OH265550   3.730   2.876   2.489  0.0172 -0.3255 -0.4303
14712TIP3    H165551   3.809   2.878   2.543 -0.4206 -1.0123  0.2722
14712TIP3    H265552   3.761   2.857   2.401  0.7316  0.6017 -0.3886
14713TIP3   OH265553   3.353   6.323  17.241  0.2140  0.0734 -1.1268
14713TIP3    H165554   3.350   6.272  17.322 -2.0828  0.9563 -0.5468
14713TIP3    H265555   3.291   6.279  17.183 -0.1859  0.9462 -1.3857
14714TIP3   OH265556   5.872   0.098   5.631 -0.3562  0.0052  0.1309
14714TIP3    H165557   5.776   0.095   5.627 -0.3439 -1.1452  0.3795
14714TIP3    H265558   5.897   0.149   5.554 -1.0767 -1.9630 -1.5295
14715TIP3   OH265559   2.197   0.851   6.398  0.4328  0.2993  0.1757
14715TIP3    H165560   2.268   0.892   6.448  0.8924 -1.0331  0.6505
14715TIP3    H265561   2.159   0.788   6.459 -1.1096  0.9009 -0.1048
14716TIP3   OH265562   1.077   3.499   5.926 -0.3281  0.0425 -0.1472
14716TIP3    H165563   0.989   3.506   5.962 -0.9631 -0.2023 -1.5751
14716TIP3    H265564   1.124   3.444   5.989 -0.9260  0.8758  1.0684
14717TIP3   OH265565   3.013   1.212  12.175 -0.0659 -0.2053  0.1594
14717TIP3    H165566   2.966   1.288  12.143  0.2359 -0.1951 -0.2709
14717TIP3    H265567   3.021   1.154  12.098  1.8448  0.4063 -0.1637
14718TIP3   OH265568   0.625   5.763   4.306  0.1541 -0.6087 -0.4250
14718TIP3    H165569   0.557   5.702   4.276 -0.7113  0.5458 -0.9143
14718TIP3    H265570   0.700   5.746   4.249  0.4917 -2.2287  0.4254
14719TIP3   OH265571   2.504   4.135  15.166 -0.4700 -0.1035  0.5580
14719TIP3    H165572   2.477   4.054  15.123  0.4469 -0.3084  0.3405
14719TIP3    H265573   2.517   4.197  15.094  1.8586 -0.6775  0.3834
14720TIP3   OH265574   4.959   4.081   3.576 -0.1908  0.3910 -0.0055
14720TIP3    H165575   5.011   4.152   3.540 -1.2316  0.5307 -1.3372
14720TIP3    H265576   4.879   4.123   3.607 -0.1746 -0.0164  0.6117
14721TIP3   OH265577   5.913   5.612  13.138  0.2885 -0.0685  0.5593
14721TIP3    H165578   5.975   5.596  13.209  0.9265  1.6158  0.4398
14721TIP3    H265579   5.869   5.694  13.163  0.9848  0.9090 -1.2543
14722TIP3   OH265580   1.959   4.431   0.771  0.1455  0.1988  0.3339
14722TIP3    H165581   2.044   4.414   0.732 -0.3618 -2.5606  0.2090
14722TIP3    H265582   1.900   4.445   0.696  0.1294  0.0698  0.3215
14723TIP3   OH265583   5.653   3.888  12.537 -0.1572  0.0129 -0.1292
14723TIP3    H165584   5.739   3.926  12.555  0.1019 -0.4818 -0.3173
14723TIP3    H265585   5.645   3.892  12.442 -1.5816  2.7539 -0.0017
14724TIP3   OH265586   3.826   1.536   0.563 -0.3806 -0.3737 -0.5346
14724TIP3    H165587   3.876   1.565   0.487 -2.3062  0.3729 -1.5794
14724TIP3    H265588   3.871   1.575   0.638  0.3080  0.7006 -1.4798
14725TIP3   OH265589   2.977   1.601  14.048 -0.0794 -0.6144  0.8514
14725TIP3    H165590   3.051   1.648  14.009 -0.9949 -0.1030 -0.3221
14725TIP3    H265591   2.902   1.658  14.035 -0.9237 -1.6709  0.9047
14726TIP3   OH265592   3.352   4.532  17.176  0.1517 -0.7151 -0.8171
14726TIP3    H165593   3.387   4.615  17.145 -0.1105 -0.2154  0.1900
14726TIP3    H265594   3.421   4.468  17.156  0.2342 -0.3167 -1.8539
14727TIP3   OH265595   2.960   3.466  13.376  0.1869  0.3328 -0.0452
14727TIP3    H165596   2.955   3.551  13.332  3.2693  0.9404  0.5544
14727TIP3    H265597   2.966   3.488  13.469  1.7585 -0.4456  0.0700
14728TIP3   OH265598   2.457   4.200  11.261 -0.2052 -0.2039  0.1866
14728TIP3    H165599   2.487   4.267  11.322 -0.2599  0.4315 -0.4725
14728TIP3    H265600   2.537   4.157  11.231  0.3028  2.4413 -2.6731
14729TIP3   OH265601   5.222   0.231   5.251 -0.3742 -0.3907  0.3255
14729TIP3    H165602   5.195   0.245   5.160 -1.4250 -1.1473  0.5024
14729TIP3    H265603   5.317   0.239   5.249 -0.4512  0.5174 -0.6694
14730TIP3   OH265604   1.989   4.808  13.112 -0.1181 -0.5599 -0.2659
14730TIP3    H165605   1.987   4.729  13.165  1.4040  0.6444  1.7300
14730TIP3    H265606   1.899   4.840  13.113 -0.1710 -0.6540  1.5647
14731TIP3   OH265607   2.405   2.700   1.822  0.0492 -0.7637 -0.6395
14731TIP3    H165608   2.329   2.649   1.852 -0.6896  0.8658  0.4197
14731TIP3    H265609   2.480   2.656   1.860 -0.7117 -0.0502  1.8816
14732TIP3   OH265610   5.550   1.351  16.960  0.1981  0.1826  0.0088
14732TIP3    H165611   5.537   1.272  17.013 -0.2384  0.0623 -0.2722
14732TIP3    H265612   5.621   1.397  17.003  0.4730 -0.3769  0.1678
14733TIP3   OH265613   3.444   2.532  10.691 -0.3455  0.1181 -0.5296
14733TIP3    H165614   3.369   2.544  10.750  1.0085  0.1460  1.2629
14733TIP3    H265615   3.492   2.458  10.728  0.7575  0.3763 -1.3915
14734TIP3   OH265616   4.596   1.658  12.858  0.6357  0.4952 -0.4270
14734TIP3    H165617   4.615   1.702  12.941  0.7117  1.8459 -1.1258
14734TIP3    H265618   4.655   1.700  12.795  0.7089 -0.6291 -1.1366
14735TIP3   OH265619   0.639   6.390   0.842 -0.2952  0.3645 -0.2158
14735TIP3    H165620   0.719   6.442   0.831 -0.0730 -0.1539 -1.1128
14735TIP3    H265621   0.606   6.377   0.753 -0.4095 -0.9099 -0.0111
14736TIP3   OH265622   6.600   5.984   1.045 -0.5633 -0.4153  0.0892
14736TIP3    H165623   6.510   6.014   1.029 -0.8860 -0.2160  1.9664
14736TIP3    H265624   6.633   6.045   1.112  1.7718  0.8814 -2.0554
14737TIP3   OH265625   5.510   1.120  17.119  0.5214  0.2630  0.6752
14737TIP3    H165626   5.549   1.034  17.136  0.2577 -0.0525 -0.2490
14737TIP3    H265627   5.418   1.109  17.143  0.3831  0.1359  0.1041
14738TIP3   OH265628   5.691   4.010  16.900 -0.2224  0.4522  0.5231
14738TIP3    H165629   5.661   4.083  16.954 -2.3882  1.2544 -1.5868
14738TIP3    H265630   5.643   3.934  16.933 -0.8003  0.7517  0.3925
14739TIP3   OH265631   5.285   4.320  10.433 -0.1844 -0.0949  0.1299
14739TIP3    H165632   5.346   4.248  10.450 -0.9606 -0.5532  1.0870
14739TIP3    H265633   5.338   4.399  10.441  0.4024 -0.5098  0.3819
14740TIP3   OH265634   6.493   4.871   4.580  0.0466  0.2814  0.3601
14740TIP3    H165635   6.536   4.809   4.639 -0.2546  0.2889  0.5903
14740TIP3    H265636   6.445   4.930   4.638 -1.2568 -0.4566  0.0644
14741TIP3   OH265637   2.822   0.083   4.294  0.1470 -0.5682 -0.0863
14741TIP3    H165638   2.836  -0.011   4.282  0.7415 -0.3328 -1.3467
14741TIP3    H265639   2.871   0.104   4.373  0.0773 -1.3006  0.1601
14742TIP3   OH265640   6.344   0.980   5.473 -0.2113 -0.5134 -0.3900
14742TIP3    H165641   6.370   0.907   5.416  2.6072  0.3169 -0.3212
14742TIP3    H265642   6.326   0.939   5.558  1.2099 -1.2065 -0.3883
14743TIP3   OH265643   1.387   2.904  17.038 -0.4386 -0.8185 -0.1028
14743TIP3    H165644   1.430   2.875  17.119 -0.0541  0.5898  0.2266
14743TIP3    H265645   1.415   2.840  16.972  1.5049 -0.4380  0.2931
14744TIP3   OH265646   1.895   5.365  11.763  0.0351 -0.0948 -0.4840
14744TIP3    H165647   1.828   5.413  11.713 -0.3796  0.7621  0.8436
14744TIP3    H265648   1.845   5.303  11.816  0.5290 -1.6152 -1.7091
14745TIP3   OH265649   4.645   3.511  16.738  0.2240  0.2687  0.5596
14745TIP3    H165650   4.683   3.451  16.673 -2.7029  0.5942 -1.6695
14745TIP3    H265651   4.623   3.589  16.688 -0.3018  1.3650  2.4303
14746TIP3   OH265652   1.667   3.270  16.323  0.3188  0.3765 -0.0447
14746TIP3    H165653   1.630   3.308  16.244 -0.0590 -1.1847 -0.6634
14746TIP3    H265654   1.601   3.206  16.352  1.2497 -0.3832  0.4847
14747TIP3   OH265655   1.673   0.449   5.924  0.3275  0.1956 -0.1159
14747TIP3    H165656   1.675   0.384   5.854 -1.1912  1.3420 -1.3045
14747TIP3    H265657   1.590   0.433   5.969  0.0072  1.1706 -0.3257
14748TIP3   OH265658   1.718   4.213  17.209  0.0703  0.1221 -0.0701
14748TIP3    H165659   1.672   4.185  17.130  0.8109 -0.6003 -0.2512
14748TIP3    H265660   1.796   4.257  17.178  2.0406 -2.8954  0.1772
14749TIP3   OH265661   6.548   1.236   2.202 -0.0887 -0.5205 -0.5831
14749TIP3    H165662   6.520   1.297   2.133  0.5842 -1.5775 -1.8349
14749TIP3    H265663   6.642   1.250   2.209 -0.0649 -0.8310 -0.2845
14750TIP3   OH265664   1.896   0.784  11.779 -0.0846  0.2968  0.1490
14750TIP3    H165665   1.855   0.700  11.758  0.3484  0.0301  0.3451
14750TIP3    H265666   1.934   0.771  11.866 -3.4397  1.9446  2.0489
14751TIP3   OH265667   2.242   5.457   2.786 -0.2957  0.1972 -0.3226
14751TIP3    H165668   2.242   5.476   2.692  0.6969 -0.5337 -0.4929
14751TIP3    H265669   2.242   5.543   2.828 -4.6494  0.6447 -0.8527
14752TIP3   OH265670   4.873   1.146   4.498 -0.2283 -0.3432 -0.4186
14752TIP3    H165671   4.821   1.167   4.421  0.0745 -1.4216 -0.9352
14752TIP3    H265672   4.808   1.117   4.563 -0.6731  2.1563  0.3650
14753TIP3   OH265673   6.138   5.983   1.333  0.8191 -0.3714  0.6103
14753TIP3    H165674   6.223   5.941   1.334 -0.1126 -2.4157  2.2054
14753TIP3    H265675   6.110   5.984   1.424 -0.0789  2.0440  0.3939
14754TIP3   OH265676   0.567   0.820   5.817  0.7512 -0.4744  0.1500
14754TIP3    H165677   0.514   0.807   5.739  0.1546  1.1282  0.2418
14754TIP3    H265678   0.583   0.732   5.851 -0.4097 -1.0858 -0.8213
14755TIP3   OH265679   5.033   2.429  11.209  0.1297  0.2025 -0.0479
14755TIP3    H165680   5.047   2.459  11.119 -1.0840 -1.2113 -0.7531
14755TIP3    H265681   5.003   2.507  11.256  0.2791  0.8406 -0.9893
14756TIP3   OH265682   1.149   0.693  14.193 -0.0886 -0.0128  0.1393
14756TIP3    H165683   1.166   0.740  14.111 -2.0332 -0.0896 -0.3742
14756TIP3    H265684   1.126   0.605  14.165  1.6816 -0.7679  0.9720
14757TIP3   OH265685   6.123   3.086  14.177  0.2383  0.1254  0.3115
14757TIP3    H165686   6.117   3.172  14.135  0.5203 -0.1087 -0.2034
14757TIP3    H265687   6.098   3.103  14.268 -0.1244  0.6765  0.1164
14758TIP3   OH265688   0.073   3.991  15.113 -0.1806 -0.7997  0.9747
14758TIP3    H165689   0.125   3.932  15.168  1.4184  0.4748  0.8959
14758TIP3    H265690   0.133   4.020  15.045 -1.2746  0.0290  0.3207
14759TIP3   OH265691   6.399   1.954  14.919  0.5015 -0.0697  0.2691
14759TIP3    H165692   6.442   2.020  14.974  1.2492 -1.9481  2.0567
14759TIP3    H265693   6.446   1.958  14.836  1.7741  0.3886  0.9831
14760TIP3   OH265694   5.477   2.028   1.634  0.3758  0.5551 -0.4961
14760TIP3    H165695   5.532   2.093   1.591 -0.5727  1.3473 -0.5576
14760TIP3    H265696   5.454   1.966   1.564  0.4307  0.7463 -0.6836
14761TIP3   OH265697   1.035   0.877   5.698  0.2765  0.2138  0.3619
14761TIP3    H165698   1.101   0.820   5.657 -0.4022 -0.2201 -0.1381
14761TIP3    H265699   1.047   0.864   5.792  1.7608  1.1119  0.3444
14762TIP3   OH265700   1.828   1.498  12.468 -0.2867  0.2203  0.3222
14762TIP3    H165701   1.766   1.424  12.470  0.5299 -0.4723  0.6321
14762TIP3    H265702   1.773   1.574  12.450 -1.4176 -0.1979  1.8237
14763TIP3   OH265703   6.722   2.525   2.986  0.7929 -0.0783  0.0395
14763TIP3    H165704   6.671   2.605   2.993  0.5889 -0.3319  1.9698
14763TIP3    H265705   6.809   2.549   3.018  1.1820 -0.2559 -0.8636
14764TIP3   OH265706   6.627   3.066   6.549 -0.6658  0.0681 -0.7001
14764TIP3    H165707   6.649   3.084   6.458 -0.6828 -0.0597 -0.7309
14764TIP3    H265708   6.625   2.970   6.554  0.4677  0.0519 -0.2913
14765TIP3   OH265709   1.848   4.754  12.544 -0.2756 -0.0100 -0.0300
14765TIP3    H165710   1.769   4.791  12.505 -0.2384 -1.1441 -1.2385
14765TIP3    H265711   1.823   4.664  12.568  0.2763  0.0427  0.7765
14766TIP3   OH265712   1.795   2.396   1.191  0.4399 -0.2270 -0.7405
14766TIP3    H165713   1.841   2.436   1.264  0.9722  1.4007 -1.9093
14766TIP3    H265714   1.707   2.433   1.194  0.1153 -1.0016 -0.3068
14767TIP3   OH265715   2.970   1.909  16.986  0.1084 -0.0001  0.3502
14767TIP3    H165716   3.036   1.845  16.959  1.8325  1.8768 -0.1921
14767TIP3    H265717   2.933   1.942  16.905  0.9443  1.3348  0.4829
14768TIP3   OH265718   5.319   3.064   3.350  0.3919 -0.0758 -0.1105
14768TIP3    H165719   5.305   3.036   3.441  0.5738 -0.8157 -0.3040
14768TIP3    H265720   5.317   2.983   3.299 -0.1702  0.3773 -0.8323
14769TIP3   OH265721   1.279   0.629  12.687 -0.3417  0.3755 -0.3651
14769TIP3    H165722   1.199   0.601  12.642 -0.4219 -0.5287  0.3146
14769TIP3    H265723   1.321   0.689  12.625 -1.1133  0.1979 -1.0869
14770TIP3   OH265724   5.686   4.627   3.242  0.2466 -0.2417  0.3114
14770TIP3    H165725   5.676   4.722   3.235  0.4328 -0.2867 -0.7436
14770TIP3    H265726   5.663   4.607   3.332 -1.7501  0.5811  0.0484
14771TIP3   OH265727   5.619   3.040  12.065 -0.0725  0.4527 -0.2291
14771TIP3    H165728   5.619   3.033  11.970 -1.7217 -1.1383 -0.1715
14771TIP3    H265729   5.666   2.961  12.095 -0.1580  0.5894  0.2769
14772TIP3   OH265730   4.236   1.779  11.793 -0.4319 -0.4294  0.7181
14772TIP3    H165731   4.214   1.735  11.711 -2.1753  0.2027  0.7908
14772TIP3    H265732   4.151   1.805  11.830  0.4207  1.6896  1.3719
14773TIP3   OH265733   5.942   0.630  14.915 -0.5292 -0.2316  0.6673
14773TIP3    H165734   5.970   0.548  14.875 -2.5984 -0.9488  0.5474
14773TIP3    H265735   5.967   0.697  14.851 -2.9239 -1.2671 -1.5319
14774TIP3   OH265736   1.185   3.600   1.575  0.3414 -0.2890  0.4153
14774TIP3    H165737   1.257   3.600   1.512  0.9186 -0.6103  1.0583
14774TIP3    H265738   1.108   3.576   1.523 -0.2722  4.2859 -1.2664
14775TIP3   OH265739   3.227   5.689   1.376  0.4467  0.7442 -0.3020
14775TIP3    H165740   3.222   5.722   1.286 -0.5116  1.6993  0.0720
14775TIP3    H265741   3.171   5.749   1.426 -0.4483 -0.8073  0.6281
14776TIP3   OH265742   2.047   1.704   1.331 -0.0350 -0.0223  0.0785
14776TIP3    H165743   2.137   1.735   1.338 -0.7781  2.3178 -0.0336
14776TIP3    H265744   2.036   1.684   1.238  0.1737  0.2944 -0.0141
14777TIP3   OH265745   1.523   3.348  15.142  0.1013  0.1392  0.6741
14777TIP3    H165746   1.583   3.363  15.216 -0.0431 -1.3147  1.1289
14777TIP3    H265747   1.482   3.263  15.162 -1.6864  0.8244  0.0840
14778TIP3   OH265748   2.814   3.727   5.811  0.1441  0.1462  0.3347
14778TIP3    H165749   2.763   3.647   5.824 -0.7326  0.7095  0.4564
14778TIP3    H265750   2.772   3.771   5.737  0.6214  0.4925  0.2636
14779TIP3   OH265751   5.181   3.295   0.548 -0.0377 -0.0088 -0.3417
14779TIP3    H165752   5.094   3.320   0.516 -0.4611 -0.3485  0.5171
14779TIP3    H265753   5.239   3.365   0.517 -1.0259  1.5641  1.1847
14780TIP3   OH265754   6.365   1.414  11.405  0.6456 -0.2312  0.0412
14780TIP3    H165755   6.303   1.342  11.420 -0.5838  0.6277 -0.7048
14780TIP3    H265756   6.331   1.458  11.327  1.8306  0.6826  0.0215
14781TIP3   OH265757   6.660   4.078  17.320 -0.2671 -0.5837  0.3870
14781TIP3    H165758   6.625   4.019  17.253  0.2586  1.7626 -2.1938
14781TIP3    H265759   6.747   4.043  17.339 -0.4448 -1.3483 -0.1363
14782TIP3   OH265760   2.756   5.565   4.945 -0.4634 -0.1500 -0.1999
14782TIP3    H165761   2.756   5.473   4.969 -3.7169 -0.6036 -1.3481
14782TIP3    H265762   2.777   5.566   4.852  0.6189  0.4071  0.0344
14783TIP3   OH265763   4.708   1.743  12.034 -0.0064 -0.3385  0.6347
14783TIP3    H165764   4.717   1.837  12.048  0.5647 -0.1220 -0.9827
14783TIP3    H265765   4.766   1.724  11.960  0.4396 -2.0960  1.3803
14784TIP3   OH265766   5.623   5.856  14.146 -0.1714  0.1607  0.3570
14784TIP3    H165767   5.595   5.766  14.157  1.3063 -0.4935 -0.8234
14784TIP3    H265768   5.547   5.902  14.111  0.0452 -1.4957 -2.5958
14785TIP3   OH265769   0.933   6.176   1.116  0.2934  0.2748 -0.3383
14785TIP3    H165770   0.861   6.169   1.053  1.3766 -0.8023 -1.5247
14785TIP3    H265771   0.921   6.261   1.157 -1.5441  0.1929 -0.6239
14786TIP3   OH265772   5.250   2.934   4.844  0.0790  0.2389 -0.6704
14786TIP3    H165773   5.191   2.965   4.775 -0.7618 -0.2080 -0.1815
14786TIP3    H265774   5.221   2.844   4.861  0.2984  0.3270  0.2346
14787TIP3   OH265775   1.232   1.350   6.332 -0.4769 -0.4629 -0.4725
14787TIP3    H165776   1.168   1.307   6.275  0.1410 -2.1757  0.0660
14787TIP3    H265777   1.304   1.288   6.338 -0.7856 -0.6478  2.6708
14788TIP3   OH265778   3.787   3.385   3.892 -0.4358 -0.3830  0.3564
14788TIP3    H165779   3.845   3.387   3.969 -0.4932  0.7693  0.3841
14788TIP3    H265780   3.752   3.474   3.886  0.2632 -0.1985 -1.5484
14789TIP3   OH265781   5.007   5.715   1.277  0.4091 -0.2146  0.5814
14789TIP3    H165782   5.087   5.763   1.256  0.6577 -0.3353  1.2349
14789TIP3    H265783   5.002   5.718   1.372 -1.1490  1.0598  0.5020
14790TIP3   OH265784   0.426   2.050   0.827  0.8426  0.4298 -0.1280
14790TIP3    H165785   0.429   2.076   0.919 -0.9511  0.4501 -0.0496
14790TIP3    H265786   0.417   2.133   0.779 -0.3008  0.3059 -0.1633
14791TIP3   OH265787   2.759   6.401   3.992 -0.6378 -0.5564  0.6703
14791TIP3    H165788   2.716   6.319   3.968  1.2601 -1.4219  0.0366
14791TIP3    H265789   2.702   6.469   3.955 -1.6712 -1.6098  0.2422
14792TIP3   OH265790   6.007   0.444   6.003  0.0806  0.2378  0.6738
14792TIP3    H165791   6.083   0.437   5.946  0.8720  1.0044  1.6098
14792TIP3    H265792   6.017   0.373   6.067 -1.0305 -0.8977 -0.3589
14793TIP3   OH265793   6.623   0.719  11.207 -0.3964 -0.2017 -0.1574
14793TIP3    H165794   6.649   0.630  11.231 -1.4181 -0.1450  1.2510
14793TIP3    H265795   6.623   0.719  11.111  0.1448 -1.5501 -0.1723
14794TIP3   OH265796   0.438   1.568   0.127  0.0650 -0.3952  0.2670
14794TIP3    H165797   0.381   1.557   0.052  1.6487  0.6165 -1.1494
14794TIP3    H265798   0.386   1.537   0.202 -1.5357 -1.4560 -1.2191
14795TIP3   OH265799   1.893   2.550  15.751 -0.3126 -0.0826 -0.8696
14795TIP3    H165800   1.869   2.639  15.777 -0.4729 -0.0153 -1.2427
14795TIP3    H265801   1.978   2.560  15.709 -0.1982 -0.1490 -0.6585
14796TIP3   OH265802   1.536   6.104   2.139 -0.1506  0.5741 -0.1723
14796TIP3    H165803   1.564   6.190   2.108  1.9427  1.2582  3.1083
14796TIP3    H265804   1.608   6.045   2.117 -0.4431  0.2110 -0.1663
14797TIP3   OH265805   2.288   6.108   1.170  0.1614 -0.3877  0.0578
14797TIP3    H165806   2.325   6.124   1.256 -0.2401  1.4996 -0.0684
14797TIP3    H265807   2.314   6.184   1.118 -1.0475 -0.6341 -0.9772
14798TIP3   OH265808   3.329   2.044   6.119  0.1674  0.5719 -0.3198
14798TIP3    H165809   3.341   1.956   6.083  1.6669 -0.8543  3.2573
14798TIP3    H265810   3.396   2.097   6.076  2.1224 -1.1218  0.4707
14799TIP3   OH265811   5.283   5.092  11.663 -0.3254 -0.3587  0.3786
14799TIP3    H165812   5.249   5.148  11.594 -1.4829  1.6348  2.4535
14799TIP3    H265813   5.347   5.146  11.710 -0.6264 -1.1203  1.7423
14800TIP3   OH265814   6.365   6.077   0.909 -0.2118 -0.5872  0.0780
14800TIP3    H165815   6.293   6.136   0.933  0.2965  0.2143 -0.2965
14800TIP3    H265816   6.389   6.104   0.820  0.0901 -1.3167 -0.0679
14801TIP3   OH265817   1.945   4.247   1.507 -0.3617  0.5088  0.9741
14801TIP3    H165818   1.997   4.194   1.446 -0.6752  1.8279 -0.4853
14801TIP3    H265819   2.008   4.276   1.573  0.9691  2.5261 -1.0495
14802TIP3   OH265820   3.680   1.861   3.787 -0.0100 -0.2884 -0.2243
14802TIP3    H165821   3.591   1.854   3.750 -0.4470 -0.6180  0.8517
14802TIP3    H265822   3.681   1.947   3.828 -0.6869 -1.2330  1.8749
14803TIP3   OH265823   3.451   0.395  12.567 -0.7850  0.4788  0.4019
14803TIP3    H165824   3.416   0.367  12.652  0.2802  0.5754  0.8960
14803TIP3    H265825   3.512   0.466  12.589 -0.4543  0.4616 -0.4421
14804TIP3   OH265826   4.484   0.655   1.908  0.1571 -0.1053  0.2785
14804TIP3    H165827   4.408   0.648   1.965 -0.6050  0.9943 -0.5796
14804TIP3    H265828   4.482   0.574   1.856 -0.3941 -0.1031  0.2919
14805TIP3   OH265829   4.427   3.435   6.146 -0.3882  0.5289  0.4367
14805TIP3    H165830   4.349   3.438   6.200 -1.1325  1.7593 -0.6462
14805TIP3    H265831   4.397   3.459   6.058  0.8550 -0.8944 -0.4541
14806TIP3   OH265832   0.462   5.527  13.469 -0.4481 -0.0053  0.1479
14806TIP3    H165833   0.515   5.476  13.408 -2.4388 -3.6423  1.1719
14806TIP3    H265834   0.392   5.563  13.415  0.2112  0.5368 -0.3708
14807TIP3   OH265835   1.595   1.612   6.036 -0.2926  0.2720  0.3279
14807TIP3    H165836   1.543   1.679   6.080 -4.2008 -2.2140  0.0082
14807TIP3    H265837   1.586   1.632   5.942  1.0150  0.8586  0.3013
14808TIP3   OH265838   5.344   2.302   1.086 -0.6760  0.1798  0.0431
14808TIP3    H165839   5.421   2.252   1.114 -1.0951  0.4354  1.7857
14808TIP3    H265840   5.376   2.358   1.015  0.9402  0.8199  1.2121
14809TIP3   OH265841   4.493   5.430  10.400  0.0047  0.0683 -0.8144
14809TIP3    H165842   4.564   5.367  10.416  0.3437  0.4191 -0.9206
14809TIP3    H265843   4.531   5.493  10.339  1.0752  2.7041  2.3032
14810TIP3   OH265844   3.431   2.018   2.710  0.3955  0.8343 -0.6002
14810TIP3    H165845   3.470   1.931   2.724  0.5904  1.1473  0.9717
14810TIP3    H265846   3.345   2.012   2.750  0.0299  1.1011 -1.3205
14811TIP3   OH265847   4.134   4.794   5.148 -0.1946 -0.2581  0.2958
14811TIP3    H165848   4.079   4.779   5.225  0.1050  2.2428  1.0810
14811TIP3    H265849   4.216   4.747   5.167  0.1590  0.9305  1.8912
14812TIP3   OH265850   3.007   1.026  16.825 -0.8110  0.0962  0.0518
14812TIP3    H165851   3.029   0.933  16.820 -0.8327  0.1299 -0.9994
14812TIP3    H265852   3.020   1.058  16.735  0.5512  1.4138  0.6706
14813TIP3   OH265853   2.601   5.500   3.361 -0.1188 -0.6949  0.2228
14813TIP3    H165854   2.666   5.541   3.304 -1.9652 -0.7109 -2.0324
14813TIP3    H265855   2.622   5.406   3.357 -0.1918 -0.6881 -0.3746
14814TIP3   OH265856   6.293   4.213  13.986 -0.1632  0.0419  0.2939
14814TIP3    H165857   6.235   4.290  13.986 -0.2718 -0.0334 -0.3483
14814TIP3    H265858   6.234   4.139  14.002  0.1314  0.2021  2.3953
14815TIP3   OH265859   4.897   6.509   4.385 -0.5512 -0.1024  0.1833
14815TIP3    H165860   4.850   6.539   4.462  0.5385  1.5722  0.2468
14815TIP3    H265861   4.898   6.584   4.326 -2.0204 -1.5452 -1.8521
14816TIP3   OH265862   6.406   6.767   2.263 -0.4066  0.2597  0.0472
14816TIP3    H165863   6.323   6.737   2.300 -0.4972  0.2070 -0.1968
14816TIP3    H265864   6.444   6.689   2.224  0.3311  0.0059  1.2061
14817TIP3   OH265865   1.101   3.509  14.421 -0.3094  0.2075 -0.0606
14817TIP3    H165866   1.119   3.535  14.511  2.0087  0.6463 -0.5856
14817TIP3    H265867   1.145   3.424  14.411 -0.6939  0.0790 -0.7342
14818TIP3   OH265868   2.350   5.205   1.785 -0.7522 -0.3586  0.0764
14818TIP3    H165869   2.338   5.142   1.713 -1.3751  2.4612 -2.5166
14818TIP3    H265870   2.436   5.184   1.821 -0.9386 -2.6560 -0.6384
14819TIP3   OH265871   1.748   4.543   4.503 -0.0647 -0.7808 -0.4185
14819TIP3    H165872   1.751   4.447   4.503  1.1869 -0.7561  0.3810
14819TIP3    H265873   1.694   4.565   4.426 -0.8904 -2.1237 -0.2669
14820TIP3   OH265874   0.690   3.267  14.296  0.5681  0.6768  0.0758
14820TIP3    H165875   0.765   3.210  14.277  0.3503  0.7204 -0.9492
14820TIP3    H265876   0.718   3.354  14.269  0.2303  0.7288 -0.1193
14821TIP3   OH265877   0.093   4.018   2.776 -0.4084 -0.4357  0.3584
14821TIP3    H165878   0.098   3.965   2.696  0.4975 -1.4803  1.0665
14821TIP3    H265879   0.036   3.968   2.834 -1.1243  0.3582  0.3543
14822TIP3   OH265880   5.765   1.750  10.923  0.1638 -0.4674 -0.5847
14822TIP3    H165881   5.835   1.810  10.897 -0.5169 -0.0449 -1.4755
14822TIP3    H265882   5.720   1.727  10.842 -1.3741  0.0766  0.0670
14823TIP3   OH265883   4.984   0.384  13.045 -0.2306 -1.1574  0.7307
14823TIP3    H165884   5.068   0.429  13.053 -1.5231  1.2594  2.2085
14823TIP3    H265885   4.943   0.423  12.967  0.4174 -3.2037 -0.7203
14824TIP3   OH265886   1.120   6.446   4.142  0.1381  0.0545 -0.1169
14824TIP3    H165887   1.099   6.538   4.123  1.1460  1.3242  3.8363
14824TIP3    H265888   1.216   6.444   4.146  0.1214 -1.1589 -0.0796
14825TIP3   OH265889   5.212   2.647  13.649 -0.3333  0.3698 -0.0286
14825TIP3    H165890   5.158   2.642  13.570 -0.4173 -0.5348  0.0765
14825TIP3    H265891   5.216   2.740  13.670 -1.6665  0.4773 -0.1745
14826TIP3   OH265892   2.268   3.698   1.705  0.2172  0.2076  0.0644
14826TIP3    H165893   2.315   3.781   1.707  0.2670  0.1938 -0.4879
14826TIP3    H265894   2.183   3.719   1.667 -0.8589  0.5405  2.4673
14827TIP3   OH265895   5.860   1.486   0.799  0.0107  0.1853 -0.3524
14827TIP3    H165896   5.773   1.498   0.837 -1.0414 -0.6110 -2.3343
14827TIP3    H265897   5.904   1.426   0.859 -1.6463 -1.2117 -0.4387
14828TIP3   OH265898   1.330   4.075  13.737 -0.6251 -0.3990  0.0531
14828TIP3    H165899   1.246   4.119  13.752  0.1138  0.9120  0.5238
14828TIP3    H265900   1.395   4.144  13.748  0.5083 -1.3336 -0.5892
14829TIP3   OH265901   6.344   6.399  14.180 -0.4812 -0.5239  0.0748
14829TIP3    H165902   6.312   6.377  14.268  3.2638  2.2173  2.4172
14829TIP3    H265903   6.291   6.475  14.154  1.6876  2.1243  2.6106
14830TIP3   OH265904   6.618   6.004  14.244 -0.1218 -0.5072 -0.3625
14830TIP3    H165905   6.547   6.039  14.299  1.5422  1.6582  0.5517
14830TIP3    H265906   6.598   6.036  14.156  0.8410  2.0676  0.2864
14831TIP3   OH265907   2.922   0.618   2.922  0.0890 -0.0001 -0.0200
14831TIP3    H165908   2.953   0.641   3.009 -1.7482  1.0328  0.3994
14831TIP3    H265909   2.827   0.629   2.926 -0.1711 -1.1720 -1.7905
14832TIP3   OH265910   3.875   4.778   5.717 -0.5011  0.0912 -0.7215
14832TIP3    H165911   3.881   4.871   5.737 -0.1288  0.1610 -1.1448
14832TIP3    H265912   3.884   4.735   5.802 -0.0528  0.4195 -0.5997
14833TIP3   OH265913   3.128   3.150   0.331  0.0238 -0.0768  0.3342
14833TIP3    H165914   3.074   3.071   0.336 -0.6786  0.2051 -1.6450
14833TIP3    H265915   3.203   3.132   0.387 -0.7035 -1.6692  0.8449
14834TIP3   OH265916   0.409   3.989  13.838 -0.5905  0.9436 -0.1574
14834TIP3    H165917   0.427   4.066  13.891  0.7585  0.3965  0.2325
14834TIP3    H265918   0.372   3.925  13.899  1.6766  0.0403  0.3900
14835TIP3   OH265919   1.424   5.826   4.417  0.3905 -0.3774  0.0799
14835TIP3    H165920   1.379   5.903   4.451  1.2069 -0.6113  1.8007
14835TIP3    H265921   1.416   5.760   4.487  0.1239 -1.7055 -1.1499
14836TIP3   OH265922   3.904   1.662   2.105 -0.6671 -0.0620 -0.4050
14836TIP3    H165923   3.962   1.670   2.181 -0.9476 -0.2418 -0.1696
14836TIP3    H265924   3.840   1.597   2.131 -1.1247  0.3201 -0.5671
14837TIP3   OH265925   6.129   2.157   5.158  0.2182  0.2233 -0.0011
14837TIP3    H165926   6.101   2.136   5.246 -2.2583  0.6278 -0.6281
14837TIP3    H265927   6.145   2.072   5.116 -1.1068 -0.0823  0.0886
14838TIP3   OH265928   2.078   6.375  12.147  0.2684  0.0322  0.5790
14838TIP3    H165929   2.169   6.347  12.134 -0.0519 -1.4255  1.3118
14838TIP3    H265930   2.029   6.294  12.156 -0.9679  0.8154  1.1221
14839TIP3   OH265931   2.562   6.649  14.226 -0.3419 -0.5011 -0.0219
14839TIP3    H165932   2.502   6.575  14.228  1.2525 -1.8484 -0.6776
14839TIP3    H265933   2.592   6.658  14.317 -1.0806 -0.1823  0.1960
14840TIP3   OH265934   3.452   5.155  13.205  0.4712 -0.1537  0.6069
14840TIP3    H165935   3.380   5.216  13.224  0.3222  0.0538 -0.5570
14840TIP3    H265936   3.456   5.152  13.109  1.2791 -1.0394  0.6582
14841TIP3   OH265937   3.527   2.068   3.137  0.9924  0.4547 -0.0768
14841TIP3    H165938   3.540   2.031   3.224  0.2189 -0.6503 -0.4083
14841TIP3    H265939   3.435   2.094   3.136  1.3284  1.6993 -0.1213
14842TIP3   OH265940   3.600   2.249  16.883  0.3883 -0.1007  0.5642
14842TIP3    H165941   3.611   2.280  16.972  0.9365 -0.9283  0.7989
14842TIP3    H265942   3.532   2.305  16.846  0.6118  0.6673  1.2871
14843TIP3   OH265943   3.606   4.809   0.172  0.0606  0.1924  0.5468
14843TIP3    H165944   3.601   4.837   0.263  0.8487 -0.0772  0.6886
14843TIP3    H265945   3.535   4.746   0.162  0.6437 -0.6163  1.3034
14844TIP3   OH265946   5.934   0.110   5.926  0.1981  0.0670  0.4663
14844TIP3    H165947   6.023   0.112   5.961  0.3822  0.5658 -0.0299
14844TIP3    H265948   5.939   0.156   5.843 -0.7127  0.9496  0.8759
14845TIP3   OH265949   2.741   0.433  17.293 -0.3385 -0.1327 -0.0477
14845TIP3    H165950   2.823   0.475  17.320 -0.5993  1.1511 -1.1332
14845TIP3    H265951   2.769   0.353  17.249  0.3583  0.3884 -0.5840
14846TIP3   OH265952   2.175   4.960   0.857  0.4462 -0.1801 -0.4949
14846TIP3    H165953   2.119   4.882   0.861 -0.8956  0.7784  2.6291
14846TIP3    H265954   2.258   4.932   0.895  0.4486 -0.4304 -0.6808
14847TIP3   OH265955   3.539   2.271   1.646  0.3083  0.0366  0.0775
14847TIP3    H165956   3.634   2.275   1.654  0.4485 -0.8188 -0.8503
14847TIP3    H265957   3.506   2.332   1.712  1.5321  1.3954 -0.5112
14848TIP3   OH265958   1.496   1.287   2.361 -0.0862 -0.2890 -0.5454
14848TIP3    H165959   1.469   1.362   2.414  0.5906 -0.4023 -0.0271
14848TIP3    H265960   1.513   1.217   2.424  0.1073 -0.6211 -0.9562
14849TIP3   OH265961   3.468   3.832  13.138  0.0597 -0.2731  0.2335
14849TIP3    H165962   3.513   3.917  13.135  0.6449 -0.5960 -1.7524
14849TIP3    H265963   3.529   3.771  13.097 -0.4582 -1.6437  1.3996
14850TIP3   OH265964   6.639   0.987  13.157 -0.2700  0.1028 -0.1020
14850TIP3    H165965   6.568   0.988  13.221 -1.0439 -2.1489 -0.8417
14850TIP3    H265966   6.641   1.076  13.122 -1.0882  0.8532  1.6610
14851TIP3   OH265967   3.229   4.089   2.293 -0.5523  0.6317 -0.7438
14851TIP3    H165968   3.270   4.030   2.229 -2.2503 -1.5515  0.0434
14851TIP3    H265969   3.293   4.158   2.306  0.7905 -0.0268 -3.1251
14852TIP3   OH265970   3.762   2.197  15.604  0.4069 -0.3007  0.5543
14852TIP3    H165971   3.707   2.268  15.637 -0.2570 -1.0439  1.1137
14852TIP3    H265972   3.699   2.131  15.573  0.9833 -0.9936  0.8218
14853TIP3   OH265973   4.051   1.577   5.620  0.3367  0.1539  0.3771
14853TIP3    H165974   3.966   1.574   5.664 -0.4594 -2.2270 -1.1064
14853TIP3    H265975   4.101   1.643   5.668 -1.8964  0.7224  2.0924
14854TIP3   OH265976   0.187   4.929  12.792  0.2785 -0.0124  0.5581
14854TIP3    H165977   0.233   4.925  12.708  1.4608 -0.6590  1.2053
14854TIP3    H265978   0.209   4.846  12.835 -0.6254  0.1413  1.3468
14855TIP3   OH265979   0.523   5.279  14.573 -0.3733  0.0157  0.3890
14855TIP3    H165980   0.591   5.213  14.586  0.5816  1.0817  0.9610
14855TIP3    H265981   0.570   5.362  14.574 -1.3167  0.6499 -2.0426
14856TIP3   OH265982   2.105   4.671  15.053  0.0502  0.1154 -0.9887
14856TIP3    H165983   2.175   4.717  15.098 -2.0595  0.5744  2.1701
14856TIP3    H265984   2.146   4.592  15.018  2.0633 -0.0195  1.3998
14857TIP3   OH265985   2.271   3.930   2.844 -0.0847  0.0633 -0.1036
14857TIP3    H165986   2.196   3.914   2.902  1.1428  1.4469  2.0211
14857TIP3    H265987   2.334   3.862   2.868  0.5641  0.8513  0.4966
14858TIP3   OH265988   0.357   6.074  15.338 -0.2778  0.2145  0.1160
14858TIP3    H165989   0.444   6.097  15.305 -0.2239  2.2189  1.4627
14858TIP3    H265990   0.314   6.030  15.265  1.7902 -0.6705 -0.6342
14859TIP3   OH265991   4.219   6.223  11.988  0.4666 -0.0310 -0.5546
14859TIP3    H165992   4.169   6.298  11.955 -0.0961 -0.9990 -2.0065
14859TIP3    H265993   4.304   6.260  12.011 -0.3265  1.3420  0.3286
14860TIP3   OH265994   6.309   4.045  12.204 -0.5171 -0.4977 -0.4356
14860TIP3    H165995   6.394   4.084  12.185  0.6142 -0.4970  3.6540
14860TIP3    H265996   6.246   4.097  12.154  1.4754  2.5843  0.0105
14861TIP3   OH265997   4.141   3.743  10.479  0.0507 -0.9705 -0.1747
14861TIP3    H165998   4.136   3.686  10.556  1.9951 -3.1020 -1.5017
14861TIP3    H265999   4.235   3.759  10.467 -0.3931  2.1285 -0.2209
14862TIP3   OH266000   2.730   1.677   4.515  0.2728 -0.1837 -0.0946
14862TIP3    H166001   2.743   1.736   4.440 -1.2762 -0.4742 -0.6475
14862TIP3    H266002   2.681   1.731   4.578  1.3725 -0.0117  0.6255
14863TIP3   OH266003   3.104   5.940  11.451 -0.3739 -0.1540  0.1595
14863TIP3    H166004   3.102   6.028  11.416 -0.6764 -0.1058  0.2953
14863TIP3    H266005   3.071   5.884  11.380  1.8083 -0.4426 -0.7122
14864TIP3   OH266006   5.052   3.819  15.385 -0.2164 -0.0726  0.4499
14864TIP3    H166007   5.027   3.888  15.324 -2.7750  0.0660  1.5380
14864TIP3    H266008   5.065   3.864  15.469  0.1794 -0.6459  0.7026
14865TIP3   OH266009   4.752   4.173   3.310  0.4095  0.3474 -0.3644
14865TIP3    H166010   4.686   4.202   3.372  0.8476 -1.2104  0.8923
14865TIP3    H266011   4.726   4.083   3.288  1.9934 -0.2406  0.0378
14866TIP3   OH266012   4.665   6.219   5.932 -0.2873 -0.3862  0.2252
14866TIP3    H166013   4.733   6.156   5.958 -0.0880 -0.3039 -0.0986
14866TIP3    H266014   4.594   6.204   5.996  0.6804  0.6722  1.6030
14867TIP3   OH266015   1.723   0.736   2.575 -0.6794  0.1237 -0.2343
14867TIP3    H166016   1.726   0.664   2.638  2.0438  0.6034  0.3069
14867TIP3    H266017   1.746   0.696   2.491  2.7489  0.5430  0.3887
14868TIP3   OH266018   1.317   0.733  14.620  0.0259  0.3350  0.0190
14868TIP3    H166019   1.397   0.781  14.641 -0.7069  1.0182  1.3413
14868TIP3    H266020   1.250   0.800  14.608 -0.4023 -0.2364 -0.9265
14869TIP3   OH266021   4.095   0.924  12.075 -0.5881  0.2705 -0.0060
14869TIP3    H166022   4.102   0.859  12.006 -1.0416 -0.2095  0.3929
14869TIP3    H266023   4.008   0.910  12.113 -1.3965  2.2000 -1.0012
14870TIP3   OH266024   5.044   4.975  15.097 -0.5004  0.1401 -0.2466
14870TIP3    H166025   5.042   5.026  15.016  0.0799 -0.6545 -0.7733
14870TIP3    H266026   4.974   4.912  15.088  0.3594 -0.7759 -0.7003
14871TIP3   OH266027   0.391   3.308   1.614 -0.6565  0.1712  0.0163
14871TIP3    H166028   0.486   3.307   1.605 -0.6179  2.1604 -0.0786
14871TIP3    H266029   0.375   3.286   1.706  0.1479  3.6510  1.1169
14872TIP3   OH266030   4.147   2.870  14.868  0.1282 -0.8585 -0.2098
14872TIP3    H166031   4.226   2.852  14.919  0.2160 -0.8864 -0.3535
14872TIP3    H266032   4.079   2.815  14.908  0.1601 -0.7668 -0.0309
14873TIP3   OH266033   5.408   5.804   6.099 -0.2495  0.3223 -0.1948
14873TIP3    H166034   5.458   5.876   6.138  0.4115  1.3764 -2.7617
14873TIP3    H266035   5.322   5.842   6.081 -0.0552  0.3586 -1.1069
14874TIP3   OH266036   5.226   6.084   1.512  0.0004  0.0620  0.6139
14874TIP3    H166037   5.240   6.020   1.581  0.3081  0.2922  0.7683
14874TIP3    H266038   5.309   6.132   1.506 -0.4084  0.8270  0.8960
14875TIP3   OH266039   4.079   0.415   6.493 -0.4455  0.2094  0.2843
14875TIP3    H166040   3.989   0.386   6.507 -0.3843 -0.6607 -0.9232
14875TIP3    H266041   4.072   0.479   6.421  0.1489 -1.9267 -1.8059
14876TIP3   OH266042   6.268   3.155  12.139 -0.3292 -0.0680 -0.3434
14876TIP3    H166043   6.286   3.239  12.181  0.9936 -1.0012  1.0510
14876TIP3    H266044   6.200   3.175  12.074 -0.5282  1.9330  0.4047
14877TIP3   OH266045   3.863   3.755   3.107  0.0830  0.1888 -0.6922
14877TIP3    H166046   3.873   3.668   3.067  1.0850  1.1607 -2.7540
14877TIP3    H266047   3.828   3.809   3.036 -1.2701  1.3172  0.7808
14878TIP3   OH266048   0.863   4.247  17.033 -0.5533 -0.2733  0.5211
14878TIP3    H166049   0.853   4.330  16.987  2.2100 -1.6373 -2.9677
14878TIP3    H266050   0.780   4.201  17.019 -0.6184  0.2954 -1.1135
14879TIP3   OH266051   0.409   6.447  15.322 -0.2208  0.1890  0.4871
14879TIP3    H166052   0.425   6.355  15.344  0.6399  0.7176  2.3093
14879TIP3    H266053   0.314   6.458  15.334 -0.4568 -0.6000 -0.4746
14880TIP3   OH266054   4.496   3.812   5.564  0.2003  0.2434 -0.3862
14880TIP3    H166055   4.470   3.863   5.487 -0.6726 -0.0716 -0.3091
14880TIP3    H266056   4.417   3.810   5.619  0.6293 -0.0653  0.2242
14881TIP3   OH266057   3.658   6.562  12.923  0.6382 -0.1332 -0.3006
14881TIP3    H166058   3.572   6.604  12.923  0.7042  0.0005 -0.3327
14881TIP3    H266059   3.646   6.484  12.977  0.0384 -1.0467 -1.6820
14882TIP3   OH266060   0.987   1.657  15.626  0.3657  0.1852 -0.5698
14882TIP3    H166061   0.896   1.679  15.649  1.4471  2.0902  2.4867
14882TIP3    H266062   1.020   1.736  15.584  0.1285 -1.2725 -3.8107
14883TIP3   OH266063   0.065   1.694  12.908 -0.0270  0.2905  0.2818
14883TIP3    H166064   0.004   1.704  12.981 -1.2884 -1.7675 -0.4053
14883TIP3    H266065   0.128   1.629  12.937  0.0360  0.1715 -0.1069
14884TIP3   OH266066   5.971   1.339  11.637 -0.2787 -0.8449  0.0001
14884TIP3    H166067   6.051   1.301  11.674  0.2605 -0.3528 -0.6408
14884TIP3    H266068   5.996   1.428  11.611 -1.6658  0.2312  2.0440
14885TIP3   OH266069   6.755   4.826  12.342  0.3676 -0.5059 -0.5585
14885TIP3    H166070   6.801   4.804  12.261  2.8636  0.7905  0.4153
14885TIP3    H266071   6.764   4.921  12.349  0.2973 -0.6191  1.3005
14886TIP3   OH266072   4.490   2.119  12.607  0.0299  0.1531 -0.1331
14886TIP3    H166073   4.450   2.037  12.634 -0.3068  0.6795  1.0523
14886TIP3    H266074   4.521   2.159  12.689 -1.6607  2.1372 -0.3778
14887TIP3   OH266075   2.054   3.574  14.500 -0.2196 -0.2273 -0.2027
14887TIP3    H166076   2.142   3.537  14.491 -0.2615  0.0517 -2.1842
14887TIP3    H266077   2.000   3.501  14.529  0.3607 -0.8010 -0.5409
14888TIP3   OH266078   0.016   2.588   2.655 -0.3244  0.3401  0.4362
14888TIP3    H166079  -0.070   2.562   2.620  0.7909 -1.8362 -0.9642
14888TIP3    H266080   0.007   2.681   2.674 -2.3956  0.6846 -1.6687
14889TIP3   OH266081   0.452   2.458   1.960 -0.0126  0.4272 -0.1315
14889TIP3    H166082   0.409   2.419   2.037  0.0528 -0.3614 -0.4834
14889TIP3    H266083   0.400   2.428   1.886  0.9938 -0.3455 -0.5488
14890TIP3   OH266084   3.285   6.506   2.542  0.2793  0.0618  0.0691
14890TIP3    H166085   3.295   6.599   2.560  0.8014 -0.1059  0.6887
14890TIP3    H266086   3.342   6.489   2.467 -0.3678  0.3743 -0.5036
14891TIP3   OH266087   6.323   6.033   2.535 -0.3213 -0.2255  0.4052
14891TIP3    H166088   6.404   6.075   2.506 -1.4219  1.3196 -0.5775
14891TIP3    H266089   6.325   6.042   2.631 -1.1916  3.6168  0.2324
14892TIP3   OH266090   3.958   3.186  15.779 -0.3212  0.0410  0.4422
14892TIP3    H166091   3.899   3.211  15.850  0.8012 -0.7775  1.7088
14892TIP3    H266092   3.916   3.110  15.738 -0.1591 -0.5521  1.3515
14893TIP3   OH266093   5.736   2.672   5.862  0.4011  0.3426 -0.0042
14893TIP3    H166094   5.750   2.579   5.881  2.6013  0.9547  1.8602
14893TIP3    H266095   5.824   2.708   5.852 -0.3972  2.2467 -0.6772
14894TIP3   OH266096   0.548   0.088  14.386  0.2436  0.1252  0.6140
14894TIP3    H166097   0.483   0.017  14.385  0.5169 -0.1256 -0.3436
14894TIP3    H266098   0.617   0.057  14.328 -0.1796  1.6678 -0.7912
14895TIP3   OH266099   4.304   0.475  15.095 -0.4893 -0.0511  0.2600
14895TIP3    H166100   4.280   0.383  15.101 -0.1351 -0.2784 -1.3568
14895TIP3    H266101   4.369   0.478  15.026 -0.4361  1.4074  0.3476
14896TIP3   OH266102   5.552   5.755  15.528  0.6151 -0.4290  0.5048
14896TIP3    H166103   5.463   5.784  15.545  1.1526  0.5664  1.8399
14896TIP3    H266104   5.570   5.691  15.597  0.6259 -1.3492 -0.3320
14897TIP3   OH266105   2.206   3.007  12.137  0.0332  0.0338 -0.4689
14897TIP3    H166106   2.126   3.018  12.087 -2.6617 -1.4847  3.0859
14897TIP3    H266107   2.228   3.095  12.168 -1.0192  0.2880 -0.4320
14898TIP3   OH266108   0.198   2.693   5.556  0.3448  0.0858 -0.0510
14898TIP3    H166109   0.222   2.651   5.639 -0.1517 -1.3438 -0.5977
14898TIP3    H266110   0.141   2.629   5.513 -2.2435  2.1771  0.0152
14899TIP3   OH266111   0.803   2.070  15.609 -0.0720  0.0600  0.3791
14899TIP3    H166112   0.842   2.137  15.665  0.6757 -0.5033  0.5483
14899TIP3    H266113   0.845   2.083  15.524 -1.7515  1.4020 -0.2997
14900TIP3   OH266114   5.028   2.951  13.393 -0.0938  0.3677 -0.3189
14900TIP3    H166115   5.085   2.875  13.404 -0.8862 -0.2870 -0.6908
14900TIP3    H266116   5.009   2.954  13.299 -0.9152  0.3969 -0.1582
14901TIP3   OH266117   3.075   3.710  12.899  0.0702 -0.3387  0.0178
14901TIP3    H166118   3.101   3.646  12.831  0.5639 -0.0666 -0.0583
14901TIP3    H266119   2.987   3.736  12.874 -0.4417 -1.5531  0.4719
14902TIP3   OH266120   1.689   1.167  17.249  0.0369  0.1197  0.7205
14902TIP3    H166121   1.614   1.225  17.263 -0.7518 -0.8991  0.8550
14902TIP3    H266122   1.652   1.079  17.253  0.9033 -0.3875 -1.0975
14903TIP3   OH266123   6.229   6.148  11.127  0.5971 -0.3933  0.1312
14903TIP3    H166124   6.179   6.132  11.207  0.5173  0.3703  0.2459
14903TIP3    H266125   6.186   6.225  11.088  0.4191 -0.9629 -0.8249
14904TIP3   OH266126   2.207   5.994  16.202  0.4059  0.0970 -0.2277
14904TIP3    H166127   2.234   6.085  16.211  1.3153 -0.1802 -0.1221
14904TIP3    H266128   2.206   5.979  16.107 -1.3755  0.6822 -0.3460
14905TIP3   OH266129   1.726   2.111   4.278  0.4412  0.4257 -0.1200
14905TIP3    H166130   1.768   2.131   4.361 -0.7185 -1.4258  0.9648
14905TIP3    H266131   1.671   2.187   4.260  0.5943  0.7773  0.8582
14906TIP3   OH266132   3.513   5.018  16.914 -0.3608  0.1409  0.1061
14906TIP3    H166133   3.480   5.079  16.848 -0.6627  1.7700  1.6740
14906TIP3    H266134   3.559   5.074  16.977  1.7574 -1.5894  0.2092
14907TIP3   OH266135   2.986   0.256   5.027  0.1578  0.0260 -0.1751
14907TIP3    H166136   2.950   0.248   4.939  1.2788 -1.8072 -0.5080
14907TIP3    H266137   2.917   0.301   5.077 -0.9545  0.0760 -1.6922
14908TIP3   OH266138   2.663   1.318   4.954  0.1016  0.0217  0.0486
14908TIP3    H166139   2.647   1.236   4.907 -0.9297 -0.8056  1.7258
14908TIP3    H266140   2.587   1.373   4.934  0.2198  0.1105 -0.1543
14909TIP3   OH266141   3.865   2.722  12.535  0.2844  0.3001  0.0356
14909TIP3    H166142   3.819   2.802  12.510 -0.6635 -0.2547 -0.0594
14909TIP3    H266143   3.877   2.731  12.630  0.6471  0.7808 -0.0516
14910TIP3   OH266144   0.409   2.217  11.422 -0.3597 -0.5190 -0.0074
14910TIP3    H166145   0.372   2.228  11.334  2.3454 -0.1474 -1.2018
14910TIP3    H266146   0.383   2.296  11.469  0.3199  0.5423 -1.3536
14911TIP3   OH266147   2.840   4.200   4.912 -0.7606 -0.1757  0.4186
14911TIP3    H166148   2.811   4.220   5.001  0.5409  3.0511  0.2300
14911TIP3    H266149   2.934   4.219   4.912  0.1839 -3.9253 -0.7284
14912TIP3   OH266150   0.417   4.619  11.739  0.1811  0.9312 -0.3750
14912TIP3    H166151   0.418   4.617  11.643 -1.4327  0.0099 -0.4119
14912TIP3    H266152   0.490   4.562  11.765 -0.5288 -0.3757 -1.1135
14913TIP3   OH266153   6.267   2.688   0.562 -0.6712 -0.5972  0.4139
14913TIP3    H166154   6.316   2.675   0.643  1.5214 -1.3719 -0.9448
14913TIP3    H266155   6.257   2.600   0.526 -1.2342 -0.2172 -0.3846
14914TIP3   OH266156   5.124   3.637   0.333  0.6567 -0.1105 -0.2442
14914TIP3    H166157   5.066   3.679   0.396  0.0108  0.5136 -1.2213
14914TIP3    H266158   5.065   3.601   0.266  1.2326 -1.9898  0.1992
14915TIP3   OH266159   0.971   1.852   0.483  0.3513  0.4344 -0.0985
14915TIP3    H166160   0.895   1.885   0.435  0.2158 -0.5191 -0.5585
14915TIP3    H266161   0.935   1.790   0.546  0.6483  0.7875  0.4227
14916TIP3   OH266162   2.194   6.560  16.918 -0.1732 -0.3625  0.0973
14916TIP3    H166163   2.100   6.579  16.928 -0.2913 -1.5554  1.6476
14916TIP3    H266164   2.237   6.622  16.977 -0.2239 -1.5492  1.4537
14917TIP3   OH266165   0.372   6.001   1.176  0.1396 -0.7099  0.0769
14917TIP3    H166166   0.464   6.024   1.181 -0.1782  0.4478  0.9118
14917TIP3    H266167   0.355   5.991   1.082  1.0169 -0.5655 -0.1041
14918TIP3   OH266168   5.297   6.538  13.137 -0.1077 -0.2634 -0.8980
14918TIP3    H166169   5.242   6.614  13.149 -0.9358 -0.9050 -0.5236
14918TIP3    H266170   5.386   6.573  13.134 -0.4422  0.6741 -0.3642
14919TIP3   OH266171   2.185   0.133  10.526 -0.5420  0.0548 -0.1234
14919TIP3    H166172   2.261   0.177  10.487 -0.8442  0.2096 -0.5470
14919TIP3    H266173   2.209   0.041  10.529 -0.2859  0.1207 -0.1452
14920TIP3   OH266174   2.894   2.289   1.817  0.1458  0.5099 -0.3142
14920TIP3    H166175   2.805   2.271   1.787 -0.3373  1.0692  0.6929
14920TIP3    H266176   2.951   2.239   1.758 -0.8981 -0.9307 -0.1590
14921TIP3   OH266177   4.419   0.743   0.648  0.3769 -0.5289  0.3405
14921TIP3    H166178   4.459   0.829   0.635 -0.5495  0.0191  0.9801
14921TIP3    H266179   4.352   0.758   0.715 -0.2370 -1.6144 -0.0111
14922TIP3   OH266180   2.354   5.330   2.509 -0.1296  0.1389 -0.0389
14922TIP3    H166181   2.413   5.366   2.443 -0.2003 -2.3230 -1.5446
14922TIP3    H266182   2.409   5.272   2.562 -0.5192  0.4893  0.7728
14923TIP3   OH266183   2.210   5.693  15.468  0.2012 -0.4387 -0.6081
14923TIP3    H166184   2.300   5.696  15.434  0.4915  0.2083  0.2004
14923TIP3    H266185   2.156   5.728  15.397  0.6420 -0.3515 -0.9016
14924TIP3   OH266186   5.067   6.747   0.105 -0.3423 -0.0218  0.3573
14924TIP3    H166187   5.109   6.675   0.059 -0.0131 -0.1166  0.8012
14924TIP3    H266188   4.973   6.725   0.104 -0.1670 -0.8596  1.1756
14925TIP3   OH266189   2.709   3.462   2.640 -0.1699 -0.2377 -0.4906
14925TIP3    H166190   2.634   3.420   2.596 -1.1099  0.3590  0.4860
14925TIP3    H266191   2.673   3.493   2.723  1.1156  0.3114 -0.1221
14926TIP3   OH266192   2.629   5.192  14.689 -0.6734  0.4711 -0.1414
14926TIP3    H166193   2.691   5.189  14.616  0.3081 -0.9927  0.6817
14926TIP3    H266194   2.677   5.236  14.760 -0.4429 -0.8612  0.5705
14927TIP3   OH266195   5.437   2.637  17.123 -0.2778 -0.3703 -0.2243
14927TIP3    H166196   5.491   2.631  17.202  0.9600  0.6929 -0.9413
14927TIP3    H266197   5.423   2.731  17.111 -3.3694 -0.6083  0.5950
14928TIP3   OH266198   2.232   1.843   3.388  0.1633  0.2145  0.0490
14928TIP3    H166199   2.303   1.784   3.364  0.5263  0.5927  0.1850
14928TIP3    H266200   2.276   1.923   3.418 -0.2816 -0.0426  1.4542
14929TIP3   OH266201   4.090   3.917   3.040  0.0223  0.4736 -0.0417
14929TIP3    H166202   4.166   3.931   3.096 -0.1704  0.3372  0.2560
14929TIP3    H266203   4.058   3.831   3.064  1.0260 -0.4022 -1.6535
14930TIP3   OH266204   4.295   1.981  12.171 -0.2000 -0.5802  0.2233
14930TIP3    H166205   4.382   1.984  12.130  1.0988 -0.1263  2.7960
14930TIP3    H266206   4.266   1.891  12.159 -0.3802 -0.2443 -2.4920
14931TIP3   OH266207   2.214   0.718  13.980  0.0833 -0.8788 -0.0369
14931TIP3    H166208   2.156   0.680  14.046 -0.5107 -1.8924 -1.1313
14931TIP3    H266209   2.300   0.680  13.999  0.1893 -0.2397  0.8745
14932TIP3   OH266210   1.094   6.675   3.156 -0.1451 -0.6139 -0.0196
14932TIP3    H166211   1.050   6.758   3.137 -0.4070 -0.3554  1.5553
14932TIP3    H266212   1.187   6.693   3.142  0.1131  0.8025  2.8663
14933TIP3   OH266213   2.242   2.656   4.949 -0.2290  0.3111  0.6426
14933TIP3    H166214   2.337   2.650   4.963 -0.1402  0.9330  0.3438
14933TIP3    H266215   2.234   2.680   4.857 -0.7473 -2.1290 -0.0150
14934TIP3   OH266216   5.119   1.791   0.502 -0.2341 -0.1570  0.1147
14934TIP3    H166217   5.123   1.756   0.413  0.1442  0.7273 -0.2166
14934TIP3    H266218   5.031   1.767   0.533 -0.8047  0.5371 -0.9147
14935TIP3   OH266219   5.273   1.770  15.273 -0.1730 -0.0456 -1.0807
14935TIP3    H166220   5.268   1.790  15.366  1.0184  1.1713 -1.2526
14935TIP3    H266221   5.235   1.682  15.265 -0.2389 -0.1879  0.5411
14936TIP3   OH266222   3.799   3.137   4.184 -0.0282  0.2760 -0.0549
14936TIP3    H166223   3.895   3.137   4.187 -0.0074 -0.1112 -0.5506
14936TIP3    H266224   3.773   3.073   4.250  0.0921 -0.3274 -0.5733
14937TIP3   OH266225   3.669   2.531  16.439 -0.2793 -0.3202  0.5871
14937TIP3    H166226   3.686   2.438  16.426 -0.2126 -0.2274 -0.0072
14937TIP3    H266227   3.704   2.550  16.526 -3.3273 -1.5824  2.2431
14938TIP3   OH266228   1.063   3.949  11.436 -0.0459  0.2178  0.9810
14938TIP3    H166229   1.075   4.009  11.362 -1.3354 -0.2414  0.3619
14938TIP3    H266230   0.980   3.905  11.417  0.9279 -1.8564  1.3590
14939TIP3   OH266231   5.246   0.662   5.850  0.2021  0.1544  0.1017
14939TIP3    H166232   5.309   0.731   5.870 -1.3315  1.7364 -0.1840
14939TIP3    H266233   5.171   0.709   5.812 -0.5602 -1.7797 -0.9375
14940TIP3   OH266234   2.181   0.441   2.560  0.0723  0.2262 -0.0750
14940TIP3    H166235   2.161   0.415   2.650  1.0698  1.5872  0.5847
14940TIP3    H266236   2.267   0.401   2.543 -1.0155 -1.7918 -1.2381
14941TIP3   OH266237   2.799   1.209   5.953  0.0778 -0.0793  0.7080
14941TIP3    H166238   2.823   1.129   5.905 -0.4874 -0.7814  1.5673
14941TIP3    H266239   2.883   1.254   5.965  0.8036 -1.7001  2.2327
14942TIP3   OH266240   3.601   4.858  12.196 -0.6873 -0.4499  0.0432
14942TIP3    H166241   3.589   4.829  12.286 -0.0192  2.3939  1.1470
14942TIP3    H266242   3.518   4.838  12.153 -2.1223  0.7679  2.1064
14943TIP3   OH266243   4.067   6.206  15.108 -0.5355 -0.1992 -0.5106
14943TIP3    H166244   4.157   6.187  15.081 -0.3335  1.0972 -0.7933
14943TIP3    H266245   4.054   6.153  15.186  0.6072 -0.1018 -0.2396
14944TIP3   OH266246   2.115   0.299  16.297  0.3468 -0.0105 -0.6640
14944TIP3    H166247   2.100   0.392  16.278  1.9655  0.3374 -0.3444
14944TIP3    H266248   2.180   0.299  16.367  0.1142 -1.3913 -0.4283
14945TIP3   OH266249   2.080   5.034   2.840  0.3139  0.0766 -0.7767
14945TIP3    H166250   2.145   4.966   2.857 -0.3720 -0.5999 -0.8007
14945TIP3    H266251   2.028   4.999   2.768 -0.7812  0.0944 -0.0134
14946TIP3   OH266252   6.087   1.741   4.078 -0.2095 -0.4756  0.1988
14946TIP3    H166253   6.023   1.734   4.008  0.3432 -0.7355 -0.2900
14946TIP3    H266254   6.073   1.662   4.131 -0.8993 -0.0755  0.6198
14947TIP3   OH266255   3.200   0.151   3.662 -0.0681  0.1552  0.1601
14947TIP3    H166256   3.295   0.160   3.670 -0.1334 -0.4023  1.8390
14947TIP3    H266257   3.166   0.169   3.750 -1.4581 -0.4477 -0.2263
14948TIP3   OH266258   1.522   1.378  13.547 -0.4598  0.1284 -0.1245
14948TIP3    H166259   1.544   1.374  13.454 -0.1820 -0.4286 -0.0395
14948TIP3    H266260   1.429   1.355  13.550 -0.8417  1.5585 -0.3953
14949TIP3   OH266261   3.604   6.252  12.765 -0.2000 -0.2826  0.6793
14949TIP3    H166262   3.580   6.254  12.857 -1.9863  2.8581  0.3275
14949TIP3    H266263   3.532   6.206  12.722  0.1808 -0.9417  0.7334
14950TIP3   OH266264   0.347   2.141   3.649 -0.4357 -0.1097  0.3030
14950TIP3    H166265   0.422   2.093   3.613 -0.0723  0.5158  0.2262
14950TIP3    H266266   0.332   2.102   3.735  1.3338  1.1764  1.2458
14951TIP3   OH266267   5.730   2.438  13.674 -0.0717  0.0481 -0.5187
14951TIP3    H166268   5.666   2.463  13.607  0.0255 -1.2389 -1.1216
14951TIP3    H266269   5.781   2.368  13.633 -0.0704 -0.8335  0.9355
14952TIP3   OH266270   2.270   0.931   4.495 -0.0065 -0.2100  0.0858
14952TIP3    H166271   2.278   1.016   4.538 -1.5219 -0.6498  1.2985
14952TIP3    H266272   2.309   0.869   4.557  0.0177 -0.5478 -0.2638
14953TIP3   OH266273   4.704   0.019   3.451 -0.0779 -0.4790 -0.4235
14953TIP3    H166274   4.648   0.087   3.489  1.3623  0.2518  0.4699
14953TIP3    H266275   4.718  -0.043   3.523 -1.2384 -1.6846 -1.1833
14954TIP3   OH266276   2.580   5.348  12.892 -0.0723 -0.5872  0.6633
14954TIP3    H166277   2.654   5.356  12.953  0.3585  0.9611 -0.0251
14954TIP3    H266278   2.517   5.412  12.922 -1.1834 -1.9000  1.2401
14955TIP3   OH266279   3.153   6.772  15.750 -0.2498  0.4389  0.4045
14955TIP3    H166280   3.118   6.759  15.662 -0.3078 -0.1960  0.5140
14955TIP3    H266281   3.241   6.808  15.735 -0.7009  1.4368  0.1205
14956TIP3   OH266282   4.311   1.393   2.621  0.4437  0.2289  0.6603
14956TIP3    H166283   4.335   1.377   2.713 -0.3938 -0.2830  0.7984
14956TIP3    H266284   4.371   1.338   2.571  0.2102 -0.3091  0.9589
14957TIP3   OH266285   3.282   2.957  17.212  0.1423  0.1223  0.2345
14957TIP3    H166286   3.312   3.036  17.258  2.0648 -0.1067 -0.5221
14957TIP3    H266287   3.206   2.986  17.162 -0.0494  1.1419  1.0821
14958TIP3   OH266288   1.548   1.214   4.429 -0.0593 -0.4379 -0.2344
14958TIP3    H166289   1.521   1.277   4.496  2.1200  1.3864 -0.9142
14958TIP3    H266290   1.490   1.230   4.356  0.0426  0.3520 -0.1517
14959TIP3   OH266291   5.776   2.103   0.717 -0.0458 -0.3135  0.0462
14959TIP3    H166292   5.711   2.147   0.771 -0.5582 -0.6790 -0.2591
14959TIP3    H266293   5.740   2.015   0.704  1.2446 -1.0523  1.1745
14960TIP3   OH266294   0.041   0.560  11.778  0.4806 -0.1367  0.0838
14960TIP3    H166295   0.013   0.637  11.729  1.2380 -0.8418 -1.5269
14960TIP3    H266296   0.114   0.590  11.831  2.4139 -0.1852 -2.3572
14961TIP3   OH266297   3.283   6.166   4.929 -0.1620 -0.0009 -0.5984
14961TIP3    H166298   3.242   6.159   5.015 -2.1266 -1.8155 -1.5816
14961TIP3    H266299   3.240   6.240   4.888  0.0560  0.2419 -0.3930
14962TIP3   OH266300   4.017   2.694  12.164 -0.3407 -0.1066  0.6875
14962TIP3    H166301   3.959   2.663  12.233 -0.4594  1.0033  1.1078
14962TIP3    H266302   3.959   2.710  12.089 -0.4691  0.3014  0.8732
14963TIP3   OH266303   1.264   0.326   0.567  0.3090  0.3447  0.2058
14963TIP3    H166304   1.227   0.402   0.612  0.0796 -0.4742  1.4618
14963TIP3    H266305   1.358   0.331   0.583  0.5012  1.2367 -1.1139
14964TIP3   OH266306   1.734   4.896   3.369 -0.0562 -0.1005  0.0633
14964TIP3    H166307   1.679   4.943   3.306 -0.7552  0.4843  1.0862
14964TIP3    H266308   1.679   4.825   3.401 -0.1597  0.3652  0.9399
14965TIP3   OH266309   5.985   0.527  14.048  0.0163 -0.2071  0.0711
14965TIP3    H166310   6.074   0.525  14.012 -0.3353 -1.5137 -0.8100
14965TIP3    H266311   5.997   0.553  14.139  1.1139  1.3879 -0.4861
14966TIP3   OH266312   4.355   1.183  12.088  0.5056  0.0754 -0.1068
14966TIP3    H166313   4.288   1.124  12.054  0.8284  0.8876 -2.3732
14966TIP3    H266314   4.432   1.129  12.100 -0.1783 -0.6349  1.4223
14967TIP3   OH266315   1.156   5.027   3.302 -0.1600  0.0604  0.9107
14967TIP3    H166316   1.205   5.012   3.383  0.8431  0.1524  0.3244
14967TIP3    H266317   1.064   5.014   3.328  0.1453  0.0611  2.0542
14968TIP3   OH266318   6.122   1.833   3.036 -0.0965 -0.3094  0.1494
14968TIP3    H166319   6.151   1.744   3.059 -1.7304 -0.9840 -0.2248
14968TIP3    H266320   6.095   1.825   2.944  0.6561  0.8395 -0.1861
14969TIP3   OH266321   2.189   1.307  17.054  0.6731 -0.1539 -0.4872
14969TIP3    H166322   2.169   1.307  16.961 -0.3298 -2.4980 -0.3540
14969TIP3    H266323   2.104   1.317  17.097  1.0816  0.5379  0.1767
14970TIP3   OH266324   6.289   0.855  15.916  0.0530  0.3463 -0.5576
14970TIP3    H166325   6.229   0.930  15.921  0.7845  0.8486  2.4628
14970TIP3    H266326   6.236   0.780  15.941  0.2385  0.5096  0.3501
14971TIP3   OH266327   5.321   3.762   6.294 -0.7193  0.1193  0.5468
14971TIP3    H166328   5.275   3.746   6.377 -0.9229 -1.7757  0.1181
14971TIP3    H266329   5.324   3.857   6.286 -1.8872  0.3213  2.0726
14972TIP3   OH266330   0.753   0.549  17.022 -0.4082  0.1738 -0.0457
14972TIP3    H166331   0.843   0.577  17.006 -0.9981  1.1201 -1.8660
14972TIP3    H266332   0.733   0.488  16.952 -0.5658 -1.6466  1.4872
14973TIP3   OH266333   4.877   0.736  15.626 -0.0506 -0.7595  0.0933
14973TIP3    H166334   4.900   0.721  15.534 -2.3496 -0.7987 -0.5388
14973TIP3    H266335   4.959   0.726  15.673  1.3043 -0.1744 -2.0128
14974TIP3   OH266336   5.492   3.190   3.666  0.4427 -0.1143  0.0976
14974TIP3    H166337   5.449   3.115   3.625 -1.3384  1.2827 -0.7366
14974TIP3    H266338   5.527   3.241   3.593  2.0362 -0.3155  0.6766
14975TIP3   OH266339   4.490   4.289  13.992  0.4013 -0.4431  0.1668
14975TIP3    H166340   4.419   4.228  13.972  1.9632 -2.3922  0.1206
14975TIP3    H266341   4.549   4.239  14.049  1.3610  1.3480  0.8326
14976TIP3   OH266342   4.297   4.838   3.274  0.3773 -0.0831  0.2289
14976TIP3    H166343   4.279   4.932   3.263  1.4284  0.3438  1.7996
14976TIP3    H266344   4.217   4.802   3.312  0.3589  0.4154  0.6749
14977TIP3   OH266345   1.494   3.967   4.530 -0.0710 -0.2901 -0.2654
14977TIP3    H166346   1.568   3.907   4.538  0.3526  0.0945 -1.1021
14977TIP3    H266347   1.430   3.919   4.478 -0.9536 -1.0941  1.4936
14978TIP3   OH266348   0.813   3.567   5.598  0.1660 -0.0056  0.4809
14978TIP3    H166349   0.784   3.496   5.655  0.4327 -0.1450  0.4447
14978TIP3    H266350   0.859   3.628   5.656  0.0234  0.0897  0.4950
14979TIP3   OH266351   5.826   2.199   4.490 -0.3887 -0.2326  0.3113
14979TIP3    H166352   5.801   2.287   4.519  1.1297  0.8745 -1.5182
14979TIP3    H266353   5.901   2.176   4.545  1.0120  0.8898 -1.0115
14980TIP3   OH266354   0.698   1.913   0.370  0.7505 -0.7428 -0.5206
14980TIP3    H166355   0.644   1.992   0.374  0.5801 -0.8599 -0.4769
14980TIP3    H266356   0.644   1.845   0.411  0.2868 -1.2282 -1.8582
14981TIP3   OH266357   0.001   2.390  15.806  0.2760 -0.1410  0.2056
14981TIP3    H166358   0.083   2.383  15.758 -0.3295  1.0571 -1.0862
14981TIP3    H266359  -0.059   2.333  15.759  0.3373 -0.9660  1.1108
14982TIP3   OH266360   5.871   6.087   3.272  0.0900  0.4131  0.5097
14982TIP3    H166361   5.909   6.065   3.187 -0.7109 -2.4110  0.7980
14982TIP3    H266362   5.941   6.068   3.335 -0.0182  0.4310  0.6349
14983TIP3   OH266363   0.003   2.380   4.290 -0.1355 -0.4893 -0.0530
14983TIP3    H166364   0.048   2.333   4.221 -0.1462 -3.3746  1.7433
14983TIP3    H266365  -0.052   2.444   4.244  1.8487 -0.4167 -2.5105
14984TIP3   OH266366   3.799   1.498  13.364 -0.0053 -0.6285 -0.1475
14984TIP3    H166367   3.734   1.507  13.434  0.8738 -0.9263  0.7297
14984TIP3    H266368   3.755   1.445  13.298 -0.8424 -0.3795  0.1875
14985TIP3   OH266369   5.119   1.018  16.208 -0.1828 -0.1671 -0.4130
14985TIP3    H166370   5.026   1.032  16.226  0.2091  1.4322  0.6662
14985TIP3    H266371   5.161   1.028  16.294  1.2149  1.6626 -1.2378
14986TIP3   OH266372   1.458   4.511  16.194  0.7249  0.2687 -0.5016
14986TIP3    H166373   1.469   4.504  16.289  0.9357 -0.0824 -0.5491
14986TIP3    H266374   1.545   4.492  16.158  0.7420  0.7873 -0.7518
14987TIP3   OH266375   1.644   4.000   0.182 -0.0488 -0.0308 -0.4096
14987TIP3    H166376   1.619   4.088   0.154 -1.3636 -0.1067  0.4436
14987TIP3    H266377   1.696   4.014   0.261 -1.9825 -0.0387  0.9441
14988TIP3   OH266378   0.370   0.106   3.520  0.1656  0.4067 -0.2405
14988TIP3    H166379   0.357   0.046   3.593  0.9464 -0.0002 -0.4228
14988TIP3    H266380   0.447   0.158   3.546  0.2123  0.5235 -0.6077
14989TIP3   OH266381   0.997   5.061  14.214  0.2976  0.3237  0.1699
14989TIP3    H166382   1.091   5.049  14.231  0.5158 -0.0566 -1.2298
14989TIP3    H266383   0.990   5.150  14.180  0.8308 -0.9521 -3.8087
14990TIP3   OH266384   6.375   3.077   3.792 -0.2515  0.2140  0.0100
14990TIP3    H166385   6.372   3.126   3.710 -0.9373 -0.6405 -0.4980
14990TIP3    H266386   6.467   3.057   3.805 -0.0226  1.2296 -0.0163
14991TIP3   OH266387   6.356   4.583  11.142  0.5585 -0.7428  0.0034
14991TIP3    H166388   6.417   4.585  11.068  0.5168 -0.5292 -0.0261
14991TIP3    H266389   6.385   4.655  11.198  0.0507 -0.3514 -0.2330
14992TIP3   OH266390   2.985   6.494  14.758 -0.1149  0.6639  0.1176
14992TIP3    H166391   3.059   6.543  14.794  0.5276 -0.6124  0.6091
14992TIP3    H266392   3.011   6.402  14.765 -1.3489  0.2276 -0.6113
14993TIP3   OH266393   6.116   0.746  16.603 -0.6081  0.3253 -0.5160
14993TIP3    H166394   6.171   0.694  16.662  0.4647 -0.1907 -1.9066
14993TIP3    H266395   6.093   0.686  16.533 -0.2833  1.4158 -1.5882
14994TIP3   OH266396   1.862   6.260   6.423 -0.6087  0.3068 -0.0576
14994TIP3    H166397   1.939   6.316   6.422 -0.9604  0.8147  0.3705
14994TIP3    H266398   1.847   6.242   6.516  0.8953 -2.4864 -0.2408
14995TIP3   OH266399   2.237   3.819  14.435  0.2176 -0.2811 -0.0298
14995TIP3    H166400   2.172   3.753  14.412 -0.1469  0.4504 -1.1664
14995TIP3    H266401   2.292   3.828  14.357  0.1316  0.8990  0.0281
14996TIP3   OH266402   3.799   2.444  15.385  0.6656 -0.2267 -0.5640
14996TIP3    H166403   3.859   2.448  15.310 -0.7557 -1.2063 -1.8153
14996TIP3    H266404   3.779   2.536  15.404  2.5191  0.1245 -0.1128
14997TIP3   OH266405   4.866   2.360   0.771  0.1587  0.3458 -0.8482
14997TIP3    H166406   4.833   2.336   0.857 -0.0381  1.3486 -0.6272
14997TIP3    H266407   4.883   2.277   0.727  1.0444 -0.1940  0.4536
14998TIP3   OH266408   0.717   5.130  14.751  0.1013 -0.1173 -0.0256
14998TIP3    H166409   0.741   5.043  14.719  0.2052  0.2206 -0.8888
14998TIP3    H266410   0.691   5.116  14.842  3.1822 -0.5954  0.9054
14999TIP3   OH266411   1.496   5.824   0.655  0.0885  0.5858 -0.2424
14999TIP3    H166412   1.425   5.791   0.599 -0.1280  2.2493 -1.0066
14999TIP3    H266413   1.523   5.906   0.614  1.1355  0.9705  1.1390
15000TIP3   OH266414   5.607   6.079  15.382  0.1532  0.6316 -0.4609
15000TIP3    H166415   5.572   6.074  15.471  0.7261 -0.3955 -0.2725
15000TIP3    H266416   5.540   6.126  15.332 -0.9202 -0.1927  0.1606
15001TIP3   OH266417   0.671   5.624  15.752 -0.5301  0.2346 -0.2315
15001TIP3    H166418   0.700   5.715  15.759 -0.4377  0.3406 -1.6282
15001TIP3    H266419   0.579   5.630  15.725 -1.0432 -0.1063  1.3306
15002TIP3   OH266420   2.192   3.467  11.491  0.2081 -0.7288 -0.5123
15002TIP3    H166421   2.159   3.512  11.413  1.5083  1.2414  0.0320
15002TIP3    H266422   2.113   3.434  11.534 -0.7915  0.8377 -1.0588
15003TIP3   OH266423   0.366   4.999   6.223 -0.2819 -0.6821 -0.8255
15003TIP3    H166424   0.270   5.007   6.221 -0.3754 -1.7622 -2.1004
15003TIP3    H266425   0.385   4.925   6.166  1.3921  0.0505 -1.2746
15004TIP3   OH266426   6.699   0.786  11.694 -0.6061 -0.0417 -0.0364
15004TIP3    H166427   6.758   0.841  11.642  2.4384 -2.8278  0.1439
15004TIP3    H266428   6.710   0.817  11.784  1.2037 -0.8884  0.0825
15005TIP3   OH266429   3.825   6.298  15.005  0.0238  0.1439  0.5410
15005TIP3    H166430   3.765   6.319  15.078 -0.1200 -0.2586  0.5442
15005TIP3    H266431   3.903   6.264  15.048  0.7721  1.8363  0.5982
15006TIP3   OH266432   1.886   5.663   0.077 -0.8242  0.1016 -0.1427
15006TIP3    H166433   1.844   5.695  -0.003  0.3522  0.7887 -0.5150
15006TIP3    H266434   1.863   5.727   0.144 -0.3467  0.5171 -0.3636
15007TIP3   OH266435   5.588   1.818  17.190  0.4257  0.8546 -0.8912
15007TIP3    H166436   5.601   1.911  17.175  0.4857  1.1704  0.8672
15007TIP3    H266437   5.496   1.803  17.168  0.4538  1.2929 -1.3179
15008TIP3   OH266438   5.481   4.629   2.103 -0.1966  0.1688  0.0142
15008TIP3    H166439   5.572   4.603   2.089 -0.0474  0.7502 -0.1295
15008TIP3    H266440   5.485   4.696   2.171 -0.4730  0.4825 -0.2740
15009TIP3   OH266441   6.326   6.191   4.868  0.4775  0.0807  0.3331
15009TIP3    H166442   6.291   6.105   4.892  0.5923 -0.0473  0.0500
15009TIP3    H266443   6.316   6.244   4.947 -1.9255  0.5648 -0.2120
15010TIP3   OH266444   5.757   5.711  14.975 -0.2386 -0.4320  0.6943
15010TIP3    H166445   5.850   5.714  14.996 -0.2123 -1.9942  0.9277
15010TIP3    H266446   5.713   5.742  15.054  0.0057 -2.5966  1.7645
15011TIP3   OH266447   1.942   1.337   5.053 -0.2476  0.4810  0.4715
15011TIP3    H166448   1.866   1.347   4.996 -0.0650 -0.4975  0.0457
15011TIP3    H266449   2.016   1.368   5.000 -0.3921  1.9819  1.0830
15012TIP3   OH266450   6.333   2.369   1.474 -0.6365  0.3929 -0.5678
15012TIP3    H166451   6.367   2.383   1.386 -0.6559  1.6315 -0.3974
15012TIP3    H266452   6.350   2.276   1.492  1.6597  0.6776 -0.9243
15013TIP3   OH266453   0.113   0.292   0.908 -0.1711  0.1635  0.3090
15013TIP3    H166454   0.108   0.387   0.909 -0.0640  0.1691  0.9354
15013TIP3    H266455   0.049   0.265   0.842  0.6684  0.7132 -0.7697
15014TIP3   OH266456   1.941   5.691  12.262  0.5385  0.0246  0.2255
15014TIP3    H166457   1.963   5.719  12.351  0.1128  1.6909 -0.1599
15014TIP3    H266458   2.006   5.624  12.242  2.3532  1.4798  0.8552
15015TIP3   OH266459   3.895   0.816   3.906  0.2862  0.0083  0.2659
15015TIP3    H166460   3.813   0.794   3.952 -0.8904 -1.1046 -2.2090
15015TIP3    H266461   3.953   0.742   3.924 -0.2930 -0.5934 -0.2816
15016TIP3   OH266462   2.281   3.320   4.502  0.2229 -0.1386  0.6231
15016TIP3    H166463   2.234   3.390   4.458 -1.3587 -1.7843 -0.4488
15016TIP3    H266464   2.237   3.311   4.586 -0.0287 -0.3026  0.4744
15017TIP3   OH266465   2.276   4.268   5.612 -0.3030 -0.1582  0.2627
15017TIP3    H166466   2.310   4.180   5.595  1.1141  0.6840 -1.8147
15017TIP3    H266467   2.202   4.277   5.552  0.5109  0.5334 -0.6888
15018TIP3   OH266468   3.158   3.930   2.487  0.1754  0.6290 -0.0567
15018TIP3    H166469   3.184   3.995   2.422  0.4430  0.7451  0.1611
15018TIP3    H266470   3.130   3.853   2.436  2.5272 -0.1251 -0.3210
15019TIP3   OH266471   6.243   3.414   4.389 -0.1041 -0.1079  0.2855
15019TIP3    H166472   6.238   3.471   4.313 -0.0911 -0.4644  0.0136
15019TIP3    H266473   6.313   3.352   4.369 -0.4529 -0.5346  0.3515
15020TIP3   OH266474   5.270   6.398   1.381 -0.6968  1.0371  0.1962
15020TIP3    H166475   5.240   6.472   1.435  1.9010  1.3030  1.4586
15020TIP3    H266476   5.200   6.385   1.317 -2.7147  2.4724  1.9460
15021TIP3   OH266477   5.583   1.985  12.822  0.1717  0.2401  0.6064
15021TIP3    H166478   5.574   2.017  12.732  3.5492 -1.3668 -0.4851
15021TIP3    H266479   5.622   2.058  12.870  0.3864  0.3898  0.2086
15022TIP3   OH266480   1.469   5.112   4.885 -0.2685  0.1537 -0.1709
15022TIP3    H166481   1.526   5.127   4.960  0.2826 -0.5309 -0.4497
15022TIP3    H266482   1.436   5.023   4.897 -0.5303  0.2026 -0.5137
15023TIP3   OH266483   4.333   3.073  15.028  0.3984 -0.1850  0.2937
15023TIP3    H166484   4.385   3.024  14.964  1.3404  0.0790  0.8346
15023TIP3    H266485   4.345   3.164  15.004  2.6962  0.0974  2.1891
15024TIP3   OH266486   0.056   6.576   3.399  0.8112  0.4135  0.1850
15024TIP3    H166487  -0.037   6.588   3.381  0.9266  1.4432  0.2421
15024TIP3    H266488   0.099   6.603   3.318  1.0787  0.3337  0.3009
15025TIP3   OH266489   1.254   0.074  15.249 -0.0156 -0.3159  0.2735
15025TIP3    H166490   1.206   0.003  15.207  1.8743 -0.7029 -1.4153
15025TIP3    H266491   1.255   0.144  15.183  0.2628  0.3273  0.9506
15026TIP3   OH266492   3.167   2.491  16.984  0.3472 -0.1870  1.2522
15026TIP3    H166493   3.238   2.553  16.998  1.2130 -0.6313 -0.8433
15026TIP3    H266494   3.210   2.405  16.985  0.0395 -0.4226 -0.7575
15027TIP3   OH266495   1.493   0.944   2.345  0.2245 -0.4971 -0.1765
15027TIP3    H166496   1.545   0.894   2.282  0.9901  1.8633 -1.5510
15027TIP3    H266497   1.515   0.906   2.430  2.0748 -1.3733 -0.9827
15028TIP3   OH266498   6.344   3.194   0.577  0.2474  0.1678 -0.3652
15028TIP3    H166499   6.367   3.215   0.487  0.8120  0.4334 -0.1625
15028TIP3    H266500   6.339   3.278   0.621  1.0100 -0.0209  0.0950
15029TIP3   OH266501   4.721   4.105  12.737 -0.1796 -1.2222 -0.0426
15029TIP3    H166502   4.745   4.194  12.710  1.4883 -1.1813  1.4413
15029TIP3    H266503   4.628   4.099  12.715 -0.0782  0.4838 -1.2010
15030TIP3   OH266504   5.658   1.229   3.598 -0.8578  0.4647  0.3795
15030TIP3    H166505   5.749   1.238   3.624 -0.6975 -1.0342  0.3862
15030TIP3    H266506   5.661   1.187   3.512 -1.5597 -1.4441  1.2365
15031TIP3   OH266507   3.943   1.155   2.784 -0.1121  0.4246 -0.1092
15031TIP3    H166508   4.033   1.131   2.803 -0.8099 -1.4872  1.0349
15031TIP3    H266509   3.927   1.117   2.697  0.2022  0.8220 -0.3420
15032TIP3   OH266510   1.378   2.115   1.682  0.4939 -0.3916  0.4446
15032TIP3    H166511   1.289   2.125   1.648  0.1519 -0.5740  1.2594
15032TIP3    H266512   1.402   2.202   1.714 -0.1626 -0.7439  2.0099
15033TIP3   OH266513   1.520   2.552  15.478 -0.5159  0.2246 -0.4566
15033TIP3    H166514   1.488   2.531  15.390 -1.7106 -0.3437  0.0944
15033TIP3    H266515   1.604   2.506  15.484 -0.6687 -0.1579 -1.1133
15034TIP3   OH266516   3.895   0.136   0.727  0.1101  0.2598  0.4482
15034TIP3    H166517   3.892   0.232   0.728  0.1985  0.2621  0.4984
15034TIP3    H266518   3.879   0.111   0.818  3.3906  0.3246  1.1603
15035TIP3   OH266519   2.283   2.700   0.283 -0.6764  0.6794  0.1177
15035TIP3    H166520   2.241   2.673   0.365  0.3597 -5.3384 -0.8697
15035TIP3    H266521   2.215   2.689   0.217 -0.0480 -0.0813 -0.4153
15036TIP3   OH266522   4.013   4.685  17.215  0.4205 -0.3292 -0.2028
15036TIP3    H166523   4.100   4.652  17.237 -0.2022 -2.2569 -0.5224
15036TIP3    H266524   4.002   4.762  17.272  1.9561 -0.5980  0.5008
15037TIP3   OH266525   5.744   5.185   5.527 -0.5863 -0.7395  0.2286
15037TIP3    H166526   5.679   5.250   5.497 -0.4233 -0.6560  0.0505
15037TIP3    H266527   5.754   5.203   5.620  0.0501  0.0259  0.0307
15038TIP3   OH266528   3.459   6.024   1.077  0.2392  0.0200 -0.2966
15038TIP3    H166529   3.537   6.075   1.099  1.1938 -0.8870 -1.4374
15038TIP3    H266530   3.481   5.983   0.993 -0.3284 -2.5745  0.7612
15039TIP3   OH266531   0.048   1.533  14.188  0.3641  0.2135  0.6848
15039TIP3    H166532   0.052   1.439  14.172  0.5602  0.5872 -1.8260
15039TIP3    H266533  -0.034   1.545  14.237  0.3689 -1.2432  1.1013
15040TIP3   OH266534   2.836   3.834  14.673 -0.1704  0.8765  0.3379
15040TIP3    H166535   2.755   3.873  14.706  0.2059  1.0945  1.0345
15040TIP3    H266536   2.833   3.743  14.701 -0.3056  0.8131  0.1173
15041TIP3   OH266537   1.383   1.725   0.237  0.1047  0.0538 -0.0050
15041TIP3    H166538   1.303   1.708   0.287 -1.5674  2.4092 -1.6735
15041TIP3    H266539   1.449   1.742   0.304 -1.4518  0.6943  1.4677
15042TIP3   OH266540   3.384   4.659  14.873 -0.8654  0.1302 -0.0742
15042TIP3    H166541   3.413   4.700  14.792 -0.9803  0.9741  0.3006
15042TIP3    H266542   3.304   4.705  14.896  0.6081  1.8862  1.9857
15043TIP3   OH266543   1.595   5.132   5.559 -0.5536 -0.8986  0.1983
15043TIP3    H166544   1.530   5.185   5.607  1.3196  1.1383  0.6494
15043TIP3    H266545   1.566   5.135   5.468  0.4840  2.7372 -0.1682
15044TIP3   OH266546   4.312   6.024  16.706  0.3858 -0.0812  0.3637
15044TIP3    H166547   4.243   6.067  16.756  0.5487 -0.6460  1.0849
15044TIP3    H266548   4.318   5.936  16.743  1.0356 -0.2618 -0.1384
15045TIP3   OH266549   3.682   3.323   6.561 -0.3374  0.6809 -0.5562
15045TIP3    H166550   3.736   3.312   6.482  1.2770 -1.0697  0.7021
15045TIP3    H266551   3.746   3.338   6.631 -1.5598 -0.0486  0.7646
15046TIP3   OH266552   3.716   1.458   1.131  0.5950  0.0096  0.2882
15046TIP3    H166553   3.721   1.554   1.124  0.1249  0.0576  0.6184
15046TIP3    H266554   3.624   1.440   1.147  0.7062 -0.4933  0.3614
15047TIP3   OH266555   5.187   2.364   4.893  0.5882 -0.4441  0.0474
15047TIP3    H166556   5.111   2.422   4.890  1.1379  0.2577 -0.3492
15047TIP3    H266557   5.158   2.285   4.846 -0.3438 -0.7401  1.0667
15048TIP3   OH266558   0.770   0.137   5.167 -0.4444 -0.1885 -0.0935
15048TIP3    H166559   0.802   0.192   5.095 -1.1765  0.3497 -0.0245
15048TIP3    H266560   0.676   0.155   5.170 -0.6445 -1.1997  0.1504
15049TIP3   OH266561   0.592   5.785   3.045  1.0877  0.5766  0.1999
15049TIP3    H166562   0.538   5.713   3.079  0.6493  1.3945  1.2889
15049TIP3    H266563   0.590   5.774   2.950  0.2354 -0.2839  0.3035
15050TIP3   OH266564   4.708   1.788   0.355  0.3829  0.2750 -0.2267
15050TIP3    H166565   4.651   1.727   0.401  3.3108 -0.5046  2.8283
15050TIP3    H266566   4.730   1.854   0.421 -1.3682  3.8925 -2.9246
15051TIP3   OH266567   5.236   2.697   5.157  0.4282  0.7092 -0.0295
15051TIP3    H166568   5.281   2.767   5.110 -0.6179 -0.1372 -2.4791
15051TIP3    H266569   5.151   2.735   5.179  0.2563  0.5564 -0.4196
15052TIP3   OH266570   2.968   4.116  15.461 -0.9204  0.5700  0.3894
15052TIP3    H166571   2.992   4.049  15.398 -1.0470 -0.3438  1.2826
15052TIP3    H266572   3.052   4.148  15.495 -0.8626  0.7437  0.0814
15053TIP3   OH266573   4.464   1.244  16.463 -0.8284  0.0910  0.0556
15053TIP3    H166574   4.413   1.243  16.544  0.1145  1.0281  0.6943
15053TIP3    H266575   4.416   1.302  16.405 -1.6761 -0.8275 -0.1981
15054TIP3   OH266576   5.283   5.575   6.813  0.5253  0.4702 -0.4362
15054TIP3    H166577   5.335   5.520   6.755 -1.2262 -1.8477  0.0225
15054TIP3    H266578   5.347   5.627   6.861  2.0985  1.8652 -3.7305
15055TIP3   OH266579   2.742   2.949   6.418  0.5544 -0.5950 -0.2043
15055TIP3    H166580   2.683   2.886   6.460 -0.4009 -0.2708 -1.0099
15055TIP3    H266581   2.829   2.926   6.450  0.1967 -2.1280 -0.2455
15056TIP3   OH266582   2.646   1.959  12.469 -0.1408 -0.5189 -0.2269
15056TIP3    H166583   2.608   1.902  12.402 -0.3600 -0.9055  0.2172
15056TIP3    H266584   2.700   1.900  12.522  0.0705 -0.2067 -0.0954
15057TIP3   OH266585   1.696   2.638  14.487 -0.6671 -0.3887 -0.1552
15057TIP3    H166586   1.672   2.700  14.555  0.6321  1.5405 -1.3605
15057TIP3    H266587   1.776   2.596  14.520 -0.8755 -0.5503  0.1470
15058TIP3   OH266588   2.054   1.491  14.795  0.1853  0.0764 -0.1421
15058TIP3    H166589   2.120   1.491  14.727  0.4071  0.4988  0.0739
15058TIP3    H266590   1.996   1.564  14.773 -0.0123 -0.0751 -0.1351
15059TIP3   OH266591   6.690   6.013   3.290  0.5672  0.1304 -0.1498
15059TIP3    H166592   6.612   5.965   3.316  0.4368  0.7108  0.5615
15059TIP3    H266593   6.762   5.966   3.333  0.7530 -1.0509 -1.6716
15060TIP3   OH266594   1.573   3.315  16.954  0.4937 -0.0054  0.6907
15060TIP3    H166595   1.596   3.230  16.915  0.9735  0.0809  0.7768
15060TIP3    H266596   1.586   3.378  16.883  0.8537  0.0859  0.8342
15061TIP3   OH266597   5.976   2.143   3.080  0.3702  0.5404  0.1054
15061TIP3    H166598   5.929   2.060   3.065  1.5120 -0.0021 -0.6395
15061TIP3    H266599   5.911   2.200   3.121 -0.5699 -0.5855  0.2511
15062TIP3   OH266600   3.960   4.967  13.304 -0.5141 -0.0567  0.5179
15062TIP3    H166601   3.899   5.006  13.241 -0.7494  0.8842  1.3104
15062TIP3    H266602   4.021   5.038  13.326 -1.2448  0.0569  2.3520
15063TIP3   OH266603   4.069   3.400  15.586 -0.0514  0.4399  0.3421
15063TIP3    H166604   4.163   3.420  15.584  0.4517 -1.5916 -2.2193
15063TIP3    H266605   4.046   3.400  15.679  2.2283  1.9401  0.9807
15064TIP3   OH266606   6.527   5.902  13.497  0.3563  0.5472  0.7370
15064TIP3    H166607   6.462   5.874  13.561  0.8739  1.5160  1.7161
15064TIP3    H266608   6.482   5.897  13.413 -0.6021  0.0853  1.2634
15065TIP3   OH266609   2.068   6.656   5.428 -0.0062  0.4886  0.1382
15065TIP3    H166610   2.087   6.571   5.389 -2.7896 -1.0366  1.8097
15065TIP3    H266611   2.104   6.650   5.517 -0.8239  0.7540  0.4961
15066TIP3   OH266612   5.970   5.225  15.720  0.3645 -0.3361 -0.3481
15066TIP3    H166613   5.918   5.289  15.671 -2.3412 -1.5370  0.7598
15066TIP3    H266614   6.008   5.274  15.793 -1.3842  0.1297  0.2859
15067TIP3   OH266615   2.267   3.740   3.113 -0.2909 -0.2054  0.1432
15067TIP3    H166616   2.344   3.742   3.056 -0.4139  1.1317 -0.0222
15067TIP3    H266617   2.193   3.748   3.053 -0.6897 -2.8648  0.1749
15068TIP3   OH266618   6.400   2.962  13.973 -0.2356  0.0171  0.0934
15068TIP3    H166619   6.463   3.026  14.004 -1.3238  0.6467  1.0954
15068TIP3    H266620   6.449   2.880  13.969  0.5105  0.3668  1.4039
15069TIP3   OH266621   1.762   2.389  16.980  0.5884  0.5157  0.5058
15069TIP3    H166622   1.766   2.304  17.024 -0.1073  0.5035  0.5560
15069TIP3    H266623   1.831   2.384  16.913 -0.9030 -0.9731 -1.0366
15070TIP3   OH266624   3.013   1.117  12.770  0.1689  0.2147  0.2406
15070TIP3    H166625   2.919   1.134  12.765  0.1976  0.3439  0.1241
15070TIP3    H266626   3.024   1.031  12.731 -0.0263 -0.2550  1.2001
15071TIP3   OH266627   6.013   5.743   5.778  0.5620  0.4134 -0.6874
15071TIP3    H166628   5.971   5.828   5.785  1.0037  0.5997 -0.2287
15071TIP3    H266629   5.942   5.683   5.752 -0.4059  0.4198  1.6184
15072TIP3   OH266630   5.907   4.650   3.543 -0.5282 -0.2366  0.4062
15072TIP3    H166631   5.948   4.657   3.457  0.0635  2.5019  0.8171
15072TIP3    H266632   5.974   4.608   3.598  0.6916  1.5305  0.3719
15073TIP3   OH266633   6.168   0.885  15.235 -0.6561  0.2425  0.0078
15073TIP3    H166634   6.075   0.861  15.227 -0.3341 -0.7347 -1.0738
15073TIP3    H266635   6.207   0.854  15.154  0.8459 -0.3984  0.9425
15074TIP3   OH266636   1.649   2.429  11.459 -0.8240  0.2665 -0.0432
15074TIP3    H166637   1.594   2.501  11.488 -0.4677  0.7968 -0.6440
15074TIP3    H266638   1.661   2.445  11.365 -1.8290 -1.3008 -0.4851
15075TIP3   OH266639   1.741   4.970  16.445 -0.1994 -0.0902 -0.1005
15075TIP3    H166640   1.750   5.047  16.501 -0.8658 -0.3247  0.3291
15075TIP3    H266641   1.732   5.006  16.357  3.2840  0.2612 -0.4648
15076TIP3   OH266642   4.772   4.920   3.299  0.3946 -0.8967  0.1453
15076TIP3    H166643   4.855   4.881   3.329  0.8968 -1.0689 -1.4091
15076TIP3    H266644   4.799   4.999   3.252 -0.2103 -1.5550 -1.3633
15077TIP3   OH266645   1.126   4.773   0.658 -0.1556 -0.2130  0.1191
15077TIP3    H166646   1.207   4.724   0.642 -0.2143  0.2253 -1.7440
15077TIP3    H266647   1.144   4.860   0.622 -0.7413  0.5360  1.5877
15078TIP3   OH266648   2.786   5.679  16.433 -0.3983  0.5590 -0.0204
15078TIP3    H166649   2.744   5.596  16.411  0.2447 -0.1583  1.2914
15078TIP3    H266650   2.741   5.708  16.512 -0.5244  1.4010 -0.3941
15079TIP3   OH266651   2.015   3.861  16.581  0.2110 -0.2039  0.1537
15079TIP3    H166652   2.061   3.916  16.644 -0.5820  0.3657  0.2395
15079TIP3    H266653   2.051   3.773  16.595  1.9834  0.3771 -0.4423
15080TIP3   OH266654   2.307   0.778   5.500 -0.6476 -0.1060 -0.0578
15080TIP3    H166655   2.387   0.742   5.540 -0.6627 -0.3973 -0.2861
15080TIP3    H266656   2.251   0.801   5.574 -0.4937 -0.2276  0.0974
15081TIP3   OH266657   5.375   0.765   5.176  0.2627 -0.1283 -0.7081
15081TIP3    H166658   5.423   0.847   5.186 -0.4836  0.3533 -0.9617
15081TIP3    H266659   5.350   0.741   5.265  0.0032  0.2208 -0.6832
15082TIP3   OH266660   6.016   1.985  16.591  0.0932 -0.2779  0.0182
15082TIP3    H166661   6.017   2.031  16.675  3.2039  1.5005 -0.8734
15082TIP3    H266662   5.992   1.895  16.614 -1.1974  0.5961  2.4854
15083TIP3   OH266663   0.574   5.146  11.494 -0.0948  0.9218  0.4714
15083TIP3    H166664   0.508   5.127  11.427  1.0461  0.9201 -0.6852
15083TIP3    H266665   0.617   5.225  11.464  1.3579  0.1654  0.4752
15084TIP3   OH266666   1.132   0.838   1.243 -0.1672 -0.3488 -0.2489
15084TIP3    H166667   1.091   0.841   1.329  0.0813  3.2000 -0.1058
15084TIP3    H266668   1.065   0.871   1.183  0.3146 -0.8893 -1.1171
15085TIP3   OH266669   3.469   5.973  16.299  0.1589 -0.2173 -0.3202
15085TIP3    H166670   3.458   6.047  16.359 -0.7779  0.0944 -0.8720
15085TIP3    H266671   3.443   5.896  16.351  0.0916 -0.0402 -0.0898
15086TIP3   OH266672   5.270   2.057  11.630  0.0815 -0.4294  0.0291
15086TIP3    H166673   5.239   2.116  11.699 -0.6121  0.8495 -1.3255
15086TIP3    H266674   5.279   1.972  11.674 -0.4822  0.3039  1.6502
15087TIP3   OH266675   5.867   2.416  15.856 -0.8592 -0.0184 -0.1534
15087TIP3    H166676   5.944   2.438  15.909 -0.5146  1.0083 -1.0413
15087TIP3    H266677   5.794   2.421  15.918 -0.3637  0.2941  0.4220
15088TIP3   OH266678   2.737   1.221   5.213 -0.1400 -0.1544 -0.0574
15088TIP3    H166679   2.667   1.178   5.263 -0.5652  0.4727 -0.1091
15088TIP3    H266680   2.705   1.220   5.123  1.2351 -2.5705 -0.6198
15089TIP3   OH266681   6.276   5.981  12.220 -0.1855  0.3101  0.3168
15089TIP3    H166682   6.341   6.000  12.287  0.1082  1.0060 -0.1637
15089TIP3    H266683   6.192   5.995  12.265  0.0037  0.5942  0.5916
15090TIP3   OH266684   2.547   2.889  15.859  0.0462 -0.4889 -0.7890
15090TIP3    H166685   2.572   2.829  15.930  1.1878 -1.5622 -2.0379
15090TIP3    H266686   2.530   2.972  15.903  4.2169 -0.0849  0.4942
15091TIP3   OH266687   2.475   1.406   5.740 -0.2894  0.0402 -0.4792
15091TIP3    H166688   2.476   1.353   5.819 -0.6651  2.1320  0.9998
15091TIP3    H266689   2.564   1.398   5.704  0.4268  0.4545  1.1362
15092TIP3   OH266690   4.803   3.640   5.180 -0.4950 -0.5545  0.0200
15092TIP3    H166691   4.825   3.576   5.248  0.9531 -0.7840 -0.6148
15092TIP3    H266692   4.830   3.597   5.098 -0.1224  0.6001 -0.4777
15093TIP3   OH266693   3.301   6.331  15.412  0.1909  0.7091 -0.2549
15093TIP3    H166694   3.243   6.258  15.387  0.0193  1.1353 -1.1560
15093TIP3    H266695   3.252   6.409  15.388  0.6863  1.1071  0.0203
15094TIP3   OH266696   4.996   4.849  11.390 -0.2493  0.2816  0.1005
15094TIP3    H166697   5.083   4.855  11.429  0.4588 -1.2356 -1.1388
15094TIP3    H266698   4.992   4.923  11.329  0.9115 -0.6422 -1.1577
15095TIP3   OH266699   6.582   6.476   4.223  0.5512  0.2464 -0.0046
15095TIP3    H166700   6.560   6.476   4.316  0.2812 -3.0422  0.0778
15095TIP3    H266701   6.508   6.519   4.180  0.0327  0.5884  1.2020
15096TIP3   OH266702   1.874   3.204   4.177  0.0469 -0.1002 -0.5917
15096TIP3    H166703   1.953   3.194   4.231 -0.3149 -0.7260 -0.1618
15096TIP3    H266704   1.854   3.115   4.148 -1.6888 -0.3218  1.0466
15097TIP3   OH266705   2.160   0.906   6.130 -0.5827  0.2831  1.0776
15097TIP3    H166706   2.162   0.895   6.224 -0.8982 -1.4376  0.9044
15097TIP3    H266707   2.093   0.845   6.100  1.1752 -1.0035 -0.4761
15098TIP3   OH266708   4.480   3.470   4.842 -0.4206  0.0709 -0.4278
15098TIP3    H166709   4.506   3.552   4.800 -0.7590  1.4554  1.8670
15098TIP3    H266710   4.548   3.455   4.908 -0.0320 -1.8804 -1.2095
15099TIP3   OH266711   6.734   3.655  12.360  0.2060  0.1396  0.3684
15099TIP3    H166712   6.667   3.724  12.366 -1.9606 -1.8064 -0.1213
15099TIP3    H266713   6.743   3.623  12.450  0.1171  0.0815  0.3566
15100TIP3   OH266714   1.260   0.752   2.526  0.2280 -0.1989 -0.8165
15100TIP3    H166715   1.261   0.784   2.436  2.4697 -1.2449 -1.2406
15100TIP3    H266716   1.168   0.753   2.551 -0.2413  2.2429 -2.3082
15101TIP3   OH266717   6.478   5.801   1.926  0.3235  0.2073 -0.4095
15101TIP3    H166718   6.469   5.857   2.003 -1.9183 -0.8550  0.1916
15101TIP3    H266719   6.496   5.862   1.855  1.8099  1.2766  0.8023
15102TIP3   OH266720   2.274   2.676   3.371 -0.3684  0.0184  0.0918
15102TIP3    H166721   2.234   2.655   3.287  1.4152  1.3214 -1.1812
15102TIP3    H266722   2.290   2.591   3.412  1.9374 -0.9690 -2.5357
15103TIP3   OH266723   2.805   4.626   5.098 -0.4317 -0.1052  0.4108
15103TIP3    H166724   2.857   4.701   5.068 -1.1535  0.8721  1.4908
15103TIP3    H266725   2.750   4.662   5.168 -2.0289 -1.2514 -0.1874
15104TIP3   OH266726   0.750   5.163  17.165  0.2577 -0.0666 -0.0481
15104TIP3    H166727   0.791   5.249  17.176  0.1435 -0.2203  2.1016
15104TIP3    H266728   0.744   5.151  17.071 -0.0840  2.4546 -0.4174
15105TIP3   OH266729   2.839   5.456   2.639 -0.0616 -0.6931  0.2147
15105TIP3    H166730   2.906   5.474   2.573 -1.2994  0.1283 -0.8710
15105TIP3    H266731   2.790   5.382   2.603  0.0596 -1.0953  0.8589
15106TIP3   OH266732   4.681   3.645   3.342  0.4512 -0.1359 -0.0852
15106TIP3    H166733   4.640   3.655   3.428 -1.2405 -0.4897 -0.8106
15106TIP3    H266734   4.767   3.686   3.352  0.0306  0.4460  1.5709
15107TIP3   OH266735   4.855   6.033   5.992 -0.0555  0.4200 -0.1281
15107TIP3    H166736   4.862   5.940   5.973  1.0461  0.6218 -0.8139
15107TIP3    H266737   4.867   6.040   6.086  0.4292 -0.0822 -0.1512
15108TIP3   OH266738   5.904   3.347   0.115  0.1727 -0.4206  0.5167
15108TIP3    H166739   5.837   3.289   0.151 -1.5306  0.8788 -0.4098
15108TIP3    H266740   5.904   3.329   0.022 -0.1340  0.7640  0.2642
15109TIP3   OH266741   4.940   0.898   5.988  0.2342  0.4208  0.2175
15109TIP3    H166742   4.919   0.976   5.936  0.5381 -0.3827 -1.1555
15109TIP3    H266743   5.006   0.852   5.937  0.7922 -0.2556  1.4916
15110TIP3   OH266744   3.552   1.977   2.032 -0.2853 -0.8522  0.2847
15110TIP3    H166745   3.500   1.940   2.104 -0.2415 -1.1891  0.1476
15110TIP3    H266746   3.641   1.947   2.050 -0.2283 -0.7041  0.2418
15111TIP3   OH266747   6.067   3.184  16.560  0.7221  0.4895 -0.5331
15111TIP3    H166748   6.043   3.219  16.646 -0.4526 -0.3660 -0.4928
15111TIP3    H266749   6.137   3.122  16.579  0.5369  0.3776 -0.2072
15112TIP3   OH266750   1.688   1.859  13.694  0.6201 -0.4087  0.6205
15112TIP3    H166751   1.656   1.769  13.707  0.6025 -0.3231  1.1963
15112TIP3    H266752   1.779   1.857  13.723  0.8598 -0.4274 -0.1279
15113TIP3   OH266753   1.842   3.029  15.373  0.6446 -0.0381  0.0456
15113TIP3    H166754   1.858   3.102  15.314  0.8160  0.7771  1.0774
15113TIP3    H266755   1.760   2.990  15.341  0.4546  0.7174 -0.4097
15114TIP3   OH266756   3.611   0.537   3.085 -0.1061  0.3446 -0.2903
15114TIP3    H166757   3.686   0.585   3.050 -0.9964 -0.2839 -3.3688
15114TIP3    H266758   3.537   0.595   3.071 -0.9554 -1.1330 -2.5970
15115TIP3   OH266759   5.719   0.283  11.938  0.0998 -0.4371 -0.3774
15115TIP3    H166760   5.753   0.286  12.028 -0.8535 -1.2525  0.0286
15115TIP3    H266761   5.785   0.329  11.886  1.2566 -0.9718  0.5641
15116TIP3   OH266762   2.755   2.136  16.609 -0.5720 -0.0254  0.4572
15116TIP3    H166763   2.687   2.145  16.542 -0.5732  0.4398  0.5166
15116TIP3    H266764   2.708   2.138  16.692 -0.3604  2.0612  0.5755
15117TIP3   OH266765   5.024   4.120  16.349  0.3768  0.0469 -0.4468
15117TIP3    H166766   5.100   4.179  16.344  0.7131 -0.4358 -1.2595
15117TIP3    H266767   5.030   4.081  16.436  0.6105  0.6009 -0.2067
15118TIP3   OH266768   2.137   3.877   4.865  0.4908  0.8672  0.0007
15118TIP3    H166769   2.124   3.806   4.928 -0.8359 -0.4815 -1.6836
15118TIP3    H266770   2.232   3.886   4.858  0.6550  0.8700  1.9584
15119TIP3   OH266771   5.073   3.971  16.565 -0.4449 -0.0644  0.2382
15119TIP3    H166772   5.014   3.903  16.533 -0.7342 -0.4758  1.6014
15119TIP3    H266773   5.082   3.954  16.659 -0.4941  1.7622  0.6174
15120TIP3   OH266774   1.983   6.733   3.009 -0.2591 -0.1954 -0.7719
15120TIP3    H166775   1.925   6.787   2.956  0.0138  1.2240  0.3088
15120TIP3    H266776   2.013   6.792   3.079 -0.6680 -2.0009  0.9945
15121TIP3   OH266777   3.595   0.976  12.009  0.0892 -0.0568  0.1859
15121TIP3    H166778   3.573   0.964  12.102  0.6326  0.3274  0.3668
15121TIP3    H266779   3.627   1.066  12.004 -0.3800  0.0783 -0.4616
15122TIP3   OH266780   6.571   5.327   0.541 -0.1471  0.4526  0.2194
15122TIP3    H166781   6.476   5.336   0.548 -0.0818  0.2517  1.9021
15122TIP3    H266782   6.605   5.384   0.610  0.9673  0.6534 -0.4770
15123TIP3   OH266783   4.001   1.615   1.241  0.3682  0.1991  0.1148
15123TIP3    H166784   3.927   1.676   1.241 -0.0515 -0.3131 -0.3657
15123TIP3    H266785   3.970   1.538   1.194  1.2600  0.0428 -0.2461
15124TIP3   OH266786   6.494   0.635  14.968  0.2118  0.1191  0.4749
15124TIP3    H166787   6.580   0.663  14.999 -0.1561  2.3733 -0.3998
15124TIP3    H266788   6.510   0.549  14.928  1.7365 -0.2002  1.6650
15125TIP3   OH266789   4.448   6.419   2.417  0.0568  0.3704  0.1594
15125TIP3    H166790   4.538   6.385   2.411  0.3000  0.9537  0.5260
15125TIP3    H266791   4.430   6.452   2.329 -0.0884 -0.4535 -0.1347
15126TIP3   OH266792   1.132   4.059  10.934 -0.4945  0.5079 -0.5600
15126TIP3    H166793   1.058   4.038  10.877  0.2174 -1.3744 -0.8434
15126TIP3    H266794   1.205   4.007  10.900  0.0716 -0.3472  1.7562
15127TIP3   OH266795   1.504   2.187  14.272  0.2851  0.5106 -0.4927
15127TIP3    H166796   1.425   2.175  14.324  0.5891 -0.7739 -0.3060
15127TIP3    H266797   1.567   2.226  14.333 -0.5536  2.7576 -0.9705
15128TIP3   OH266798   6.431   2.491  13.023 -0.1064  0.3099  0.1024
15128TIP3    H166799   6.438   2.564  12.961 -0.7938  0.7405  0.5129
15128TIP3    H266800   6.433   2.532  13.109 -3.9300  0.2959  0.3693
15129TIP3   OH266801   5.007   4.566  16.153  0.0355 -0.6340 -0.1920
15129TIP3    H166802   4.965   4.521  16.226  0.3698 -0.5925  0.0314
15129TIP3    H266803   4.945   4.559  16.081 -1.2030  1.0909  0.6591
15130TIP3   OH266804   3.757   3.260  15.973  0.0910  0.2430  0.5303
15130TIP3    H166805   3.708   3.337  16.000  0.0013 -0.1183  1.4456
15130TIP3    H266806   3.759   3.204  16.051 -1.1339 -1.3618 -0.5271
15131TIP3   OH266807   4.294   2.996   0.772 -0.1661 -0.2584 -0.0294
15131TIP3    H166808   4.249   2.966   0.851 -0.9099  1.4577  0.2595
15131TIP3    H266809   4.260   3.085   0.758  1.7464  0.3941 -0.8934
15132TIP3   OH266810   3.013   3.759   0.144 -0.8172  0.3490 -0.6668
15132TIP3    H166811   2.941   3.763   0.206 -0.5618  0.0180 -0.3485
15132TIP3    H266812   2.971   3.770   0.058 -1.0450  1.9926 -0.3788
15133TIP3   OH266813   6.243   4.997   3.317 -0.1884  0.3138 -0.1991
15133TIP3    H166814   6.250   5.011   3.222 -0.1142  0.2902 -0.1975
15133TIP3    H266815   6.333   4.980   3.345 -0.5101 -2.1032 -0.5050
15134TIP3   OH266816   3.752   4.541   4.368 -0.3200  0.1184 -0.2557
15134TIP3    H166817   3.785   4.595   4.296  2.3231 -0.9683  0.0231
15134TIP3    H266818   3.743   4.454   4.330 -0.1219 -0.1997  0.4152
15135TIP3   OH266819   2.832   6.733   1.319 -0.8457  0.1565  0.0249
15135TIP3    H166820   2.842   6.778   1.236 -0.4880 -0.2081 -0.1364
15135TIP3    H266821   2.919   6.695   1.336 -1.2367 -0.7824 -0.0311
15136TIP3   OH266822   4.290   6.252  14.288  0.0192  0.5259 -0.0188
15136TIP3    H166823   4.253   6.236  14.375 -0.1383  0.7323 -0.0473
15136TIP3    H266824   4.270   6.344  14.270 -1.4224  0.0694 -0.9726
15137TIP3   OH266825   6.695   5.237   2.681 -0.0482 -0.0690 -0.3608
15137TIP3    H166826   6.689   5.213   2.589  1.8339 -0.0862 -0.5223
15137TIP3    H266827   6.763   5.179   2.716 -0.3894  0.2764  0.9204
15138TIP3   OH266828   4.624   4.962   4.779 -0.4939 -0.5520 -0.0375
15138TIP3    H166829   4.662   5.050   4.778 -0.0248 -0.7185  1.4798
15138TIP3    H266830   4.530   4.976   4.779 -0.4406 -0.0869 -1.0308
15139TIP3   OH266831   2.796   4.547   4.275 -0.5462 -0.1038  0.0229
15139TIP3    H166832   2.746   4.583   4.348  2.2198  2.7470  0.7223
15139TIP3    H266833   2.816   4.622   4.220 -0.5156 -1.8068 -2.4932
15140TIP3   OH266834   6.040   0.725   0.447 -0.1247  0.5088 -0.3136
15140TIP3    H166835   6.033   0.637   0.410 -1.2612  0.9703 -1.2903
15140TIP3    H266836   6.134   0.742   0.451  0.0889  0.1030 -2.2947
15141TIP3   OH266837   6.156   1.441   3.543  0.3521  0.4757  0.9986
15141TIP3    H166838   6.222   1.503   3.514  0.0109  0.4753  0.2124
15141TIP3    H266839   6.075   1.493   3.548  0.3343  0.3957  1.6108
15142TIP3   OH266840   5.855   2.369  14.914 -0.2565 -0.1087 -0.4933
15142TIP3    H166841   5.840   2.397  15.004  0.0391 -1.2034 -0.0987
15142TIP3    H266842   5.773   2.390  14.869 -0.9631 -0.9126  0.3715
15143TIP3   OH266843   3.979   5.503   4.719  0.4762 -0.2438 -0.5404
15143TIP3    H166844   3.934   5.419   4.714 -0.4844  0.2188  0.1659
15143TIP3    H266845   3.942   5.546   4.795  0.7569  0.9488 -1.0524
15144TIP3   OH266846   2.059   3.461   1.617  0.1280 -0.4231 -0.5545
15144TIP3    H166847   2.023   3.509   1.691  0.6780  0.6161 -0.9404
15144TIP3    H266848   2.064   3.370   1.647  0.4335 -0.0041  0.7241
15145TIP3   OH266849   1.086   1.585  11.897 -0.4009  0.4365  0.1220
15145TIP3    H166850   1.072   1.625  11.983 -0.8798  2.5899 -0.8858
15145TIP3    H266851   1.004   1.539  11.878 -0.1072 -0.4712  1.0121
15146TIP3   OH266852   6.342   2.226  12.452 -0.4322  0.2747 -0.2881
15146TIP3    H166853   6.425   2.266  12.425  0.9671 -1.9398  0.3857
15146TIP3    H266854   6.304   2.195  12.370 -0.0778  0.4177 -0.5123
15147TIP3   OH266855   5.120   0.736   1.802  0.0221  0.0706 -0.6082
15147TIP3    H166856   5.083   0.664   1.751  2.0977  0.4144 -2.7596
15147TIP3    H266857   5.099   0.714   1.893 -2.3387 -1.4688 -1.4234
15148TIP3   OH266858   1.908   4.142  11.235 -0.0952 -0.7236 -0.0666
15148TIP3    H166859   1.929   4.049  11.230 -0.7947 -0.8965  0.1874
15148TIP3    H266860   1.832   4.147  11.293 -0.2146 -0.0220 -0.2729
15149TIP3   OH266861   0.103   4.453  15.340  0.2390  0.4662  0.0685
15149TIP3    H166862   0.159   4.417  15.409  1.0235 -1.1675 -1.3541
15149TIP3    H266863   0.156   4.521  15.299  0.4100  0.3020  0.0167
15150TIP3   OH266864   1.597   4.084  14.503 -0.3666 -0.5370 -0.0144
15150TIP3    H166865   1.526   4.047  14.451 -0.2685 -1.4726  0.4991
15150TIP3    H266866   1.664   4.106  14.438 -0.5926 -0.8825 -0.3725
15151TIP3   OH266867   0.681   5.106   0.931 -0.0696  0.2725 -0.0873
15151TIP3    H166868   0.769   5.086   0.900  0.8450  0.9964  1.8823
15151TIP3    H266869   0.691   5.187   0.981 -2.1041  1.0570 -0.8596
15152TIP3   OH266870   0.507   0.084   5.749  0.1197 -0.2594 -0.3622
15152TIP3    H166871   0.431   0.042   5.788 -0.0923  0.2368 -0.2363
15152TIP3    H266872   0.482   0.101   5.658  0.0911 -0.1191 -0.3280
15153TIP3   OH266873   3.245   2.457   1.245 -0.0811 -0.1924  0.6390
15153TIP3    H166874   3.329   2.411   1.240 -0.8238 -1.4639 -1.2468
15153TIP3    H266875   3.210   2.432   1.330  0.6045 -1.2405  0.6380
15154TIP3   OH266876   1.566   2.140  15.007 -0.1801  0.2692 -0.7026
15154TIP3    H166877   1.574   2.064  15.065 -0.9187  0.0902 -0.8245
15154TIP3    H266878   1.654   2.151  14.969 -0.5968 -2.0698 -2.5988
15155TIP3   OH266879   3.320   6.348   4.120  0.1267 -0.1306 -0.0451
15155TIP3    H166880   3.359   6.370   4.205  0.6582 -0.0855 -0.2982
15155TIP3    H266881   3.251   6.284   4.141 -2.9187  3.1627  0.9910
15156TIP3   OH266882   5.376   4.831  16.050  0.2444 -0.2251  0.8867
15156TIP3    H166883   5.395   4.746  16.012 -0.6308 -0.3881  0.7963
15156TIP3    H266884   5.298   4.816  16.105 -0.3346  0.6557  0.3271
15157TIP3   OH266885   3.855   5.895  14.011  0.4533  0.6713 -0.2670
15157TIP3    H166886   3.837   5.909  14.104  0.1253 -1.3175  0.0197
15157TIP3    H266887   3.951   5.894  14.005  0.6427 -2.9566  0.8287
15158TIP3   OH266888   4.844   1.785   0.114 -0.3513 -0.1571  0.2591
15158TIP3    H166889   4.938   1.795   0.131 -0.2025  0.1296 -0.6948
15158TIP3    H266890   4.805   1.773   0.201  0.5624 -0.2390  0.6647
15159TIP3   OH266891   4.232   1.879  17.018  0.6519  0.5485  0.7053
15159TIP3    H166892   4.290   1.807  17.043 -0.9588 -0.6976  0.9918
15159TIP3    H266893   4.152   1.864  17.068 -1.6295 -0.3551 -2.8192
15160TIP3   OH266894   3.439   2.568  13.998 -0.0257  0.1570 -0.5589
15160TIP3    H166895   3.451   2.580  13.904 -0.7030  0.6919 -0.5871
15160TIP3    H266896   3.519   2.525  14.027  0.4929  0.6114 -1.2663
15161TIP3   OH266897   2.654   3.597   5.303  0.1655  0.2119 -0.8872
15161TIP3    H166898   2.659   3.508   5.337 -2.0725  0.4920  0.3789
15161TIP3    H266899   2.712   3.648   5.360  0.6353 -0.2386 -0.9557
15162TIP3   OH266900   4.341   4.514  16.072 -0.2590 -0.3943  0.3225
15162TIP3    H166901   4.305   4.566  16.000  0.1776 -1.5222 -0.7506
15162TIP3    H266902   4.436   4.526  16.065 -0.0660 -2.1015 -0.6084
15163TIP3   OH266903   2.728   0.399  12.127  0.2062  0.3673 -0.2264
15163TIP3    H166904   2.809   0.430  12.167 -1.4662  1.6952  2.3723
15163TIP3    H266905   2.749   0.311  12.097  1.5378 -1.1829  4.3847
15164TIP3   OH266906   1.209   3.385  11.735 -0.1978 -1.0070  0.4790
15164TIP3    H166907   1.265   3.373  11.659  0.2079  0.2613  0.5534
15164TIP3    H266908   1.123   3.354  11.706 -0.1845 -0.0272 -0.7009
15165TIP3   OH266909   2.314   4.335   1.366 -0.5465  0.0548  0.2657
15165TIP3    H166910   2.246   4.395   1.337  0.2277  0.6885 -0.2534
15165TIP3    H266911   2.363   4.384   1.432  2.1744  1.3192 -2.4813
15166TIP3   OH266912   6.114   0.105  13.809 -0.2914  0.7105 -0.2538
15166TIP3    H166913   6.163   0.171  13.859 -1.2569  0.0804  1.6380
15166TIP3    H266914   6.179   0.063  13.753  1.3270  0.1024  1.9567
15167TIP3   OH266915   2.779   2.903   2.882 -0.6026 -0.3130 -0.4490
15167TIP3    H166916   2.766   2.841   2.953  1.1435  0.0821  0.2843
15167TIP3    H266917   2.848   2.962   2.914 -2.2442  2.0864 -1.0608
15168TIP3   OH266918   3.023   4.732   0.076  0.0552  0.5121 -0.0318
15168TIP3    H166919   3.047   4.728   0.169 -0.0719 -1.5348 -0.0460
15168TIP3    H266920   2.943   4.784   0.075  1.3500  2.6547  0.6776
15169TIP3   OH266921   4.700   4.666   1.851 -0.7373 -0.5026  0.0115
15169TIP3    H166922   4.787   4.656   1.890 -0.2346 -0.3560 -1.0445
15169TIP3    H266923   4.683   4.581   1.809 -0.3235  0.0352 -1.2948
15170TIP3   OH266924   5.917   6.018  16.935  0.5685 -0.0277 -0.0295
15170TIP3    H166925   6.009   5.999  16.951  0.3526 -0.7340  0.4609
15170TIP3    H266926   5.910   6.113  16.943  1.5438  0.2228 -1.6977
15171TIP3   OH266927   4.941   5.494  10.545 -0.4378 -0.3395  0.1296
15171TIP3    H166928   5.028   5.467  10.574 -0.2556  0.5250  0.4216
15171TIP3    H266929   4.926   5.577  10.591 -2.3375 -1.5630  1.8733
15172TIP3   OH266930   6.027   5.296  16.202  0.3302 -0.1174  0.2625
15172TIP3    H166931   6.007   5.304  16.296 -0.6505  0.7796  0.0027
15172TIP3    H266932   5.948   5.259  16.164  0.4122  0.2948 -0.3193
15173TIP3   OH266933   4.168   6.558  14.540  0.0083 -0.7534  0.4478
15173TIP3    H166934   4.250   6.573  14.493 -0.0842 -1.9277 -0.1238
15173TIP3    H266935   4.112   6.512  14.477 -0.2003 -2.1554  1.6064
15174TIP3   OH266936   4.083   0.422  15.737  0.0190 -0.1750  0.0453
15174TIP3    H166937   4.140   0.496  15.757 -1.8064  1.0938  0.8339
15174TIP3    H266938   4.141   0.346  15.738  1.6913  1.0532  0.6903
15175TIP3   OH266939   3.065   4.297  12.290 -0.0799 -0.1164 -0.3069
15175TIP3    H166940   3.048   4.262  12.377 -1.4250 -0.7285 -0.8029
15175TIP3    H266941   3.088   4.389  12.306 -1.3471  0.0697  0.6280
15176TIP3   OH266942   4.090   0.811  14.642 -0.1811 -0.5297  0.7454
15176TIP3    H166943   4.051   0.770  14.719 -2.5173 -1.0619 -0.6398
15176TIP3    H266944   4.102   0.738  14.581 -1.0734  0.3062 -0.4478
15177TIP3   OH266945   3.730   2.526  14.842  0.9585  0.2587  0.1009
15177TIP3    H166946   3.755   2.520  14.750  0.6695  1.3473 -0.0611
15177TIP3    H266947   3.652   2.471  14.849  1.4856 -0.5364 -0.0982
15178TIP3   OH266948   3.689   3.264   5.834 -0.0211 -0.3564  0.3567
15178TIP3    H166949   3.695   3.333   5.900  1.2828  2.1696 -2.1429
15178TIP3    H266950   3.766   3.278   5.779 -1.1985 -2.0769 -1.9027
15179TIP3   OH266951   2.784   2.240  17.065 -0.1903  0.0312  0.2228
15179TIP3    H166952   2.868   2.241  17.018  0.3175 -0.3880  1.0988
15179TIP3    H266953   2.773   2.330  17.097 -0.8551  0.4844 -1.2184
15180TIP3   OH266954   0.972   0.735   2.743 -0.7082  0.1223  0.4371
15180TIP3    H166955   0.974   0.671   2.671 -0.2174  0.5607  0.0626
15180TIP3    H266956   0.881   0.766   2.743 -1.0906 -0.9356  0.9481
15181TIP3   OH266957   5.547   0.638   4.418  0.7612  0.5174 -0.6001
15181TIP3    H166958   5.571   0.684   4.499 -0.4116 -0.1998  0.1904
15181TIP3    H266959   5.459   0.606   4.435  1.1866 -1.2171 -1.4885
15182TIP3   OH266960   6.006   1.844  13.413  0.0034 -0.0728  0.2278
15182TIP3    H166961   5.974   1.815  13.327 -2.2108  0.4733  0.8149
15182TIP3    H266962   6.057   1.770  13.445  2.5336  0.3740 -2.2912
15183TIP3   OH266963   2.805   5.417  12.265 -0.8199  0.8106  0.3506
15183TIP3    H166964   2.865   5.349  12.295 -2.6897  0.5603  4.1786
15183TIP3    H266965   2.858   5.497  12.266  0.2512  0.1277  0.3353
15184TIP3   OH266966   0.613   1.823  11.427  0.0386  0.3369  0.1327
15184TIP3    H166967   0.522   1.807  11.452 -0.2975 -0.1793 -1.3329
15184TIP3    H266968   0.615   1.913  11.396 -0.0169  0.2803 -0.0348
15185TIP3   OH266969   5.881   3.444  14.588  0.0610 -0.8783 -0.9350
15185TIP3    H166970   5.826   3.496  14.530 -2.1705 -1.5117  0.4756
15185TIP3    H266971   5.843   3.356  14.584 -1.0155 -0.6780  2.3781
15186TIP3   OH266972   0.324   2.819  15.863 -0.2893  0.3094 -0.1981
15186TIP3    H166973   0.419   2.812  15.856 -0.2652  0.8975 -0.5522
15186TIP3    H266974   0.309   2.853  15.952 -0.1317  0.8177 -0.3647
15187TIP3   OH266975   6.076   6.508  12.688 -0.2875 -0.2756  0.1524
15187TIP3    H166976   6.068   6.515  12.783  0.6838  0.7398  0.1736
15187TIP3    H266977   6.152   6.452  12.674 -0.3489 -0.3144 -0.0343
15188TIP3   OH266978   4.718   6.637   0.086  0.0034 -0.0642 -0.1123
15188TIP3    H166979   4.688   6.700   0.020 -1.0441  0.5530  0.9074
15188TIP3    H266980   4.649   6.638   0.152  1.1318 -0.4904  1.1107
15189TIP3   OH266981   1.994   2.933  16.033 -0.3835 -0.0899 -0.2997
15189TIP3    H166982   1.917   2.879  16.055 -0.7462  0.6503  0.3092
15189TIP3    H266983   2.021   2.972  16.117  2.2851 -2.3500  0.0220
15190TIP3   OH266984   3.614   6.330   6.133 -0.0330  0.2053  0.3613
15190TIP3    H166985   3.521   6.317   6.111 -0.0985  0.1407  0.6746
15190TIP3    H266986   3.618   6.315   6.227  0.6907 -2.1035  0.0337
15191TIP3   OH266987   0.811   2.687  14.896 -0.0642  0.2860 -0.0544
15191TIP3    H166988   0.801   2.779  14.921  1.3617 -0.1973  2.7392
15191TIP3    H266989   0.725   2.649  14.912 -0.1952  0.7942  0.4909
15192TIP3   OH266990   1.693   3.789   4.446 -1.1345  0.1308  0.1783
15192TIP3    H166991   1.739   3.732   4.508 -1.5815 -1.8587 -1.2198
15192TIP3    H266992   1.642   3.729   4.391 -1.5482  1.8834 -1.4697
15193TIP3   OH266993   2.473   1.333   3.575  0.3205  0.8008 -0.7230
15193TIP3    H166994   2.554   1.284   3.589  1.2232  2.3927 -0.1331
15193TIP3    H266995   2.455   1.325   3.482  0.2711 -0.8645 -0.5979
15194TIP3   OH266996   3.496   2.435  11.123 -0.0592 -0.0369 -0.8661
15194TIP3    H166997   3.543   2.449  11.041 -2.6128 -0.3191 -2.5081
15194TIP3    H266998   3.456   2.348  11.112 -1.4754  0.4588  0.1047
15195TIP3   OH266999   6.694   0.205  11.538 -0.0856 -0.4291  0.0461
15195TIP3    H167000   6.629   0.233  11.473 -1.2744 -0.9640  0.9563
15195TIP3    H267001   6.713   0.114  11.515  0.6502 -0.1689 -0.4341
15196TIP3   OH267002   2.680   2.711   6.543 -0.3327  0.6603  0.1176
15196TIP3    H167003   2.761   2.685   6.586  0.2293  0.6403 -0.9176
15196TIP3    H267004   2.646   2.631   6.504  0.0619  0.9667 -0.9010
15197TIP3   OH267005   0.278   5.434  16.338 -0.1219  0.4223 -0.6628
15197TIP3    H167006   0.324   5.416  16.256 -0.4863  0.5189 -0.8921
15197TIP3    H267007   0.186   5.439  16.312 -0.0115  3.4833 -0.7849
15198TIP3   OH267008   4.401   5.982   2.192  0.1997 -0.5191 -0.5624
15198TIP3    H167009   4.335   5.927   2.234  0.6440  0.3474  1.3982
15198TIP3    H267010   4.484   5.954   2.230  0.3547  2.0315  1.2210
15199TIP3   OH267011   4.937   5.097  13.027 -0.8327  0.1607 -0.1103
15199TIP3    H167012   4.973   5.149  13.098  2.6204 -2.0995  0.0423
15199TIP3    H267013   5.011   5.083  12.968 -1.8864 -3.2390 -0.8401
15200TIP3   OH267014   6.381   0.851  15.616  0.4016 -0.2169  0.0095
15200TIP3    H167015   6.401   0.853  15.523  1.8687 -0.1339  0.3068
15200TIP3    H267016   6.298   0.899  15.624 -0.1799 -0.9436 -1.3304
15201TIP3   OH267017   1.745   4.025   5.713  0.3421  0.4991  0.8572
15201TIP3    H167018   1.708   4.080   5.782  0.8679  0.4132  1.2122
15201TIP3    H267019   1.775   3.946   5.759  1.9736  1.0273  0.7619
15202TIP3   OH267020   5.193   4.333  14.708 -0.2434  0.0695  0.1469
15202TIP3    H167021   5.242   4.386  14.646  1.2252 -1.7137 -0.3056
15202TIP3    H267022   5.102   4.340  14.680  0.0876  1.2630 -0.6699
15203TIP3   OH267023   4.240   1.394  11.283  0.2851  0.2198  0.3159
15203TIP3    H167024   4.276   1.333  11.217 -0.9908 -1.1977  0.8647
15203TIP3    H267025   4.316   1.441  11.316  0.9507  1.2897 -2.4291
15204TIP3   OH267026   0.117   3.616  16.869  0.3711  1.1497 -0.2303
15204TIP3    H167027   0.087   3.603  16.779  0.6517  0.0574 -0.1902
15204TIP3    H267028   0.041   3.595  16.923  0.9402 -1.0600 -0.1514
15205TIP3   OH267029   1.196   3.579  16.014  0.4699 -0.6547 -0.2754
15205TIP3    H167030   1.209   3.535  15.930  0.7523  0.3291 -0.7682
15205TIP3    H267031   1.126   3.643  15.997 -0.1944 -1.1487  0.5187
15206TIP3   OH267032   3.317   5.688  11.917 -0.0405  0.5478  0.8136
15206TIP3    H167033   3.288   5.597  11.921 -0.2573  0.4936 -1.3068
15206TIP3    H267034   3.412   5.684  11.927  0.2615 -0.2007 -1.6938
15207TIP3   OH267035   3.254   3.671   1.853 -1.0112  0.1659  0.0223
15207TIP3    H167036   3.338   3.686   1.811 -1.0420  0.3853  0.0389
15207TIP3    H267037   3.197   3.640   1.782 -1.6959  2.6782 -0.6199
15208TIP3   OH267038   0.198   0.494  16.482  0.4430  0.1777 -0.3756
15208TIP3    H167039   0.240   0.480  16.567  1.4826  1.8125 -0.5831
15208TIP3    H267040   0.270   0.496  16.420 -0.2847 -0.6960 -1.2949
15209TIP3   OH267041   0.087   6.260   4.400  0.4084  0.3741  0.2053
15209TIP3    H167042   0.027   6.208   4.453  0.1882 -0.2644 -0.6641
15209TIP3    H267043   0.173   6.223   4.417  0.1683 -0.7653 -0.9630
15210TIP3   OH267044   6.615   0.586   0.792 -0.5370 -0.1218  0.3845
15210TIP3    H167045   6.553   0.605   0.862  0.3169  0.0190  1.1079
15210TIP3    H267046   6.670   0.516   0.826 -0.3849 -0.3522 -0.3144
15211TIP3   OH267047   2.776   5.628  15.902  0.0822 -0.6020 -0.3061
15211TIP3    H167048   2.717   5.679  15.958 -1.8586 -1.9572 -1.0010
15211TIP3    H267049   2.825   5.693  15.853 -1.5330  0.6172 -0.3757
15212TIP3   OH267050   1.927   5.927   4.501  0.9191  0.0387 -0.2525
15212TIP3    H167051   1.909   5.900   4.411 -0.8913 -0.7930  0.3145
15212TIP3    H267052   1.862   5.995   4.520  0.4436 -0.6731  0.8051
15213TIP3   OH267053   4.785   1.940  15.698  0.0767 -0.0294 -0.3185
15213TIP3    H167054   4.805   1.901  15.783  1.2739 -2.1791 -1.5084
15213TIP3    H267055   4.849   2.011  15.688 -1.0543  1.2828  1.1545
15214TIP3   OH267056   3.583   3.908   2.161  0.1580  0.3842  0.1454
15214TIP3    H167057   3.621   3.987   2.202  0.0002  2.1769 -2.9003
15214TIP3    H267058   3.656   3.868   2.115  0.0983 -1.0077  1.2005
15215TIP3   OH267059   5.849   0.445   0.534 -1.0010  0.7062  0.0828
15215TIP3    H167060   5.910   0.442   0.460  0.1899  0.5721  1.0437
15215TIP3    H267061   5.786   0.514   0.510  0.8673  2.5010  0.0654
15216TIP3   OH267062   1.507   3.091  10.569  0.5656 -0.1765  0.4758
15216TIP3    H167063   1.436   3.141  10.530  0.9249 -0.7367 -0.9505
15216TIP3    H267064   1.563   3.157  10.610 -1.6469  0.1597  3.2722
15217TIP3   OH267065   1.265   0.093   4.243 -0.2620  0.0814  0.1474
15217TIP3    H167066   1.224   0.063   4.324  1.2196 -1.6786  0.3052
15217TIP3    H267067   1.231   0.033   4.176 -0.5509  0.7648 -0.3248
15218TIP3   OH267068   1.147   5.310  15.520  0.1416  0.3701  0.3740
15218TIP3    H167069   1.059   5.277  15.533  0.1272 -0.3909 -1.4152
15218TIP3    H267070   1.139   5.373  15.448  0.8308  1.3403  1.1194
15219TIP3   OH267071   4.746   5.910   3.470 -0.5151 -0.0393 -0.2789
15219TIP3    H167072   4.790   5.841   3.519  0.1588  1.0410  0.6591
15219TIP3    H267073   4.671   5.866   3.430  0.7927 -1.6770 -1.0566
15220TIP3   OH267074   0.107   5.006   3.731 -0.6715 -0.7077 -0.2168
15220TIP3    H167075   0.024   4.965   3.755 -1.5877  1.4244  0.5240
15220TIP3    H267076   0.132   5.057   3.808  0.2537  0.3119 -1.1454
15221TIP3   OH267077   6.426   3.013   0.768  0.2237  0.1662 -0.0566
15221TIP3    H167078   6.398   3.081   0.707 -1.5458 -1.2315 -0.8663
15221TIP3    H267079   6.493   2.964   0.720 -0.0510  0.0184 -0.2888
15222TIP3   OH267080   6.659   5.799   4.265 -0.1352 -0.5935 -0.1761
15222TIP3    H167081   6.623   5.825   4.350 -2.3811 -1.8356 -0.6666
15222TIP3    H267082   6.605   5.725   4.238  1.0019 -0.6933 -2.3752
15223TIP3   OH267083   5.859   1.927   1.077 -0.0353  0.6098  0.2112
15223TIP3    H167084   5.913   1.903   1.153 -0.8336  0.7126  0.8317
15223TIP3    H267085   5.773   1.949   1.115 -0.2944  1.1739 -0.6731
15224TIP3   OH267086   1.702   0.849   3.075 -0.0310 -0.0325  0.2430
15224TIP3    H167087   1.788   0.878   3.045 -0.2810  1.0041  0.4851
15224TIP3    H267088   1.713   0.755   3.092  1.3348  0.2754  1.2659
15225TIP3   OH267089   4.546   1.483  11.919 -0.0855 -0.2036  0.2729
15225TIP3    H167090   4.550   1.403  11.866  0.6275 -0.0006  0.0201
15225TIP3    H267091   4.617   1.537  11.887 -1.2246  1.0092 -0.3006
15226TIP3   OH267092   4.014   1.572  12.476 -0.1411 -0.4946  0.0800
15226TIP3    H167093   4.011   1.664  12.500  1.4567 -1.1597  3.3229
15226TIP3    H267094   3.922   1.548  12.461 -0.9554  0.9019  2.4042
15227TIP3   OH267095   2.667   2.557   1.872 -0.2441  0.1187  0.5393
15227TIP3    H167096   2.644   2.471   1.836  1.6380  0.1409 -0.8941
15227TIP3    H267097   2.706   2.537   1.957  3.6386 -0.9815 -1.2634
15228TIP3   OH267098   6.189   1.838  11.565 -0.0199 -0.4613 -0.1333
15228TIP3    H167099   6.172   1.913  11.509 -1.5006  0.3805  1.3621
15228TIP3    H267100   6.278   1.810  11.542  0.0661  0.9287 -1.6202
15229TIP3   OH267101   5.666   0.561   4.177  0.1583 -0.0006 -0.6064
15229TIP3    H167102   5.657   0.620   4.252  0.4300 -1.7407  0.8389
15229TIP3    H267103   5.580   0.519   4.170  0.5523 -0.8400 -0.4127
15230TIP3   OH267104   0.233   6.765  15.212  0.0947 -0.6858  0.3880
15230TIP3    H167105   0.326   6.751  15.199  0.3378  0.5805  0.6849
15230TIP3    H267106   0.228   6.832  15.280 -1.0161 -0.1986 -0.1479
15231TIP3   OH267107   5.719   4.678  16.511 -0.1882  0.2873  0.1862
15231TIP3    H167108   5.713   4.626  16.591  2.6575 -0.1476  0.2244
15231TIP3    H267109   5.632   4.716  16.500 -1.4957 -2.0019  1.8421
15232TIP3   OH267110   3.228   6.571   4.015 -0.7026  0.2011  0.2522
15232TIP3    H167111   3.152   6.530   3.973 -0.2211 -0.2819 -0.1653
15232TIP3    H267112   3.253   6.510   4.084 -0.1069 -0.1172 -0.2392
15233TIP3   OH267113   6.685   1.725   3.975 -0.3213 -0.0923  0.1877
15233TIP3    H167114   6.735   1.787   4.027  1.3526  0.8641 -2.3965
15233TIP3    H267115   6.610   1.775   3.942  0.9140  0.6110 -1.7194
15234TIP3   OH267116   0.689   1.253   2.937 -0.8564  0.6898 -0.2322
15234TIP3    H167117   0.669   1.278   3.027 -3.1750  3.6742 -1.4097
15234TIP3    H267118   0.643   1.170   2.924 -1.3045  0.7232  1.0541
15235TIP3   OH267119   5.603   1.090  12.146  0.4695 -0.1715  0.3781
15235TIP3    H167120   5.629   1.119  12.059  1.3316  1.4389  1.1253
15235TIP3    H267121   5.656   1.012  12.163  0.8844 -0.0194 -0.2154
15236TIP3   OH267122   0.079   0.871  13.596  0.5809  0.2385  0.3184
15236TIP3    H167123   0.156   0.823  13.627  0.3848 -0.4259 -0.1946
15236TIP3    H267124   0.033   0.898  13.676  0.8445 -0.1896  0.6171
15237TIP3   OH267125   4.717   5.575  14.107  0.7147 -0.1361 -0.3176
15237TIP3    H167126   4.812   5.582  14.099  0.6947  0.7393  0.0352
15237TIP3    H267127   4.695   5.633  14.180  0.0380 -1.3605  0.4763
15238TIP3   OH267128   3.475   5.811  15.395  0.3165  0.1410 -0.0187
15238TIP3    H167129   3.448   5.728  15.434  1.4451 -0.0860  0.2872
15238TIP3    H267130   3.553   5.789  15.344  0.6459  1.0199  0.0978
15239TIP3   OH267131   6.184   5.613   4.293  0.3166 -0.0405 -0.0437
15239TIP3    H167132   6.109   5.613   4.352  0.3773  0.9452  0.0561
15239TIP3    H267133   6.185   5.525   4.254 -1.4470  0.2161 -0.7658
15240TIP3   OH267134   0.658   1.055   1.744 -0.0995  0.0676  0.1259
15240TIP3    H167135   0.675   0.986   1.809 -0.4026  0.6502  0.8412
15240TIP3    H267136   0.696   1.134   1.783 -0.6093  0.4965 -0.2343
15241TIP3   OH267137   3.099   0.440   4.086  0.3358 -0.0102 -0.1428
15241TIP3    H167138   3.168   0.393   4.132  1.4669 -0.1278 -1.8659
15241TIP3    H267139   3.045   0.478   4.155  1.3444 -1.0312  1.2541
15242TIP3   OH267140   0.768   0.020   3.665  0.4563  0.1190 -0.0038
15242TIP3    H167141   0.862   0.013   3.651  0.5508 -0.9740  1.0293
15242TIP3    H267142   0.738  -0.070   3.678 -0.8563  0.3738 -0.9525
15243TIP3   OH267143   0.940   3.555  14.936 -0.3319 -0.1254 -0.5288
15243TIP3    H167144   0.911   3.480  14.883  0.7060 -1.4659  0.7057
15243TIP3    H267145   1.006   3.518  14.994 -0.4250  1.5983  0.7240
15244TIP3   OH267146   5.312   5.393   4.647  0.6302  0.1864 -0.0637
15244TIP3    H167147   5.364   5.451   4.592 -0.4366  0.0853 -1.2310
15244TIP3    H267148   5.287   5.321   4.588 -2.1844  1.0535 -0.0600
15245TIP3   OH267149   2.071   3.375   1.938  0.5147 -0.0580  0.0612
15245TIP3    H167150   1.979   3.395   1.957  0.2950  0.2764 -1.2697
15245TIP3    H267151   2.117   3.457   1.955  0.2062  0.4628 -1.5296
15246TIP3   OH267152   0.059   4.675   3.806 -0.2515  0.4611 -0.3526
15246TIP3    H167153   0.135   4.668   3.865 -0.4988  1.5188  0.1131
15246TIP3    H267154   0.096   4.704   3.723  0.3720 -2.8790 -1.3933
15247TIP3   OH267155   3.955   2.658   2.308 -1.1441 -0.1348  0.2073
15247TIP3    H167156   3.956   2.637   2.215 -4.1366  0.8933 -0.1633
15247TIP3    H267157   3.943   2.753   2.312 -0.5383 -0.0885  1.6553
15248TIP3   OH267158   1.066   2.205  15.563  0.4151 -0.1849  0.5283
15248TIP3    H167159   1.124   2.129  15.569 -0.7471 -1.0573  1.1022
15248TIP3    H267160   1.094   2.250  15.483  0.9867 -1.3402  0.0523
15249TIP3   OH267161   6.574   1.492   4.925  0.1075 -0.0980  0.0773
15249TIP3    H167162   6.531   1.536   4.852 -2.5980 -1.3717  0.7737
15249TIP3    H267163   6.507   1.489   4.994  1.9413 -0.6156  1.9421
15250TIP3   OH267164   6.744   6.707  16.273 -0.7116 -0.5291  0.2080
15250TIP3    H167165   6.758   6.800  16.290  1.3610 -1.0342  1.5768
15250TIP3    H267166   6.659   6.688  16.312 -1.4053  0.8867 -0.5604
15251TIP3   OH267167   1.735   0.325   3.710  0.3465  0.1965 -0.0985
15251TIP3    H167168   1.667   0.331   3.777  0.3233  1.8796 -0.2156
15251TIP3    H267169   1.777   0.240   3.724 -0.9000 -0.2810  0.8261
15252TIP3   OH267170   3.793   4.575   2.942 -0.3327  0.1896  0.2977
15252TIP3    H167171   3.767   4.501   2.997 -0.4346 -1.1355 -1.4644
15252TIP3    H267172   3.745   4.563   2.860  1.0951  1.1400 -0.7265
15253TIP3   OH267173   4.973   6.250  15.726 -0.7406  0.1541  0.2070
15253TIP3    H167174   4.917   6.285  15.657 -0.3270  2.1597  0.8000
15253TIP3    H267175   5.021   6.178  15.685 -2.3808 -0.3984 -0.8155
15254TIP3   OH267176   3.339   0.911  12.770 -0.0864  0.2616  0.5268
15254TIP3    H167177   3.277   0.853  12.725  2.7373 -1.8840 -0.8782
15254TIP3    H267178   3.371   0.860  12.844  1.5573  0.4599 -0.0090
15255TIP3   OH267179   3.093   2.866   3.146  0.8245 -0.1944 -0.2438
15255TIP3    H167180   3.020   2.928   3.152  1.2612  0.3849 -0.7499
15255TIP3    H267181   3.150   2.888   3.219 -1.5857 -3.5127  2.9575
15256TIP3   OH267182   3.228   6.621   4.489  0.2437 -0.0712  0.0406
15256TIP3    H167183   3.185   6.675   4.555 -0.7960  0.2688 -0.8812
15256TIP3    H267184   3.257   6.543   4.537  1.1437  0.9538  1.2482
15257TIP3   OH267185   6.323   2.046   1.183  0.3724  0.5382 -0.2901
15257TIP3    H167186   6.277   1.963   1.177 -0.2850  0.7203  1.6147
15257TIP3    H267187   6.350   2.052   1.275 -0.6663  2.9606 -0.0626
15258TIP3   OH267188   1.599   4.963  15.235  0.0689 -0.0404 -0.2353
15258TIP3    H167189   1.628   4.947  15.325 -1.0960 -0.3837  0.0960
15258TIP3    H267190   1.643   4.896  15.183  0.7607  0.1703  0.0650
15259TIP3   OH267191   2.365   5.646  13.306 -0.3842 -0.3655 -0.1299
15259TIP3    H167192   2.333   5.733  13.281 -1.9380 -0.8099  0.1765
15259TIP3    H267193   2.305   5.585  13.263 -0.3421 -1.2358  0.9887
15260TIP3   OH267194   0.841   1.510  11.814 -0.1365 -0.5092  0.6471
15260TIP3    H167195   0.752   1.534  11.840 -1.2698 -2.6104 -0.9783
15260TIP3    H267196   0.846   1.535  11.722  0.2609 -2.1147  0.2129
15261TIP3   OH267197   0.820   3.468   3.111  0.6167 -0.0123  0.4667
15261TIP3    H167198   0.900   3.521   3.108 -1.0646  2.8470  1.1924
15261TIP3    H267199   0.833   3.408   3.184  1.8871  0.7723  0.9122
15262TIP3   OH267200   3.760   5.670   5.113 -0.2522  0.0972 -0.0975
15262TIP3    H167201   3.691   5.696   5.175 -0.2745 -1.0434  0.3872
15262TIP3    H267202   3.822   5.743   5.113 -1.2740  0.9872 -0.2681
15263TIP3   OH267203   6.641   5.901  12.114  0.0765  0.0149  0.0906
15263TIP3    H167204   6.591   5.983  12.112  1.3380  0.8090 -0.2290
15263TIP3    H267205   6.707   5.915  12.182 -0.2244 -1.0827  0.6334
15264TIP3   OH267206   1.125   0.160   3.504 -0.5047 -0.3952 -0.4829
15264TIP3    H167207   1.059   0.091   3.496  0.5289 -1.2609 -1.8718
15264TIP3    H267208   1.208   0.114   3.510 -0.0578  0.6039  3.3956
15265TIP3   OH267209   2.480   1.028  13.815 -0.3604 -0.3211  0.8457
15265TIP3    H167210   2.390   1.052  13.838 -1.0637 -2.1909  0.2342
15265TIP3    H267211   2.510   1.099  13.757 -1.8353 -0.1989  0.1866
15266TIP3   OH267212   1.950   2.113  13.699  0.2557 -0.5008 -0.3337
15266TIP3    H167213   1.883   2.163  13.746  0.6231  0.7942 -1.1430
15266TIP3    H267214   1.954   2.029  13.746 -0.4602  0.1670  0.9936
15267TIP3   OH267215   1.864   6.007  14.939  0.1212 -0.0497 -0.5898
15267TIP3    H167216   1.937   6.061  14.910  0.4130 -0.3670 -0.4401
15267TIP3    H267217   1.837   6.045  15.022  0.9108 -0.6867 -0.0369
15268TIP3   OH267218   2.440   1.191   0.465  0.1254  0.2067  0.1805
15268TIP3    H167219   2.440   1.206   0.370 -1.6154  0.0056  0.1257
15268TIP3    H267220   2.520   1.236   0.495  0.9952 -0.1589 -1.4201
15269TIP3   OH267221   4.380   3.187   1.026 -0.2623 -0.4410  0.4893
15269TIP3    H167222   4.466   3.226   1.038 -0.2578 -0.4355  0.4408
15269TIP3    H267223   4.389   3.096   1.056 -0.2308 -0.4498  0.4527
15270TIP3   OH267224   1.137   5.735   1.608 -0.1803 -0.1169  0.1938
15270TIP3    H167225   1.217   5.698   1.572 -1.4956 -2.0157 -1.0284
15270TIP3    H267226   1.091   5.771   1.533 -0.0036  2.0551  1.0486
15271TIP3   OH267227   6.550   5.319  14.769  0.1742 -0.4898 -0.4631
15271TIP3    H167228   6.553   5.366  14.686 -1.0516  1.2651  0.4294
15271TIP3    H267229   6.464   5.338  14.805  1.5528  1.0972  2.4404
15272TIP3   OH267230   6.699   0.407   5.094 -0.3022 -0.1599 -0.0860
15272TIP3    H167231   6.734   0.379   5.178  0.1172  2.0788  0.5516
15272TIP3    H267232   6.621   0.353   5.081  1.3779 -2.8196  0.1214
15273TIP3   OH267233   1.903   1.713  11.660 -0.7893  0.3445 -0.4220
15273TIP3    H167234   1.927   1.703  11.752 -0.3596 -0.0705 -0.5753
15273TIP3    H267235   1.888   1.624  11.629 -0.4707  0.4456 -0.8732
15274TIP3   OH267236   4.007   6.522   1.185  0.3793  0.5453 -0.2007
15274TIP3    H167237   4.030   6.537   1.093 -1.3441  0.3166 -0.6958
15274TIP3    H267238   3.986   6.429   1.189 -0.4014  0.7349  0.2298
15275TIP3   OH267239   4.802   5.523   6.548  0.2181 -0.1730  0.3222
15275TIP3    H167240   4.879   5.580   6.557 -0.8519  1.4690 -0.4939
15275TIP3    H267241   4.836   5.442   6.509  1.4953  0.6096 -0.2359
15276TIP3   OH267242   4.937   4.484   5.447  0.0714  0.1087 -0.5246
15276TIP3    H167243   4.966   4.430   5.374  2.8363  0.1405  0.4301
15276TIP3    H267244   4.984   4.567   5.436 -0.5427  0.6178  0.5392
15277TIP3   OH267245   3.107   2.794  13.771 -0.4970 -0.2748 -0.1181
15277TIP3    H167246   3.022   2.751  13.762  0.2518 -1.6947 -0.6336
15277TIP3    H267247   3.098   2.848  13.849 -1.4631 -1.4040  0.5829
15278TIP3   OH267248   0.633   1.237  17.286  0.2210 -0.0322  0.5140
15278TIP3    H167249   0.538   1.248  17.279  0.1462 -0.8497  0.1224
15278TIP3    H267250   0.644   1.163  17.345  0.6038 -0.1267  0.3261
15279TIP3   OH267251   3.701   1.191  12.567 -0.1347 -0.4573 -0.1015
15279TIP3    H167252   3.636   1.175  12.500  0.8744 -1.8763 -0.7969
15279TIP3    H267253   3.652   1.192  12.649 -1.2616  0.4221 -0.7687
15280TIP3   OH267254   4.163   4.288   2.851  0.1862 -0.3653 -0.0171
15280TIP3    H167255   4.129   4.378   2.847  1.0793 -0.0420 -1.4407
15280TIP3    H267256   4.245   4.296   2.900  0.5342 -0.2813 -0.5941
15281TIP3   OH267257   1.333   1.600   4.454 -0.1640  0.3924 -0.1834
15281TIP3    H167258   1.410   1.620   4.401 -0.4690  1.5768 -0.1913
15281TIP3    H267259   1.322   1.676   4.511 -1.1396  0.0935  0.0522
15282TIP3   OH267260   4.956   3.372  14.734  0.1455 -0.4038  0.5666
15282TIP3    H167261   5.026   3.339  14.678  0.1909 -1.1256  1.0201
15282TIP3    H267262   4.970   3.466  14.739  0.1509 -0.3370 -0.6064
15283TIP3   OH267263   5.801   4.065  13.479  0.2968 -0.1440 -0.1371
15283TIP3    H167264   5.860   4.021  13.539 -1.1856 -3.1211 -0.6980
15283TIP3    H267265   5.805   4.013  13.399 -0.1989  1.8603 -1.5527
15284TIP3   OH267266   0.861   0.044  12.260  0.2389  0.7159 -0.0951
15284TIP3    H167267   0.791   0.105  12.282 -0.1102  0.3503 -0.1985
15284TIP3    H267268   0.926   0.056  12.330 -0.2505  0.5296  0.3994
15285TIP3   OH267269   5.380   1.163  14.352 -0.6411 -0.4432 -0.4052
15285TIP3    H167270   5.444   1.132  14.288 -0.1247  1.3308 -0.7961
15285TIP3    H267271   5.431   1.181  14.430 -0.7809  0.2468 -0.4700
15286TIP3   OH267272   2.577   4.329   6.721 -0.2219 -0.2118  0.0722
15286TIP3    H167273   2.519   4.391   6.676 -1.2255 -1.6033 -0.6274
15286TIP3    H267274   2.661   4.374   6.726 -0.9795  1.3028 -0.1742
15287TIP3   OH267275   4.725   0.788  11.159 -0.8068 -0.5255  0.3389
15287TIP3    H167276   4.773   0.867  11.183  0.2772 -0.8098 -0.7761
15287TIP3    H267277   4.718   0.792  11.063 -0.1855 -2.0552  0.1970
15288TIP3   OH267278   1.415   0.648   2.732  1.1080  0.2532  0.1180
15288TIP3    H167279   1.424   0.713   2.802  2.3996  0.3954 -0.1596
15288TIP3    H267280   1.361   0.692   2.666  1.5217  0.8486  0.1721
15289TIP3   OH267281   5.527   3.878  13.500 -0.8373 -0.3776 -0.1200
15289TIP3    H167282   5.583   3.807  13.533 -0.3342  0.9748  2.1474
15289TIP3    H267283   5.586   3.934  13.450 -1.2161 -1.3986 -1.8280
15290TIP3   OH267284   4.815   4.416   0.165 -0.6768  0.3455  0.4264
15290TIP3    H167285   4.870   4.373   0.230 -1.1159 -0.6983  0.1461
15290TIP3    H267286   4.753   4.348   0.138 -2.2346  1.5314  0.8781
15291TIP3   OH267287   6.720   5.011   1.651  0.3945 -0.3564  0.5739
15291TIP3    H167288   6.704   5.104   1.666  0.2853 -0.5553  1.7273
15291TIP3    H267289   6.809   5.008   1.615 -0.1269  0.2970 -0.8651
15292TIP3   OH267290   1.120   5.082  13.505  0.1004 -0.0929 -0.2523
15292TIP3    H167291   1.048   5.069  13.443 -0.7211 -0.5585  0.7744
15292TIP3    H267292   1.119   5.176  13.523  0.8705  0.1895 -1.5355
15293TIP3   OH267293   5.702   1.691   5.343 -0.0716 -0.4366  0.3148
15293TIP3    H167294   5.698   1.776   5.387 -0.3059  0.0255 -0.5910
15293TIP3    H267295   5.704   1.628   5.415 -0.0060  0.3235  0.9981
15294TIP3   OH267296   3.987   3.407   0.842 -0.0808  0.1264  0.1427
15294TIP3    H167297   3.945   3.367   0.765  0.3392  1.4682 -0.8261
15294TIP3    H267298   3.922   3.469   0.875  0.1820  0.4018  0.1495
15295TIP3   OH267299   1.902   4.976  12.302  0.1630  0.0981 -0.2391
15295TIP3    H167300   1.948   4.951  12.382 -1.0339 -0.5232  0.2710
15295TIP3    H267301   1.922   4.906  12.239 -0.1598 -0.2219  0.0133
15296TIP3   OH267302   0.385   4.827   1.946 -0.0185  0.0886  0.0990
15296TIP3    H167303   0.464   4.827   2.000  0.0617 -1.8365  0.0495
15296TIP3    H267304   0.417   4.843   1.857 -0.0741  2.5107  0.4533
15297TIP3   OH267305   0.970   4.282  17.308  0.0994 -0.4760 -0.2870
15297TIP3    H167306   0.999   4.244  17.225  0.5444  0.0928 -0.3998
15297TIP3    H267307   0.875   4.286  17.301  0.1700  0.0376 -0.9775
15298TIP3   OH267308   5.676   2.828  11.310  0.1984 -0.1865  0.2322
15298TIP3    H167309   5.621   2.885  11.364  1.7574  0.8958  0.7566
15298TIP3    H267310   5.708   2.885  11.240  1.3637 -0.5438  0.4566
15299TIP3   OH267311   4.457   5.615   6.457 -0.6551 -0.0658  0.7745
15299TIP3    H167312   4.390   5.550   6.481  0.0871 -1.3245 -0.3696
15299TIP3    H267313   4.408   5.696   6.444 -2.0769 -1.0440 -0.4386
15300TIP3   OH267314   6.041   6.360  11.212  0.2462  0.0429  0.1921
15300TIP3    H167315   6.100   6.435  11.214  0.7844 -0.2554 -1.7510
15300TIP3    H267316   5.970   6.387  11.154 -1.4754  0.3166  2.3348
15301TIP3   OH267317   1.844   6.092  16.405  0.3289 -0.0547  0.7926
15301TIP3    H167318   1.775   6.143  16.361 -0.4239  0.0909  2.0891
15301TIP3    H267319   1.875   6.031  16.338 -0.5311  0.3916 -0.0422
15302TIP3   OH267320   4.609   2.229   2.302  0.0558  0.5698 -0.3755
15302TIP3    H167321   4.613   2.307   2.356  1.0118 -1.0509  2.0361
15302TIP3    H267322   4.655   2.253   2.221  2.7790  1.7425  1.3767
15303TIP3   OH267323   2.704   4.861   4.563 -0.0457  0.5719  0.1232
15303TIP3    H167324   2.653   4.900   4.634  0.8189 -0.2891  1.2644
15303TIP3    H267325   2.681   4.912   4.486 -1.4400  1.1869  0.9047
15304TIP3   OH267326   5.526   0.057  11.354  0.5170  0.5124 -0.5968
15304TIP3    H167327   5.546   0.150  11.366  0.1515  0.4715  0.3708
15304TIP3    H267328   5.586   0.011  11.412 -2.1579  0.3884  2.3400
15305TIP3   OH267329   1.684   3.585  11.163  0.3559  0.4174 -0.3102
15305TIP3    H167330   1.757   3.534  11.129  0.6633  0.5666  0.1107
15305TIP3    H267331   1.629   3.603  11.087 -0.0777 -1.0541 -0.3651
15306TIP3   OH267332   3.621   3.137  16.667 -0.0110 -0.3236  0.1501
15306TIP3    H167333   3.662   3.183  16.740  2.1787 -2.9620  0.7485
15306TIP3    H267334   3.531   3.121  16.697  0.5632 -0.5052  1.9044
15307TIP3   OH267335   5.242   2.046   4.500  0.1391 -0.2937  0.5134
15307TIP3    H167336   5.280   1.962   4.524  0.7577  0.1935  1.2962
15307TIP3    H267337   5.212   2.034   4.410 -0.2225 -1.4920  0.7719
15308TIP3   OH267338   1.254   2.752   5.988  0.3162 -0.4101 -0.0545
15308TIP3    H167339   1.339   2.778   6.022  0.1299 -0.2169  0.2684
15308TIP3    H267340   1.264   2.752   5.893  0.3799  0.6190 -0.0547
15309TIP3   OH267341   3.256   2.042  12.879  0.2890 -0.1061  0.5955
15309TIP3    H167342   3.264   2.054  12.784  1.4825  1.4496  0.8607
15309TIP3    H267343   3.298   1.958  12.896  2.1862  0.6639 -0.0077
15310TIP3   OH267344   6.625   6.749  15.956 -0.4991 -0.7112 -0.0916
15310TIP3    H167345   6.715   6.745  15.923 -0.0100 -0.2027  1.1052
15310TIP3    H267346   6.612   6.666  16.002 -0.3280 -0.4300  0.4738
15311TIP3   OH267347   5.012   1.271  11.852 -0.5775  0.6106 -0.2417
15311TIP3    H167348   5.090   1.327  11.861  0.0163 -0.4931  2.2026
15311TIP3    H267349   4.949   1.309  11.913 -1.5809  0.8018 -1.3647
15312TIP3   OH267350   2.761   5.104  13.884 -0.3266 -0.5013  0.0148
15312TIP3    H167351   2.685   5.045  13.885 -0.5800 -0.2121 -0.9833
15312TIP3    H267352   2.761   5.141  13.796  0.5981  0.0036  0.2167
15313TIP3   OH267353   3.977   4.552  12.290 -0.2987  0.0586 -0.1422
15313TIP3    H167354   4.017   4.593  12.214 -0.5077  2.0958  0.7904
15313TIP3    H267355   3.912   4.492  12.253 -0.8413  1.4513 -1.5873
15314TIP3   OH267356   0.434   6.274  11.492  0.2336 -0.2798  0.9210
15314TIP3    H167357   0.486   6.354  11.489 -3.5042  2.3725  0.2922
15314TIP3    H267358   0.428   6.246  11.400 -0.2938 -0.0066  0.8748
15315TIP3   OH267359   2.748   5.127  13.607  0.3161 -0.3255 -0.7665
15315TIP3    H167360   2.698   5.208  13.607  0.1468 -0.4261 -0.1819
15315TIP3    H267361   2.706   5.073  13.540 -0.1442 -0.2762 -0.5219
15316TIP3   OH267362   1.005   0.410   0.780  0.6652  0.0066 -0.4251
15316TIP3    H167363   0.984   0.387   0.871  1.3590  0.8406 -0.0383
15316TIP3    H267364   1.088   0.457   0.786  1.8167 -1.7613 -1.7308
15317TIP3   OH267365   4.733   5.270   4.191  0.3197  0.4397  0.1391
15317TIP3    H167366   4.729   5.189   4.140  0.4504  0.8224 -0.5001
15317TIP3    H267367   4.692   5.248   4.275  1.3469 -0.5770  0.3868
15318TIP3   OH267368   1.108   5.008  14.504 -0.1254 -0.0657  0.1440
15318TIP3    H167369   1.043   5.072  14.535  0.2545  0.8733 -0.9133
15318TIP3    H267370   1.065   4.923  14.513  0.3366 -0.1002  4.3368
15319TIP3   OH267371   0.888   5.505   3.762  0.0592 -0.0115  0.4842
15319TIP3    H167372   0.803   5.542   3.738  1.0641  0.9336 -1.8047
15319TIP3    H267373   0.928   5.572   3.818  0.1466  0.4927 -0.1725
15320TIP3   OH267374   6.126   5.354   4.272  0.2233 -0.1673  0.1641
15320TIP3    H167375   6.166   5.324   4.354  0.3579 -2.0829 -0.5552
15320TIP3    H267376   6.032   5.343   4.286 -0.0601  2.6870  1.2148
15321TIP3   OH267377   1.116   1.842   5.867  0.2830 -0.0085  0.0813
15321TIP3    H167378   1.065   1.769   5.830 -1.2549  0.2917  1.4886
15321TIP3    H267379   1.121   1.822   5.960  1.7651  0.6020  0.1551
15322TIP3   OH267380   5.789   0.288  16.591  0.1902  0.3235  0.5100
15322TIP3    H167381   5.739   0.230  16.533  1.3826 -0.7581  0.5276
15322TIP3    H267382   5.838   0.345  16.533  0.4568  0.0514  0.4664
15323TIP3   OH267383   2.941   1.517  16.382 -0.2105 -0.5613 -0.2344
15323TIP3    H167384   2.888   1.597  16.389 -1.4385 -1.4647  1.0919
15323TIP3    H267385   3.014   1.531  16.443  0.4170  0.1360 -1.1066
15324TIP3   OH267386   3.505   5.463   5.127  0.4191  0.2831  0.7118
15324TIP3    H167387   3.502   5.368   5.143 -0.3391  0.6878  3.5058
15324TIP3    H267388   3.418   5.494   5.150  0.8753  1.7594  0.5351
15325TIP3   OH267389   6.580   3.049  11.689 -0.0475 -0.6559 -0.6670
15325TIP3    H167390   6.574   3.041  11.784 -2.5632  1.6803 -0.5040
15325TIP3    H267391   6.502   3.005  11.655  0.3782 -0.7309 -1.5914
15326TIP3   OH267392   6.479   1.907   3.913 -0.2249 -0.1285 -0.2670
15326TIP3    H167393   6.500   1.998   3.933  1.1625  0.1385 -2.6160
15326TIP3    H267394   6.418   1.911   3.840  2.3135 -0.9739 -2.6307
15327TIP3   OH267395   1.569   6.401  11.040 -0.1764 -0.1550 -0.5211
15327TIP3    H167396   1.488   6.362  11.006 -0.3555 -0.3828  0.1508
15327TIP3    H267397   1.638   6.366  10.984 -0.5034 -0.2679 -0.8544
15328TIP3   OH267398   6.029   2.279   3.517 -0.3228 -0.1922  0.6670
15328TIP3    H167399   6.069   2.231   3.445  0.1438  0.6604  0.3357
15328TIP3    H267400   5.993   2.358   3.476  1.8175  1.3943  1.5974
15329TIP3   OH267401   1.203   1.220  14.851 -0.5227  0.3600  0.2987
15329TIP3    H167402   1.197   1.227  14.756 -1.9103 -1.2774  0.2226
15329TIP3    H267403   1.134   1.277  14.884 -0.6391  0.2326  0.2784
15330TIP3   OH267404   4.537   0.813  12.630 -0.0741 -0.1703 -0.2474
15330TIP3    H167405   4.468   0.747  12.637 -0.2034 -0.2970 -2.1920
15330TIP3    H267406   4.549   0.826  12.536  0.6393  1.8823  0.0684
15331TIP3   OH267407   6.210   1.235  11.708  0.4571 -0.3775 -0.0499
15331TIP3    H167408   6.192   1.149  11.671  0.5234 -0.7307  0.7216
15331TIP3    H267409   6.298   1.257  11.677  0.3296 -0.4687 -0.4700
15332TIP3   OH267410   3.937   0.021   3.007 -0.0693 -0.2689  0.7809
15332TIP3    H167411   3.965   0.110   2.986  2.8243 -0.3899  3.3892
15332TIP3    H267412   4.012  -0.034   2.987 -0.5462 -1.5952  2.3574
15333TIP3   OH267413   2.928   3.268  11.551  0.1308 -0.2821  0.1559
15333TIP3    H167414   2.904   3.176  11.541 -0.4982  0.0418 -1.9170
15333TIP3    H267415   2.872   3.301  11.621 -0.7440 -1.1341 -0.1189
15334TIP3   OH267416   5.476   2.489  11.850  0.8361 -0.6884 -0.2004
15334TIP3    H167417   5.513   2.565  11.804 -2.0804 -0.2783 -2.1596
15334TIP3    H267418   5.498   2.414  11.795  0.9213 -0.7894 -0.0278
15335TIP3   OH267419   2.922   4.370  16.678 -0.2608 -0.3377  0.2159
15335TIP3    H167420   2.998   4.314  16.662 -1.0845 -1.3314 -0.3619
15335TIP3    H267421   2.947   4.426  16.751  0.9677 -0.7406  0.1177
15336TIP3   OH267422   2.252   4.782   1.760 -0.1423  0.0043 -0.4517
15336TIP3    H167423   2.239   4.829   1.678  0.1905 -1.0409 -1.1217
15336TIP3    H267424   2.331   4.820   1.797 -1.0815  1.4841  0.1329
15337TIP3   OH267425   3.767   6.726  12.179  0.0476 -0.3772  0.5844
15337TIP3    H167426   3.853   6.717  12.138 -0.1090  1.0357 -0.1159
15337TIP3    H267427   3.715   6.654  12.144  0.5640 -0.4564 -0.0266
15338TIP3   OH267428   2.192   0.037  12.498 -0.2560 -0.5202 -0.7608
15338TIP3    H167429   2.220   0.079  12.417  1.4914  1.4942  0.7929
15338TIP3    H267430   2.259  -0.030  12.515 -1.0120 -1.4478 -1.2817
15339TIP3   OH267431   1.411   2.976  12.052 -0.0393 -0.2041 -0.2484
15339TIP3    H167432   1.506   2.968  12.041 -0.0908 -1.3982 -0.0277
15339TIP3    H267433   1.396   2.956  12.144 -0.6365 -1.6468 -0.6343
15340TIP3   OH267434   2.939   3.147   3.481 -0.0395 -0.3348  0.2318
15340TIP3    H167435   3.009   3.177   3.539 -1.3331 -1.8287  2.7578
15340TIP3    H267436   2.888   3.087   3.535 -1.1628 -2.1515 -2.6149
15341TIP3   OH267437   1.357   5.815  12.421 -0.0620  0.4274 -0.0892
15341TIP3    H167438   1.380   5.856  12.504  4.4049 -2.2769  0.3664
15341TIP3    H267439   1.279   5.763  12.440  0.2190  0.7121  2.1113
15342TIP3   OH267440   3.997   5.462   2.488 -0.0355 -0.0716 -0.0919
15342TIP3    H167441   4.072   5.411   2.457  0.8277  0.5271  0.9522
15342TIP3    H267442   3.963   5.413   2.562  1.4449  1.3178  1.5895
15343TIP3   OH267443   2.373   0.357  14.304 -0.5219 -0.1329 -0.3681
15343TIP3    H167444   2.286   0.327  14.278  0.1127 -0.1814 -2.5617
15343TIP3    H267445   2.380   0.330  14.396 -2.1850 -1.5466 -0.5983
15344TIP3   OH267446   5.103   1.479   4.533  0.6329  0.1177  0.0284
15344TIP3    H167447   5.185   1.524   4.552 -0.0248  0.6231  1.7746
15344TIP3    H267448   5.127   1.387   4.528  1.3920  0.3151 -0.0751
15345TIP3   OH267449   5.487   0.125   0.452 -0.0114  0.0363  0.3036
15345TIP3    H167450   5.413   0.185   0.448 -0.4795 -0.5767 -1.9293
15345TIP3    H267451   5.448   0.038   0.439  1.1140 -0.2257 -1.8293
15346TIP3   OH267452   6.639   0.726  14.316 -0.3968 -0.0567 -0.1987
15346TIP3    H167453   6.599   0.715  14.402  0.0985  0.1051  0.0523
15346TIP3    H267454   6.716   0.670  14.317 -0.0442  0.4166 -0.3115
15347TIP3   OH267455   5.115   3.583   1.004 -0.3310  0.0681  0.2806
15347TIP3    H167456   5.031   3.576   1.049 -0.0063  1.3252  1.1056
15347TIP3    H267457   5.105   3.659   0.946 -0.7219 -1.4669 -1.8017
15348TIP3   OH267458   6.545   5.501   3.099 -0.9234 -0.4939 -0.2831
15348TIP3    H167459   6.572   5.587   3.066 -2.3093  0.5249  1.0843
15348TIP3    H267460   6.466   5.481   3.051 -1.6855 -0.0542  0.7354
15349TIP3   OH267461   2.855   1.384   0.232 -0.0992 -0.1660  0.3749
15349TIP3    H167462   2.802   1.430   0.168  1.4568  0.7606 -0.2941
15349TIP3    H267463   2.805   1.304   0.251 -1.4218  0.3721 -0.6544
15350TIP3   OH267464   5.627   4.690  11.548 -0.1618 -0.1839 -0.1266
15350TIP3    H167465   5.596   4.624  11.486 -0.3055 -0.4860  0.2574
15350TIP3    H267466   5.550   4.709  11.602 -0.0605  0.1342 -0.0943
15351TIP3   OH267467   0.130   3.607  17.289  0.2265 -0.1506 -0.3156
15351TIP3    H167468   0.224   3.608  17.302  0.2056  1.7202 -0.0695
15351TIP3    H267469   0.113   3.524  17.244  2.3633  0.7645 -3.1043
15352TIP3   OH267470   5.503   5.418   1.274  0.0382  0.1461 -0.1093
15352TIP3    H167471   5.506   5.509   1.243  1.5394  0.5994  1.2187
15352TIP3    H267472   5.409   5.397   1.275 -0.5659  2.4047  1.4464
15353TIP3   OH267473   0.606   4.719  15.016 -0.7337  0.1236  0.1689
15353TIP3    H167474   0.631   4.811  15.007 -2.0877  0.8592  2.7019
15353TIP3    H267475   0.606   4.685  14.927 -1.3658  2.9114 -1.0301
15354TIP3   OH267476   6.577   1.845   2.835  0.5512 -0.5227 -0.4756
15354TIP3    H167477   6.636   1.903   2.882 -0.1609  0.8995 -1.2570
15354TIP3    H267478   6.524   1.803   2.903  0.0644  0.8965  0.0670
15355TIP3   OH267479   5.302   2.405  16.489  0.6152 -0.2766 -0.5846
15355TIP3    H167480   5.354   2.348  16.546 -0.0599  0.4111  0.7726
15355TIP3    H267481   5.228   2.432  16.543  0.0333  0.5503 -1.7435
15356TIP3   OH267482   2.168   5.799   3.312 -0.0762 -0.0477  0.7848
15356TIP3    H167483   2.244   5.778   3.257 -1.6989  0.5446 -1.9019
15356TIP3    H267484   2.200   5.866   3.372  1.4852  0.4365 -0.4823
15357TIP3   OH267485   3.080   0.723  16.825 -0.1641  0.5113  0.0155
15357TIP3    H167486   3.035   0.700  16.743  0.8434 -0.7171 -0.2340
15357TIP3    H267487   3.027   0.683  16.894 -1.9015  2.8726  0.1766
15358TIP3   OH267488   0.842   5.376  12.718 -0.5610  0.0501 -0.2897
15358TIP3    H167489   0.761   5.407  12.677 -1.9054 -1.2521  1.2408
15358TIP3    H267490   0.822   5.373  12.811  0.1048 -3.3279 -0.1111
15359TIP3   OH267491   3.388   1.572  15.857 -0.3622 -0.8050  0.3494
15359TIP3    H167492   3.293   1.559  15.854 -0.1985 -1.9038 -1.0108
15359TIP3    H267493   3.410   1.608  15.771  0.6049 -1.7756  0.1727
15360TIP3   OH267494   5.938   6.073   3.015 -0.0393 -0.3826 -0.1818
15360TIP3    H167495   5.942   6.163   2.983 -2.4465 -0.1432  0.0435
15360TIP3    H267496   5.992   6.024   2.953  0.2307  1.0035 -1.0925
15361TIP3   OH267497   1.355   5.173   4.620  0.2393 -0.4250  0.5486
15361TIP3    H167498   1.394   5.148   4.703 -0.5197 -1.9849  0.4653
15361TIP3    H267499   1.266   5.137   4.623 -0.2942  0.7337 -0.3539
15362TIP3   OH267500   6.458   3.628   6.283  0.4985  0.0752  0.2600
15362TIP3    H167501   6.500   3.668   6.358  0.6005 -0.5651  0.5497
15362TIP3    H267502   6.519   3.641   6.211  1.2559 -0.9691  0.7063
15363TIP3   OH267503   3.169   0.588   1.798  0.0645 -0.3627  0.4506
15363TIP3    H167504   3.121   0.568   1.717 -0.4182  2.1651  0.0442
15363TIP3    H267505   3.256   0.614   1.769  0.0356  0.1019  0.7728
15364TIP3   OH267506   0.173   6.036  11.445  0.6208  0.2880 -0.0612
15364TIP3    H167507   0.209   5.972  11.385  0.6759 -0.7494  1.0352
15364TIP3    H267508   0.089   5.999  11.473  0.6404  0.6916  0.5754
15365TIP3   OH267509   4.662   5.969  13.059  0.0174 -0.2013 -0.2392
15365TIP3    H167510   4.642   6.036  12.994 -1.1489 -2.8680 -2.8423
15365TIP3    H267511   4.639   5.886  13.017  0.4847 -2.2422  3.1181
15366TIP3   OH267512   5.908   5.016   6.324 -0.1944  0.1702 -0.1029
15366TIP3    H167513   5.928   5.005   6.231  0.3427  0.4106 -0.0214
15366TIP3    H267514   5.822   4.975   6.335  0.0345 -0.4530 -0.5685
15367TIP3   OH267515   2.757   0.174   0.769  0.2518  0.1826  0.2412
15367TIP3    H167516   2.830   0.234   0.752  1.1923 -0.9488  0.2006
15367TIP3    H267517   2.778   0.096   0.718 -0.5372 -0.4997  0.9456
15368TIP3   OH267518   0.724   5.498  13.977  0.2031  0.2408 -0.7189
15368TIP3    H167519   0.792   5.461  13.921  0.6194 -0.2014  0.0622
15368TIP3    H267520   0.759   5.583  14.005  0.4742 -0.0291 -0.2405
15369TIP3   OH267521   1.702   0.928  12.623  0.3141  0.2105  0.1917
15369TIP3    H167522   1.706   0.901  12.531  0.4566  2.2495 -0.4583
15369TIP3    H267523   1.793   0.945  12.647  0.3466 -0.9119  0.9322
15370TIP3   OH267524   2.926   5.628   3.401 -0.0532  0.6926 -0.6417
15370TIP3    H167525   2.903   5.689   3.471 -0.1479  1.9053 -1.6898
15370TIP3    H267526   2.853   5.635   3.339  1.0446  1.3001 -1.9106
15371TIP3   OH267527   4.015   3.798  16.925  0.0482 -0.6546 -0.9863
15371TIP3    H167528   4.061   3.872  16.963 -1.4613  0.2869 -0.9010
15371TIP3    H267529   4.042   3.723  16.978 -1.0584  0.4089  1.2314
15372TIP3   OH267530   4.881   0.576  12.056  0.0966  0.3669 -0.0014
15372TIP3    H167531   4.947   0.604  12.120 -0.1511 -0.2385  0.5268
15372TIP3    H267532   4.888   0.481  12.055 -0.7326  0.3030  0.0105
15373TIP3   OH267533   5.989   3.195   1.924 -0.2759  0.7348 -0.5651
15373TIP3    H167534   5.950   3.252   1.990  0.0139 -0.0882  0.3533
15373TIP3    H267535   5.934   3.117   1.924  1.5463 -0.6556  1.0995
15374TIP3   OH267536   0.401   0.562  15.311  0.5738  0.4256 -0.7558
15374TIP3    H167537   0.363   0.478  15.334 -1.0100  1.0585 -0.9178
15374TIP3    H267538   0.456   0.544  15.235  0.0797 -0.4172 -0.9207
15375TIP3   OH267539   2.289   6.240   4.376 -0.8930 -0.0030 -0.2570
15375TIP3    H167540   2.380   6.223   4.350 -0.5671  1.3495 -0.0773
15375TIP3    H267541   2.239   6.235   4.294  0.0819  3.9622 -1.3128
15376TIP3   OH267542   2.351   4.619   0.320 -0.5163  0.0330  0.1127
15376TIP3    H167543   2.374   4.528   0.299  2.7353  0.7697 -0.1261
15376TIP3    H267544   2.355   4.623   0.415 -1.5403 -0.2603  0.1712
15377TIP3   OH267545   6.436   1.821  12.087  0.1499  0.5552  0.2095
15377TIP3    H167546   6.351   1.823  12.130  0.0851 -0.1707  0.1166
15377TIP3    H267547   6.488   1.886  12.135 -0.4794  1.0785  0.1976
15378TIP3   OH267548   4.021   1.141  12.627 -0.2373 -0.0178  0.0930
15378TIP3    H167549   4.067   1.158  12.544  0.6075 -1.8250  0.1414
15378TIP3    H267550   3.960   1.071  12.607 -0.1048 -0.3964  0.9749
15379TIP3   OH267551   2.510   0.128  14.141  0.1667 -0.6436  0.2631
15379TIP3    H167552   2.520   0.040  14.180 -0.4895 -0.8874 -0.1011
15379TIP3    H267553   2.461   0.177  14.207 -0.6053 -0.9411 -0.0838
15380TIP3   OH267554   1.208   0.069   0.571 -0.1725  0.4770 -0.3181
15380TIP3    H167555   1.211   0.165   0.562 -1.5014  0.5295 -0.3293
15380TIP3    H267556   1.118   0.046   0.549  0.4667 -0.9212 -1.6067
15381TIP3   OH267557   5.271   1.703   2.979 -0.1726 -0.1031  0.0453
15381TIP3    H167558   5.270   1.730   3.071 -1.6379 -0.6820  0.2252
15381TIP3    H267559   5.339   1.636   2.974 -0.2721 -0.2593  0.7543
15382TIP3   OH267560   1.385   6.588   5.855 -0.2556 -0.2225 -0.1170
15382TIP3    H167561   1.289   6.588   5.854 -0.2590 -0.6506 -0.9022
15382TIP3    H267562   1.408   6.549   5.940 -0.7814 -0.6039 -0.1465
15383TIP3   OH267563   4.828   0.666   5.652 -0.3099 -0.3718 -0.2317
15383TIP3    H167564   4.844   0.613   5.730  1.8430  1.1143  0.4282
15383TIP3    H267565   4.819   0.603   5.581 -0.5247 -1.6994  0.9272
15384TIP3   OH267566   3.354   6.138   1.428 -0.0829 -0.1236 -0.3653
15384TIP3    H167567   3.380   6.047   1.410 -1.6908 -0.4779 -1.0916
15384TIP3    H267568   3.422   6.191   1.386  0.0875 -1.0065 -1.2564
15385TIP3   OH267569   1.120   2.513  11.261  0.0553 -0.1788 -0.0036
15385TIP3    H167570   1.130   2.537  11.169 -1.6219  1.3252  0.1386
15385TIP3    H267571   1.029   2.534  11.282  0.1714 -1.2312  1.7955
15386TIP3   OH267572   1.048   5.551  14.590 -0.0431 -0.0899  0.0650
15386TIP3    H167573   1.027   5.556  14.497  2.0801  0.4861 -0.4175
15386TIP3    H267574   1.117   5.615  14.603 -0.6674  0.2262  2.1827
15387TIP3   OH267575   0.587   2.717  11.367 -0.1379 -0.3391 -0.0503
15387TIP3    H167576   0.494   2.724  11.389 -0.6373  1.9169 -2.3976
15387TIP3    H267577   0.590   2.731  11.273  2.7347  1.5072  0.1978
15388TIP3   OH267578   5.793   3.246  15.475 -0.4465  0.4502  0.2628
15388TIP3    H167579   5.851   3.319  15.499 -0.1524  0.0476  0.8038
15388TIP3    H267580   5.794   3.245  15.379  2.3960 -1.0570  0.1914
15389TIP3   OH267581   2.577   4.323  16.076  0.0527 -0.3386 -0.3564
15389TIP3    H167582   2.485   4.312  16.097 -0.3412 -0.1411 -1.8684
15389TIP3    H267583   2.601   4.406  16.118  0.3579 -1.7166  2.4492
15390TIP3   OH267584   2.643   5.722  12.001  0.5131  0.2097 -0.5919
15390TIP3    H167585   2.592   5.659  11.950  0.0999  0.3313 -0.3289
15390TIP3    H267586   2.600   5.725  12.086 -0.0409  1.5643 -0.8974
15391TIP3   OH267587   0.725   3.117  11.150 -0.1883 -0.1119 -0.6536
15391TIP3    H167588   0.716   3.135  11.056  1.5057  0.7466 -0.6897
15391TIP3    H267589   0.643   3.072  11.174 -0.7165 -0.2097 -2.4922
15392TIP3   OH267590   1.546   3.089  16.047 -0.4760 -0.1229  0.0971
15392TIP3    H167591   1.584   3.021  16.103  0.5625 -0.1327 -0.5896
15392TIP3    H267592   1.483   3.042  15.992 -0.2244 -0.4276  0.0628
15393TIP3   OH267593   1.452   1.032  14.362 -0.2405  0.3923  0.1074
15393TIP3    H167594   1.491   1.109  14.404 -0.0963  0.6475 -0.4847
15393TIP3    H267595   1.444   1.056  14.270  0.4416 -0.5502 -0.2162
15394TIP3   OH267596   0.328   4.796  13.045  0.8792  0.0426  0.0903
15394TIP3    H167597   0.399   4.769  12.987 -1.5546 -2.6768 -1.9066
15394TIP3    H267598   0.313   4.721  13.102  0.9224  1.3872  1.9751
15395TIP3   OH267599   5.430   5.572   4.485 -0.4339 -0.2526  0.3387
15395TIP3    H167600   5.409   5.646   4.427  0.2870  1.1055  1.7199
15395TIP3    H267601   5.522   5.586   4.508 -1.1104  0.1763  3.0392
15396TIP3   OH267602   5.527   3.277  14.620 -0.1683 -0.4066 -0.3193
15396TIP3    H167603   5.492   3.290  14.708  0.8898 -0.4705  0.1293
15396TIP3    H267604   5.462   3.222  14.576 -0.1481 -1.3876  0.8128
15397TIP3   OH267605   2.271   5.319  17.178 -0.6054 -0.2023 -0.2393
15397TIP3    H167606   2.190   5.292  17.223 -1.1184  1.8656  0.1724
15397TIP3    H267607   2.241   5.347  17.092 -0.0355 -1.1848 -0.7760
15398TIP3   OH267608   3.039   5.909  16.581  0.2965 -0.7187  0.2440
15398TIP3    H167609   3.047   5.848  16.507 -0.9926  0.9080 -1.3293
15398TIP3    H267610   3.034   5.996  16.540 -4.4902  0.0590  1.8585
15399TIP3   OH267611   4.325   2.696   3.955 -0.5538  0.4158  0.5176
15399TIP3    H167612   4.245   2.747   3.968 -0.5310  0.5850  0.0019
15399TIP3    H267613   4.366   2.734   3.877  0.0763  0.3885  0.8236
15400TIP3   OH267614   1.499   2.105  13.676  0.3500  0.1360 -0.3585
15400TIP3    H167615   1.565   2.053  13.722 -0.9067  0.1002  1.5393
15400TIP3    H267616   1.416   2.077  13.716 -0.9547 -0.4722 -3.2653
15401TIP3   OH267617   1.223   5.435  12.048  0.2034 -0.5791 -0.1731
15401TIP3    H167618   1.308   5.391  12.049  0.5790  0.1289  0.7072
15401TIP3    H267619   1.242   5.522  12.010 -0.0375 -0.2634  0.4166
15402TIP3   OH267620   5.853   0.871   3.015  1.0004  0.1713 -0.2317
15402TIP3    H167621   5.833   0.813   3.089  2.8031  0.7212  0.7725
15402TIP3    H267622   5.810   0.954   3.037  0.7812  0.0580 -0.2401
15403TIP3   OH267623   4.195   2.179   0.380 -0.0156  0.2983  0.3823
15403TIP3    H167624   4.138   2.229   0.439  2.9187  2.3375  1.7452
15403TIP3    H267625   4.216   2.239   0.309  0.0916 -0.5544 -0.3258
15404TIP3   OH267626   0.338   5.771  14.761  0.5255 -0.4025 -0.3244
15404TIP3    H167627   0.415   5.723  14.793 -1.5494 -2.8127  1.4425
15404TIP3    H267628   0.335   5.850  14.815 -0.1001 -1.9953  2.1280
15405TIP3   OH267629   6.134   4.429  15.414  0.0670  0.6834  0.3525
15405TIP3    H167630   6.057   4.378  15.439  1.5164 -2.7293 -1.4720
15405TIP3    H267631   6.105   4.483  15.341 -0.9764  0.7645  0.8098
15406TIP3   OH267632   6.661   4.308   1.179 -0.0859  0.8058  0.0214
15406TIP3    H167633   6.577   4.354   1.172 -1.1765 -1.0844 -0.0103
15406TIP3    H267634   6.640   4.217   1.159  1.8404  0.1462  0.7817
15407TIP3   OH267635   6.008   2.342  16.909  0.3628 -0.3435  0.1890
15407TIP3    H167636   6.097   2.331  16.943  0.0365 -1.7243  0.6838
15407TIP3    H267637   5.996   2.266  16.851 -0.3709  0.0253 -0.1501
15408TIP3   OH267638   5.051   3.823   5.900 -0.2342  0.6665  0.2344
15408TIP3    H167639   5.053   3.850   5.992 -0.7665 -1.3063  0.8743
15408TIP3    H267640   4.959   3.809   5.881 -0.0513  0.2269 -0.3547
15409TIP3   OH267641   4.378   1.739  12.068 -0.1669  0.4209  0.1682
15409TIP3    H167642   4.472   1.733  12.086 -0.2465 -0.5279  0.3200
15409TIP3    H267643   4.367   1.699  11.982 -0.3013  1.5380 -0.3635
15410TIP3   OH267644   2.167   4.845   3.651  0.3169  0.2413 -0.7259
15410TIP3    H167645   2.160   4.939   3.668  0.4486  0.0116  0.7875
15410TIP3    H267646   2.110   4.829   3.576 -0.0870  1.4539 -0.6967
15411TIP3   OH267647   4.228   5.032  11.277  0.2138 -0.1273  0.2802
15411TIP3    H167648   4.305   5.028  11.221  1.2133 -1.2010  1.6554
15411TIP3    H267649   4.263   5.051  11.364 -1.1191 -0.3260  0.8872
15412TIP3   OH267650   4.218   3.738  14.860  0.1862  0.5647 -0.3855
15412TIP3    H167651   4.141   3.682  14.870  1.1481 -0.7922 -0.2401
15412TIP3    H267652   4.270   3.695  14.792  1.1419  1.0521  0.0081
15413TIP3   OH267653   5.817   5.596   1.444 -0.2678 -0.1098 -0.1947
15413TIP3    H167654   5.840   5.668   1.385  1.5926  0.0031  0.6116
15413TIP3    H267655   5.740   5.629   1.491  0.9185  1.6723  0.6189
15414TIP3   OH267656   2.265   2.077   2.575  0.3062 -0.0640  0.5996
15414TIP3    H167657   2.176   2.060   2.547 -0.3241 -0.5772  2.7065
15414TIP3    H267658   2.260   2.157   2.626  1.1718  0.2531  0.2095
15415TIP3   OH267659   5.648   4.052  15.165 -0.2254 -0.0941 -0.0468
15415TIP3    H167660   5.723   4.079  15.219 -1.7227  0.7221  1.7408
15415TIP3    H267661   5.636   4.124  15.103  0.6250 -0.3551 -0.5219
15416TIP3   OH267662   2.996   3.048   4.900 -0.1678  0.5772 -0.1887
15416TIP3    H167663   3.083   3.012   4.884 -0.4518 -1.0147  1.6054
15416TIP3    H267664   2.939   3.000   4.840 -0.2925 -0.8638  1.0377
15417TIP3   OH267665   2.034   1.062   1.272  0.3383  0.9090 -0.2095
15417TIP3    H167666   2.115   1.026   1.236  0.1100  0.0368  0.1307
15417TIP3    H267667   1.966   1.032   1.212  0.0088 -0.1843  0.6985
15418TIP3   OH267668   5.470   4.997  11.150  0.5289  0.2742  0.4739
15418TIP3    H167669   5.506   4.908  11.147  1.3972  0.6129  0.6839
15418TIP3    H267670   5.537   5.049  11.194 -0.6266  0.7348  1.8002
15419TIP3   OH267671   2.295   6.756  12.961  0.6678  0.1444  0.3544
15419TIP3    H167672   2.207   6.718  12.960  0.7336  0.0008 -0.2213
15419TIP3    H267673   2.345   6.703  12.899  0.5351  1.7058 -1.1527
15420TIP3   OH267674   5.045   3.000   4.636  0.1068 -0.6709 -0.6428
15420TIP3    H167675   5.025   2.935   4.569  0.1874  0.0657 -1.4023
15420TIP3    H267676   5.061   3.081   4.587  0.8071 -0.2648  0.2226
15421TIP3   OH267677   3.667   5.286  14.011 -0.2343 -0.6187 -0.2540
15421TIP3    H167678   3.613   5.364  14.000 -0.6166 -1.0169 -1.2794
15421TIP3    H267679   3.689   5.285  14.105 -1.8830 -0.3672  0.1594
15422TIP3   OH267680   0.840   5.985   4.978 -0.0394  0.1215 -0.2142
15422TIP3    H167681   0.771   5.952   4.921  0.3975 -0.8595 -0.1882
15422TIP3    H267682   0.830   6.081   4.975 -0.6166  0.0397 -1.1717
15423TIP3   OH267683   1.813   4.115   0.774  0.6421 -0.0638  0.4622
15423TIP3    H167684   1.838   4.161   0.694 -0.0618 -2.1635 -1.0535
15423TIP3    H267685   1.832   4.023   0.756 -0.4447 -0.7165  2.3573
15424TIP3   OH267686   5.048   4.215   2.244  0.2076  0.3420  0.2833
15424TIP3    H167687   5.106   4.241   2.172  0.6405  1.2258  0.9381
15424TIP3    H267688   4.960   4.224   2.209  0.4416 -0.3800 -0.5151
15425TIP3   OH267689   4.875   4.320   2.919  0.3314  0.4899 -0.0764
15425TIP3    H167690   4.964   4.307   2.950 -0.2611 -0.0793  1.4896
15425TIP3    H267691   4.864   4.415   2.917  0.0532  0.5970  2.6801
15426TIP3   OH267692   1.262   0.318  17.276  0.8656  0.0009 -0.1645
15426TIP3    H167693   1.191   0.373  17.311  1.5510  0.5451  0.3890
15426TIP3    H267694   1.218   0.259  17.214 -0.1515 -0.0246  0.5616
15427TIP3   OH267695   5.502   4.493  11.404 -0.4666 -0.7958  0.3258
15427TIP3    H167696   5.406   4.493  11.408 -0.6264 -2.5754 -1.6943
15427TIP3    H267697   5.528   4.409  11.441  0.2358 -0.8175 -0.1986
15428TIP3   OH267698   6.494   2.649   2.592  0.3360  0.0574  0.6894
15428TIP3    H167699   6.465   2.566   2.631 -1.5141  0.5180  0.3836
15428TIP3    H267700   6.481   2.714   2.661 -0.1459  0.4008  0.2842
15429TIP3   OH267701   5.004   4.520  13.802  0.2468 -0.2045  0.4304
15429TIP3    H167702   4.930   4.535  13.862 -0.3849  1.4201 -0.6994
15429TIP3    H267703   4.963   4.485  13.723  0.7662  0.1773 -0.0089
15430TIP3   OH267704   1.215   5.848  15.261  0.8063  0.1840  0.2434
15430TIP3    H167705   1.168   5.780  15.212  0.2953  0.0427  0.9162
15430TIP3    H267706   1.177   5.930  15.230  3.5539  0.4786 -2.9305
15431TIP3   OH267707   4.971   0.142   2.311  0.1004  0.6066  0.4035
15431TIP3    H167708   5.038   0.197   2.352  0.7279  0.6285 -0.6264
15431TIP3    H267709   5.020   0.068   2.275 -0.6855 -0.4566  1.4405
15432TIP3   OH267710   0.774   5.781  14.042  0.0019  0.0737  0.4338
15432TIP3    H167711   0.737   5.844  14.103 -0.0753  0.6320 -0.1824
15432TIP3    H267712   0.816   5.834  13.974  1.2068 -0.5476  0.6747
15433TIP3   OH267713   2.126   6.133  14.111  0.2449  0.1022  0.5216
15433TIP3    H167714   2.144   6.227  14.114 -1.4229  0.4345  1.1651
15433TIP3    H267715   2.070   6.122  14.034 -2.0527  0.1454  2.1227
15434TIP3   OH267716   3.842   4.945  16.147 -0.4426  0.2909 -0.0541
15434TIP3    H167717   3.823   4.879  16.081  0.4557  0.2059 -0.2480
15434TIP3    H267718   3.832   4.900  16.231 -1.2608  0.3110 -0.1336
15435TIP3   OH267719   3.249   2.227   6.316 -0.1341  0.1863  0.0825
15435TIP3    H167720   3.252   2.170   6.239  0.4726  1.6234 -0.9820
15435TIP3    H267721   3.263   2.167   6.390  2.6818 -0.7919 -1.1230
15436TIP3   OH267722   6.322   1.415   2.949 -0.2253  0.2077  0.2007
15436TIP3    H167723   6.270   1.346   2.990  0.6922 -0.8117 -0.2998
15436TIP3    H267724   6.341   1.382   2.861 -0.4976  1.4895 -0.3563
15437TIP3   OH267725   1.343   3.998   0.074 -0.2568 -0.2734  0.1801
15437TIP3    H167726   1.423   4.048   0.059  0.6203 -1.1029  1.8263
15437TIP3    H267727   1.367   3.933   0.140 -2.0478 -1.1611  0.0250
15438TIP3   OH267728   0.221   3.158  12.465 -0.3409  0.3462  0.2871
15438TIP3    H167729   0.277   3.155  12.543  0.6228 -1.0938 -0.4227
15438TIP3    H267730   0.237   3.075  12.420 -1.1517  0.9850 -1.2693
15439TIP3   OH267731   4.771   0.780   6.180  0.1669 -0.0210  0.3960
15439TIP3    H167732   4.825   0.834   6.124  0.1180 -1.2684 -0.9141
15439TIP3    H267733   4.833   0.725   6.229  0.1768  0.5638  1.0639
15440TIP3   OH267734   3.077   2.974  12.427 -0.1824 -0.0735 -0.0825
15440TIP3    H167735   3.076   2.888  12.387  1.9269  0.9900 -2.7789
15440TIP3    H267736   3.169   3.002  12.421 -0.2240  1.2703  3.3127
15441TIP3   OH267737   3.392   5.391  14.790 -0.1233  0.0302  0.6552
15441TIP3    H167738   3.487   5.401  14.795 -0.1263 -0.3388  1.4417
15441TIP3    H267739   3.378   5.297  14.779 -0.3787  0.1442 -0.0491
15442TIP3   OH267740   1.356   3.881  11.528  0.3824  0.1381 -0.2045
15442TIP3    H167741   1.348   3.977  11.523 -1.3876  0.0434  0.2304
15442TIP3    H267742   1.449   3.866  11.546  0.9844  1.7042 -1.6712
15443TIP3   OH267743   1.436   5.119  12.852 -0.1730 -0.0996 -0.3948
15443TIP3    H167744   1.377   5.094  12.781  0.2341 -0.1883 -0.6987
15443TIP3    H267745   1.509   5.163  12.809  0.7715 -1.3927 -0.1698
15444TIP3   OH267746   0.636   2.216  11.197  0.2996 -0.0512  0.2036
15444TIP3    H167747   0.639   2.235  11.103  0.0060 -0.1568  0.1725
15444TIP3    H267748   0.566   2.273  11.230 -0.5130 -0.9939  0.1313
15445TIP3   OH267749   1.096   1.589  13.583 -0.5366  0.2751  0.4036
15445TIP3    H167750   1.100   1.616  13.675 -0.4377  2.2057 -0.1192
15445TIP3    H267751   1.068   1.498  13.586  0.8304 -0.1516  2.3973
15446TIP3   OH267752   0.011   1.543   3.549 -0.1531 -0.1657 -0.2560
15446TIP3    H167753   0.043   1.509   3.633  0.6578  1.3444  0.0786
15446TIP3    H267754  -0.084   1.532   3.554  0.0988 -4.1655 -1.0085
15447TIP3   OH267755   0.594   1.728  14.908 -0.0585 -0.3825 -0.1565
15447TIP3    H167756   0.642   1.661  14.956 -0.7109 -1.2848 -0.7432
15447TIP3    H267757   0.638   1.734  14.823  0.2421  0.2286  0.0331
15448TIP3   OH267758   5.720   0.833   1.594 -0.1634 -0.3046  0.0077
15448TIP3    H167759   5.712   0.874   1.680  0.9925  0.3917 -0.1988
15448TIP3    H267760   5.733   0.740   1.614 -0.6632 -0.2683  0.5463
15449TIP3   OH267761   5.437   5.079  17.025 -0.4370 -0.7258  0.7831
15449TIP3    H167762   5.455   5.013  16.958 -0.7296  0.4213 -0.4718
15449TIP3    H267763   5.505   5.145  17.014  0.2254 -1.0709  2.4392
15450TIP3   OH267764   4.487   6.533  15.809  0.4960 -0.7803  0.0977
15450TIP3    H167765   4.415   6.477  15.781 -0.1481  0.3658 -0.5622
15450TIP3    H267766   4.463   6.621  15.781  1.4687 -0.1400  1.1567
15451TIP3   OH267767   3.559   5.995   4.284 -0.3699 -0.4112  0.5025
15451TIP3    H167768   3.577   5.988   4.378 -1.8000  0.2425  0.8373
15451TIP3    H267769   3.475   6.039   4.278  0.6511  1.4650 -1.1522
15452TIP3   OH267770   2.316   1.764  14.635  0.3098  0.0948 -0.1798
15452TIP3    H167771   2.305   1.669  14.624  0.1112  0.1328 -0.3330
15452TIP3    H267772   2.355   1.793  14.553  0.5190  0.1245 -0.0698
15453TIP3   OH267773   5.991   5.371   3.005 -0.3679 -0.1074 -0.7712
15453TIP3    H167774   5.984   5.355   3.099 -0.3265 -0.3563 -0.8110
15453TIP3    H267775   5.961   5.289   2.964 -1.1844  0.2763 -0.9799
15454TIP3   OH267776   5.123   5.677  11.797 -0.0999 -0.3112 -0.5695
15454TIP3    H167777   5.028   5.685  11.799  0.0004  1.1416 -0.4142
15454TIP3    H267778   5.147   5.660  11.889 -0.1240  0.7499 -0.3542
15455TIP3   OH267779   1.013   5.954  16.035 -0.2993  0.0162  0.4264
15455TIP3    H167780   1.094   5.905  16.043 -0.2029 -0.0919 -0.9627
15455TIP3    H267781   1.035   6.029  15.980 -0.6438  1.2156  1.8330
15456TIP3   OH267782   6.382   0.240   0.932  0.3258  0.2070  0.1872
15456TIP3    H167783   6.339   0.239   1.018  0.1975 -2.0219  0.1510
15456TIP3    H267784   6.376   0.150   0.902  0.1045  0.9924 -2.3194
15457TIP3   OH267785   3.634   1.857   1.127 -0.1272  0.0325  0.1945
15457TIP3    H167786   3.676   1.937   1.159 -0.2684 -0.2927  1.2072
15457TIP3    H267787   3.623   1.803   1.204  3.7172 -2.7850 -0.9088
15458TIP3   OH267788   1.749   3.432  14.272  0.2068 -0.3588  0.0296
15458TIP3    H167789   1.679   3.368  14.282 -1.0805  1.1387  1.3578
15458TIP3    H267790   1.779   3.422  14.182  0.7044 -3.3903  0.4223
15459TIP3   OH267791   5.189   1.149   6.095 -0.4203 -0.0228 -0.5033
15459TIP3    H167792   5.121   1.092   6.129 -0.3000  0.5335  0.7409
15459TIP3    H267793   5.212   1.206   6.169  1.5341 -0.3284 -0.8145
15460TIP3   OH267794   6.153   6.423   6.801 -0.2362  0.1494 -0.2772
15460TIP3    H167795   6.219   6.361   6.771 -0.6983 -0.4361 -0.0982
15460TIP3    H267796   6.089   6.369   6.847  0.0748  0.9325  1.1174
15461TIP3   OH267797   0.172   1.060   3.836 -0.6690 -0.7070 -0.0581
15461TIP3    H167798   0.140   1.078   3.748  0.1258 -0.4245 -0.3010
15461TIP3    H267799   0.095   1.068   3.892 -0.9628  0.3077 -0.5808
15462TIP3   OH267800   4.499   5.468   5.689  0.3381  0.1684 -0.1340
15462TIP3    H167801   4.573   5.428   5.643  0.6118  1.4111 -0.8092
15462TIP3    H267802   4.493   5.556   5.653  0.4338  1.1436  2.1092
15463TIP3   OH267803   2.525   2.679  11.239  0.6796 -0.5253 -0.0040
15463TIP3    H167804   2.451   2.636  11.196  1.5024 -0.6210 -1.3846
15463TIP3    H267805   2.550   2.620  11.309  0.0862 -0.9841 -0.1730
15464TIP3   OH267806   5.281   4.536  12.011  0.4347 -0.0567 -0.0401
15464TIP3    H167807   5.340   4.579  12.073  2.1783 -1.4940 -0.6125
15464TIP3    H267808   5.202   4.517  12.062  0.8972  0.9225  1.0688
15465TIP3   OH267809   5.083   5.268   4.923 -0.4007 -0.7632  0.1935
15465TIP3    H167810   5.020   5.205   4.958 -1.1730 -0.7482 -1.1166
15465TIP3    H267811   5.055   5.283   4.833 -1.1205  2.5567  0.8482
15466TIP3   OH267812   0.831   3.344  15.891 -0.1030  0.0197 -0.4672
15466TIP3    H167813   0.854   3.387  15.808 -1.5098 -1.5241 -1.7268
15466TIP3    H267814   0.795   3.259  15.865 -0.5032 -0.5526  1.7535
15467TIP3   OH267815   4.574   4.470  15.646  0.2442  0.7928  0.0880
15467TIP3    H167816   4.489   4.515  15.647  0.4483  1.1764  0.6385
15467TIP3    H267817   4.574   4.422  15.563 -0.8857  0.0643  0.4772
15468TIP3   OH267818   6.576   5.434  15.842 -0.0275  0.6451 -0.1524
15468TIP3    H167819   6.508   5.460  15.905 -0.2945  1.4448 -0.7465
15468TIP3    H267820   6.531   5.434  15.758  0.2348 -0.7825 -0.3091
15469TIP3   OH267821   3.474   6.673  10.537 -0.4230 -0.1148 -0.3929
15469TIP3    H167822   3.493   6.763  10.563 -1.0180 -0.2086  0.3920
15469TIP3    H267823   3.415   6.681  10.462 -1.4908  0.1595  0.4489
15470TIP3   OH267824   1.730   0.146  11.632 -0.4762  0.4977 -0.1456
15470TIP3    H167825   1.762   0.210  11.695 -1.2518  0.1089  0.6734
15470TIP3    H267826   1.808   0.100  11.602  0.4900  3.3345 -2.5938
15471TIP3   OH267827   4.876   2.804   0.299  0.3509  0.1780 -0.6534
15471TIP3    H167828   4.813   2.781   0.368 -0.7516  0.6939 -1.4479
15471TIP3    H267829   4.870   2.899   0.293  1.5818  0.2799 -0.4227
15472TIP3   OH267830   2.300   0.105   0.454 -0.0645  0.2489 -0.4692
15472TIP3    H167831   2.390   0.132   0.436  0.1508 -0.8914 -1.1764
15472TIP3    H267832   2.308   0.035   0.519 -0.3780 -0.3049 -1.0078
15473TIP3   OH267833   6.285   6.327  14.822 -0.1901  0.4557 -0.1181
15473TIP3    H167834   6.368   6.282  14.808 -0.5259 -0.4681  0.7468
15473TIP3    H267835   6.220   6.273  14.778 -0.7604 -0.5972  1.8892
15474TIP3   OH267836   0.880   6.536   4.364 -0.0956  0.2128 -0.1134
15474TIP3    H167837   0.938   6.513   4.291 -1.5452  0.5746 -1.4303
15474TIP3    H267838   0.937   6.583   4.426  1.2522 -0.4302 -0.8188
15475TIP3   OH267839   0.935   2.426  16.599  0.2561 -0.5931 -0.1286
15475TIP3    H167840   0.934   2.492  16.668 -0.4998  0.1551 -0.8390
15475TIP3    H267841   0.844   2.396  16.593 -0.2821  1.1565 -2.4511
15476TIP3   OH267842   3.946   5.620  15.093  0.6769  0.3484 -0.7054
15476TIP3    H167843   3.875   5.565  15.127  0.6397  0.7231 -0.1749
15476TIP3    H267844   3.904   5.677  15.030  0.9650 -1.2797 -2.4834
15477TIP3   OH267845   5.085   1.567   5.676 -0.2156 -0.1311 -0.3530
15477TIP3    H167846   5.024   1.498   5.652  0.3309 -0.3728 -1.0770
15477TIP3    H267847   5.031   1.646   5.682 -0.2761  0.1654 -3.4225
15478TIP3   OH267848   6.068   3.469   3.585 -0.2347 -0.4321 -0.2107
15478TIP3    H167849   6.115   3.542   3.625 -0.0710  0.5293 -2.1007
15478TIP3    H267850   6.050   3.410   3.659 -0.4807  1.5357  1.3945
15479TIP3   OH267851   2.476   4.460   1.550  0.1439 -0.0764  0.4992
15479TIP3    H167852   2.559   4.439   1.594 -0.7312 -2.2418  1.2770
15479TIP3    H267853   2.409   4.447   1.617 -0.9364  0.3995 -0.4482
15480TIP3   OH267854   5.707   0.293   3.049  0.0978  0.2665  0.0980
15480TIP3    H167855   5.714   0.312   3.143 -0.3062 -2.4745  0.7691
15480TIP3    H267856   5.626   0.337   3.022  0.4261  1.4189  0.9050
15481TIP3   OH267857   1.099   6.239   1.873 -0.1733  0.4509  0.2247
15481TIP3    H167858   1.142   6.231   1.958 -0.4485  0.2808  0.3486
15481TIP3    H267859   1.103   6.152   1.835 -1.4321  0.1477  0.7368
15482TIP3   OH267860   6.203   0.488   1.864 -0.5325  0.5348  0.9541
15482TIP3    H167861   6.294   0.494   1.891 -0.4767 -2.0736  1.5727
15482TIP3    H267862   6.157   0.548   1.923  0.4901  0.1132  2.2197
15483TIP3   OH267863   4.892   6.226  13.189 -0.0162 -0.0605  0.2230
15483TIP3    H167864   4.800   6.251  13.190  0.1067  0.4015  1.1443
15483TIP3    H267865   4.891   6.131  13.195 -0.4335  0.0006  1.4509
15484TIP3   OH267866   1.241   0.519  14.893 -0.6912  0.2434  0.2575
15484TIP3    H167867   1.200   0.566  14.821  1.1236  1.8266  0.1910
15484TIP3    H267868   1.323   0.565  14.908 -0.7339 -0.4192  2.9544
15485TIP3   OH267869   6.672   2.663  16.045 -0.0983 -0.4858  0.0923
15485TIP3    H167870   6.585   2.684  16.077 -0.1237  1.3713 -1.0765
15485TIP3    H267871   6.669   2.682  15.951  1.6205 -0.1238  0.0748
15486TIP3   OH267872   6.685   4.731   6.042 -0.6651  0.1038  0.2858
15486TIP3    H167873   6.730   4.704   6.122 -1.3089 -0.1781  0.5567
15486TIP3    H267874   6.745   4.794   6.001  0.0924 -0.4583  0.5003
15487TIP3   OH267875   5.040   1.174   4.274 -0.0680 -0.0409 -0.6931
15487TIP3    H167876   5.059   1.108   4.341 -0.7517 -1.2193 -1.6235
15487TIP3    H267877   5.109   1.161   4.208 -0.6650 -0.3708 -1.2605
15488TIP3   OH267878   1.803   0.297   5.235  0.0625  0.3323  0.0420
15488TIP3    H167879   1.811   0.208   5.271  0.6932  0.1763 -0.4702
15488TIP3    H267880   1.836   0.354   5.304  2.3078 -0.0387 -0.6653
15489TIP3   OH267881   5.864   2.314   1.592  0.3223 -0.3564 -0.1407
15489TIP3    H167882   5.936   2.347   1.537  0.9514 -0.0178  0.8467
15489TIP3    H267883   5.895   2.328   1.682 -0.3306 -1.6512  0.3038
15490TIP3   OH267884   6.756   0.866  12.604 -0.3167  0.4793 -0.0990
15490TIP3    H167885   6.693   0.832  12.667 -1.1347 -0.4081 -1.3305
15490TIP3    H267886   6.832   0.890  12.656 -0.1094 -2.2463  1.0226
15491TIP3   OH267887   4.636   5.006  16.380  0.1281  0.7053  0.3042
15491TIP3    H167888   4.649   4.958  16.462 -1.3815  0.1158  0.2316
15491TIP3    H267889   4.625   5.097  16.407 -1.2802  0.3913  0.8837
15492TIP3   OH267890   5.022   4.151   4.549 -0.4208  0.4973  0.1924
15492TIP3    H167891   5.007   4.071   4.497 -0.3935  0.7701 -0.2390
15492TIP3    H267892   5.079   4.122   4.621  2.0891  0.6777 -1.5727
15493TIP3   OH267893   3.658   6.518   4.242  0.1636  0.5253 -0.0537
15493TIP3    H167894   3.654   6.609   4.212 -0.7914 -0.0370 -1.7464
15493TIP3    H267895   3.591   6.473   4.191  0.9377 -1.2321  0.4168
15494TIP3   OH267896   2.727   4.857   0.015 -0.4321  0.4852 -0.0876
15494TIP3    H167897   2.696   4.768   0.034  2.0329 -0.5356 -0.4304
15494TIP3    H267898   2.734   4.899   0.101 -0.6613  0.0132  0.1679
15495TIP3   OH267899   2.559   5.187  12.380 -0.7771  0.0970 -0.1686
15495TIP3    H167900   2.465   5.166  12.383 -0.4482 -1.6826 -0.7594
15495TIP3    H267901   2.566   5.272  12.424 -2.7605  0.6616 -0.8233
15496TIP3   OH267902   6.595   1.887  14.495 -0.2726  0.2076 -0.0042
15496TIP3    H167903   6.596   1.950  14.568  1.1220 -1.4831  1.5497
15496TIP3    H267904   6.540   1.815  14.526  1.4507 -1.1746  0.0337
15497TIP3   OH267905   4.588   5.042  14.042  0.0964 -0.6559 -0.2728
15497TIP3    H167906   4.634   5.038  14.126  1.9510 -1.2892 -1.2497
15497TIP3    H267907   4.566   5.135  14.031  0.8537 -0.3885  0.3939
15498TIP3   OH267908   5.115   1.451   1.669  0.1826 -0.2142  0.4513
15498TIP3    H167909   5.107   1.375   1.727  1.2432 -1.2499 -0.6853
15498TIP3    H267910   5.075   1.422   1.587 -0.6509  0.9708  0.4204
15499TIP3   OH267911   5.762   2.822  12.141  0.6571  0.0114  0.5462
15499TIP3    H167912   5.723   2.739  12.171  0.9967 -0.7844 -1.1051
15499TIP3    H267913   5.846   2.797  12.104  0.6125  1.0542 -0.2919
15500TIP3   OH267914   5.720   3.104  15.718  0.0833 -0.0944  0.2134
15500TIP3    H167915   5.625   3.098  15.704 -0.0637  0.7164  0.7945
15500TIP3    H267916   5.745   3.184  15.672  0.7607 -1.0952 -1.2433
15501TIP3   OH267917   0.887   3.166   3.875  0.2847 -0.0741 -0.1213
15501TIP3    H167918   0.951   3.194   3.810 -1.3833 -1.8314 -2.7472
15501TIP3    H267919   0.934   3.166   3.958  3.0609  0.5808 -1.5923
15502TIP3   OH267920   6.171   2.380  16.456 -0.0083  0.1006  0.1698
15502TIP3    H167921   6.251   2.338  16.425  0.1397  0.9082 -0.5818
15502TIP3    H267922   6.193   2.409  16.545  0.7794  0.9190 -0.2689
15503TIP3   OH267923   3.605   6.050   2.130 -0.6302 -0.2413  0.1016
15503TIP3    H167924   3.570   5.986   2.068  0.3720 -1.4514  0.7340
15503TIP3    H267925   3.675   6.003   2.175 -0.2540  1.1370  0.9981
15504TIP3   OH267926   2.696   3.535   5.019 -0.3060  0.0940  0.0241
15504TIP3    H167927   2.719   3.622   4.987  0.8964  0.0872  0.7696
15504TIP3    H267928   2.699   3.543   5.115 -1.0079 -0.5642  0.1113
15505TIP3   OH267929   4.681   1.419   6.815 -0.2069 -0.8499  0.1093
15505TIP3    H167930   4.671   1.473   6.893  1.6955 -0.8200  0.3820
15505TIP3    H267931   4.642   1.471   6.744 -0.5195 -0.1742  0.7669
15506TIP3   OH267932   6.142   3.018   5.324 -0.3940  0.1762 -0.6517
15506TIP3    H167933   6.085   2.982   5.392  0.1511  1.0604  0.2891
15506TIP3    H267934   6.081   3.062   5.264 -0.8029  0.1774 -0.2441
15507TIP3   OH267935   2.585   2.975  13.099 -0.4781 -0.0131  0.4087
15507TIP3    H167936   2.542   3.047  13.144  0.4457  0.6009  0.3511
15507TIP3    H267937   2.671   3.011  13.073 -0.3472 -0.8531 -0.3917
15508TIP3   OH267938   4.137   4.670  15.236  0.7545  0.0067  0.4916
15508TIP3    H167939   4.048   4.648  15.264  0.8124  0.6723  1.2316
15508TIP3    H267940   4.179   4.704  15.315  1.6721 -0.2933  0.1481
15509TIP3   OH267941   4.679   2.137   4.271  0.3473 -0.1582  0.1252
15509TIP3    H167942   4.588   2.124   4.245 -0.0626  0.7089  1.0906
15509TIP3    H267943   4.730   2.089   4.205 -0.7759 -0.1480 -0.7675
15510TIP3   OH267944   5.098   4.303  14.022  0.3421  0.2466 -0.6651
15510TIP3    H167945   5.179   4.301  13.971  1.4766  0.2182  1.0535
15510TIP3    H267946   5.088   4.213  14.055 -0.3340  0.2788 -0.7584
15511TIP3   OH267947   4.395   4.098  15.420 -0.3098  0.2014 -0.8465
15511TIP3    H167948   4.352   4.109  15.335 -0.3688 -1.9034 -1.1581
15511TIP3    H267949   4.488   4.092  15.400 -0.3502 -0.6350 -0.8331
15512TIP3   OH267950   0.877   1.945   0.138 -0.0249 -0.1058 -0.3954
15512TIP3    H167951   0.948   1.987   0.186  0.8539 -0.9322 -0.9354
15512TIP3    H267952   0.812   1.923   0.205  0.9761 -0.8414  0.3530
15513TIP3   OH267953   5.112   5.254  16.666  0.3834 -0.3084  0.1463
15513TIP3    H167954   5.034   5.208  16.634  0.7787 -0.6066 -0.4174
15513TIP3    H267955   5.078   5.324  16.720 -0.2374 -1.2620  1.0294
15514TIP3   OH267956   1.019   3.678   3.171 -0.7577  0.3624 -0.1799
15514TIP3    H167957   1.023   3.751   3.109  0.1324  2.0736  1.7665
15514TIP3    H267958   1.098   3.627   3.152 -1.8714 -0.7022 -2.1881
15515TIP3   OH267959   2.441   3.372   2.743  0.5571 -0.5302  0.5536
15515TIP3    H167960   2.373   3.437   2.723  0.3948 -0.9779 -0.4383
15515TIP3    H267961   2.393   3.289   2.747  1.1273 -0.9585 -0.9092
15516TIP3   OH267962   0.940   3.281  11.691 -0.3106 -0.1775  0.3283
15516TIP3    H167963   0.865   3.263  11.634  0.0679 -1.4050  0.1950
15516TIP3    H267964   0.903   3.333  11.763 -1.2796 -0.6854  0.2162
15517TIP3   OH267965   3.290   5.877   5.814 -0.0909 -0.0384  0.2213
15517TIP3    H167966   3.251   5.898   5.899 -0.5484 -0.3609  0.0938
15517TIP3    H267967   3.355   5.810   5.833  0.9130  0.9839  0.5344
15518TIP3   OH267968   3.361   6.703   5.421 -0.4692 -0.0016  0.2870
15518TIP3    H167969   3.422   6.695   5.494 -0.3731  1.0402  0.3306
15518TIP3    H267970   3.389   6.635   5.359  0.4195  0.1362  0.5279
15519TIP3   OH267971   0.030   0.681   5.579 -0.1501  0.0303  0.1903
15519TIP3    H167972  -0.030   0.632   5.523  0.4033 -0.0856 -0.3108
15519TIP3    H267973  -0.020   0.698   5.659 -1.5139  1.5880 -0.9260
15520TIP3   OH267974   1.744   1.605   2.663  0.1795 -0.1415  0.8535
15520TIP3    H167975   1.774   1.645   2.582 -0.1070 -0.9666  0.3283
15520TIP3    H267976   1.780   1.516   2.661 -2.5530 -1.3474 -0.0238
15521TIP3   OH267977   2.645   5.817  16.648 -0.4416  0.4997 -0.1933
15521TIP3    H167978   2.601   5.839  16.566 -0.0210  0.1545 -0.5127
15521TIP3    H267979   2.681   5.901  16.678 -0.9989  0.7165 -0.1145
15522TIP3   OH267980   3.414   2.510  16.557  0.0710  0.0701  0.1105
15522TIP3    H167981   3.491   2.526  16.503 -0.2189 -0.3910 -0.4402
15522TIP3    H267982   3.342   2.554  16.511 -0.0981  0.0356  0.3389
15523TIP3   OH267983   6.080   1.990   4.436  0.4028  0.1779  0.4477
15523TIP3    H167984   6.133   1.976   4.357 -1.3381  1.6721 -1.0783
15523TIP3    H267985   5.994   1.956   4.414 -0.8889  3.0967  0.5901
15524TIP3   OH267986   3.411   6.532   5.910  0.2397  0.3014 -0.0269
15524TIP3    H167987   3.380   6.594   5.976  0.7146  2.2033 -1.4997
15524TIP3    H267988   3.356   6.454   5.923 -2.7571  2.2108 -0.2161
15525TIP3   OH267989   0.305   0.695   2.759 -0.4697 -0.0290 -0.4946
15525TIP3    H167990   0.279   0.749   2.684 -1.0387 -0.3569 -0.5395
15525TIP3    H267991   0.376   0.640   2.726 -1.3282 -0.8215 -1.0663
15526TIP3   OH267992   2.824   6.179  11.817  0.1333 -0.1057  0.4853
15526TIP3    H167993   2.828   6.224  11.733 -0.0662 -0.6583  0.1719
15526TIP3    H267994   2.777   6.098  11.798 -1.0186  0.3261  1.3940
15527TIP3   OH267995   1.063   1.415   5.982  0.2132  0.0422 -0.2759
15527TIP3    H167996   1.141   1.459   6.016 -0.8998  1.1174  1.0186
15527TIP3    H267997   1.038   1.354   6.051 -1.0914  0.9930  0.1245
15528TIP3   OH267998   3.991   0.954  13.427  0.1827  0.3604  0.3612
15528TIP3    H167999   4.012   0.940  13.520 -0.1679 -1.6698  0.1873
15528TIP3    H268000   4.053   1.022  13.399  0.1134  1.2212  2.1222
15529TIP3   OH268001   5.458   5.001   5.822 -0.2596 -0.0096  0.5490
15529TIP3    H168002   5.432   5.008   5.914  1.3578 -0.7055  1.0926
15529TIP3    H268003   5.490   5.088   5.799 -1.4321  0.3913  0.3727
15530TIP3   OH268004   0.748   4.053   3.312  0.1489  0.1331  0.3186
15530TIP3    H168005   0.670   4.066   3.366 -0.3151  0.0630 -0.3147
15530TIP3    H268006   0.821   4.054   3.374 -0.2997  0.8305  0.8504
15531TIP3   OH268007   5.147   1.215   4.534  0.2165  0.0624 -0.2741
15531TIP3    H168008   5.193   1.133   4.513  0.5079  0.0072  0.5423
15531TIP3    H268009   5.058   1.201   4.501  0.2957 -0.5429 -0.2516
15532TIP3   OH268010   3.762   4.096   1.043  0.3614 -0.5276  0.3032
15532TIP3    H168011   3.698   4.162   1.016  1.7266  0.3755 -0.8948
15532TIP3    H268012   3.824   4.144   1.099 -0.6004 -1.6546  2.4711
15533TIP3   OH268013   6.027   0.575   5.369 -0.1638  0.2249  0.2382
15533TIP3    H168014   5.980   0.657   5.384 -2.4547 -0.7481 -1.0380
15533TIP3    H268015   6.037   0.571   5.274  0.3597 -0.7449  0.3268
15534TIP3   OH268016   5.992   5.519   5.325 -0.1354  0.3627  0.5040
15534TIP3    H168017   5.924   5.457   5.300  0.5640  0.1180 -0.9159
15534TIP3    H268018   6.070   5.465   5.336 -0.1328  0.6489  2.0296
15535TIP3   OH268019   0.512   0.142  14.087 -0.2652  0.0413 -0.3838
15535TIP3    H168020   0.573   0.179  14.151  1.7047 -2.8756 -0.3668
15535TIP3    H268021   0.529   0.191  14.006  0.7011  0.5823  0.1318
15536TIP3   OH268022   0.743   1.344   6.069 -0.8765  0.2828 -0.1864
15536TIP3    H168023   0.765   1.272   6.009  0.1810  0.5380 -0.1187
15536TIP3    H268024   0.681   1.306   6.130 -0.2184 -0.6215 -0.0655
15537TIP3   OH268025   5.133   6.555   5.793  0.2633 -0.5771 -0.2175
15537TIP3    H168026   5.192   6.628   5.809 -0.8402  0.2523  0.1849
15537TIP3    H268027   5.191   6.480   5.780  1.3781  0.0225  1.0659
15538TIP3   OH268028   6.462   6.368   1.694 -0.2351  0.4319 -0.0435
15538TIP3    H168029   6.408   6.301   1.737  1.5158 -1.4557 -0.6263
15538TIP3    H268030   6.418   6.450   1.714 -2.4918 -0.8634  0.7279
15539TIP3   OH268031   6.504   6.616   4.984  0.6095 -0.4018 -1.1999
15539TIP3    H168032   6.554   6.579   4.911  2.5322 -1.4834  0.5639
15539TIP3    H268033   6.533   6.707   4.988 -0.4199  0.0197 -2.4762
15540TIP3   OH268034   2.728   0.955  16.832 -0.0962 -0.6762 -0.2730
15540TIP3    H168035   2.689   0.986  16.913  0.4110  1.2540 -0.7148
15540TIP3    H268036   2.819   0.986  16.836  0.4420 -2.1035 -0.7967
15541TIP3   OH268037   3.340   1.348   4.647  0.4200 -0.0869 -0.3112
15541TIP3    H168038   3.403   1.357   4.576 -2.2984 -1.5044 -3.1263
15541TIP3    H268039   3.369   1.270   4.695  0.5617 -1.0690 -1.9108
15542TIP3   OH268040   2.385   5.546  16.406  0.3776  0.2562 -0.1602
15542TIP3    H168041   2.346   5.597  16.477  0.3060  1.5858 -1.1330
15542TIP3    H268042   2.409   5.610  16.340  1.7152 -0.8148 -0.7705
15543TIP3   OH268043   0.414   4.380  14.889 -0.0080 -0.1871 -0.2863
15543TIP3    H168044   0.494   4.384  14.942  0.1868  2.1508 -0.6147
15543TIP3    H268045   0.440   4.332  14.810  1.3653  1.2313 -0.7553
15544TIP3   OH268046   2.720   3.436   4.748 -0.5338 -0.5979 -0.2353
15544TIP3    H168047   2.688   3.456   4.836  0.9365 -1.1741  0.4701
15544TIP3    H268048   2.757   3.518   4.716  2.0434 -1.0938  1.1278
15545TIP3   OH268049   6.718   6.442   2.912 -0.2940 -0.0391  0.1610
15545TIP3    H168050   6.762   6.366   2.876 -1.3351 -0.0755 -1.0969
15545TIP3    H268051   6.631   6.410   2.937 -0.4877  0.5702  0.3000
15546TIP3   OH268052   2.457   1.258   5.957  0.7932 -0.2232 -0.0337
15546TIP3    H168053   2.543   1.265   6.000  1.4426 -0.9266 -1.1728
15546TIP3    H268054   2.412   1.188   6.005  0.3985  0.8776  1.2709
15547TIP3   OH268055   5.587   6.652   4.110 -0.3299 -1.1242  0.3847
15547TIP3    H168056   5.531   6.729   4.109  0.7265 -0.2406  2.1975
15547TIP3    H268057   5.635   6.656   4.028  0.1460  0.5413  0.7044
15548TIP3   OH268058   0.611   1.156   4.044 -0.4426 -0.1184  0.2846
15548TIP3    H168059   0.596   1.234   3.989 -1.7904 -0.0812  0.6535
15548TIP3    H268060   0.584   1.184   4.132  0.4695 -0.5639  0.7102
15549TIP3   OH268061   0.113   0.955  16.873  0.0130  0.5812 -0.0029
15549TIP3    H168062   0.057   1.002  16.935  1.0089  0.5505  0.9545
15549TIP3    H268063   0.061   0.880  16.846 -1.0132  1.4005 -0.3647
15550TIP3   OH268064   5.283   5.002  13.460  0.1586 -0.4339 -0.1988
15550TIP3    H168065   5.308   5.091  13.437 -1.0524  0.1219  0.5208
15550TIP3    H268066   5.297   4.997  13.555 -0.7053 -0.6630 -0.0696
15551TIP3   OH268067   5.086   0.648  13.958 -0.1179 -0.0594 -0.7372
15551TIP3    H168068   5.092   0.588  13.884  0.7656  0.3478 -0.9943
15551TIP3    H268069   5.003   0.694  13.945 -0.0339 -0.0926 -1.3802
15552TIP3   OH268070   4.234   5.459  15.822 -0.0254 -0.2232  0.2951
15552TIP3    H168071   4.263   5.438  15.734  0.4690  1.1596  0.1074
15552TIP3    H268072   4.172   5.531  15.811  0.1346  0.0473  1.0767
15553TIP3   OH268073   3.945   6.346   6.489  0.3221  0.3172  0.1977
15553TIP3    H168074   3.963   6.392   6.571  0.9377  0.1713  0.1488
15553TIP3    H268075   3.954   6.253   6.511  0.7823  0.2867 -0.0993
15554TIP3   OH268076   5.427   2.251  14.196  0.1036  0.2714  0.3542
15554TIP3    H168077   5.446   2.157  14.206  1.1995  0.3107 -0.9798
15554TIP3    H268078   5.377   2.256  14.114 -2.1608  0.6338  1.6835
15555TIP3   OH268079   2.145   3.282  13.536  0.2249 -0.1332 -0.8866
15555TIP3    H168080   2.183   3.197  13.560 -0.6254 -0.4901 -0.7557
15555TIP3    H268081   2.072   3.260  13.478  0.6479  0.5776 -1.7161
15556TIP3   OH268082   5.184   1.502   2.371 -0.1093  0.2790 -0.6728
15556TIP3    H168083   5.189   1.597   2.372 -3.1068  0.5429 -0.3585
15556TIP3    H268084   5.211   1.475   2.458 -0.8118  1.0201 -0.2088
15557TIP3   OH268085   5.349   6.525  16.768 -0.4856  0.7913  0.2901
15557TIP3    H168086   5.300   6.462  16.822 -0.3367  1.6032  1.4137
15557TIP3    H268087   5.304   6.608  16.782  0.8304  1.4390  0.8748
15558TIP3   OH268088   5.887   5.241   0.202  0.4302  0.5451  0.4993
15558TIP3    H168089   5.835   5.161   0.195  1.9576 -0.6447  1.7501
15558TIP3    H268090   5.954   5.219   0.267  1.2404  2.6731  0.4418
15559TIP3   OH268091   2.861   6.055   4.285 -0.1817 -0.4879 -0.2820
15559TIP3    H168092   2.933   5.992   4.285  1.9360  1.6825 -2.4069
15559TIP3    H268093   2.857   6.087   4.376  0.2434 -1.9807  0.2864
15560TIP3   OH268094   3.150   5.077  12.559 -0.2754  0.5895  0.3637
15560TIP3    H168095   3.164   5.085  12.653 -0.6969 -0.6592  0.5589
15560TIP3    H268096   3.166   4.984  12.541  0.2544  0.9066 -0.8811
15561TIP3   OH268097   4.956   0.652   3.904  0.1718  1.1465 -0.2324
15561TIP3    H168098   4.933   0.721   3.966 -0.6194 -0.8504  1.8304
15561TIP3    H268099   5.035   0.611   3.941 -0.4329 -0.2130 -0.3667
15562TIP3   OH268100   3.479   4.535   0.980  0.3217  0.0381 -0.2044
15562TIP3    H168101   3.408   4.505   1.037  0.4030  0.4407  0.1076
15562TIP3    H268102   3.502   4.622   1.012  1.6079 -0.4598  0.3041
15563TIP3   OH268103   4.672   2.364  14.756 -0.6939  0.3860 -0.0605
15563TIP3    H168104   4.696   2.273  14.770 -0.4472  0.4401 -0.1274
15563TIP3    H268105   4.584   2.360  14.717 -1.2139  0.2180  1.0848
15564TIP3   OH268106   3.380   4.062   0.083  0.2446 -0.3366 -0.2703
15564TIP3    H168107   3.443   4.107   0.140  0.1398  0.6647 -0.9162
15564TIP3    H268108   3.298   4.109   0.097  0.5220  0.8161 -2.2294
15565TIP3   OH268109   2.666   0.240   2.299 -0.2106 -0.4341  0.2089
15565TIP3    H168110   2.738   0.200   2.251  0.7246  0.6716  0.6480
15565TIP3    H268111   2.659   0.189   2.379 -0.6900 -1.2565 -0.3432
15566TIP3   OH268112   1.102   1.948   3.741 -0.5237 -0.4659 -0.0480
15566TIP3    H168113   1.153   1.942   3.661  0.6557 -1.1461  0.7363
15566TIP3    H268114   1.113   1.864   3.785 -1.0532 -0.0743  0.8955
15567TIP3   OH268115   3.972   3.576  10.241 -0.0250 -0.7589 -0.2338
15567TIP3    H168116   4.007   3.499  10.285 -0.5192 -1.2666 -0.7152
15567TIP3    H268117   4.047   3.635  10.231  0.6950 -1.7992 -1.1967
15568TIP3   OH268118   0.118   1.067  13.412 -0.5292  0.1563 -0.3318
15568TIP3    H168119   0.100   1.009  13.486 -0.4505 -0.4801 -0.8002
15568TIP3    H268120   0.206   1.042  13.384 -0.2368  0.9497 -0.1394
15569TIP3   OH268121   6.777   1.866  16.028  0.3211 -0.2424 -0.8632
15569TIP3    H168122   6.864   1.889  16.060 -0.0672  2.5353 -1.4731
15569TIP3    H268123   6.749   1.793  16.083  1.4547  1.3828  2.1354
15570TIP3   OH268124   3.221   0.210  13.997 -0.8588  0.2711  0.1841
15570TIP3    H168125   3.229   0.145  14.067  0.6617  1.6070  1.3228
15570TIP3    H268126   3.308   0.212  13.957 -1.8877 -1.0331 -2.3624
15571TIP3   OH268127   5.027   2.091  16.437  0.1922  0.2514  0.2556
15571TIP3    H168128   5.122   2.091  16.427  0.2936 -1.3394  0.8434
15571TIP3    H268129   5.004   2.182  16.454  1.4087  0.9334 -1.5080
15572TIP3   OH268130   5.526   2.808   5.386  0.3057  0.1881  0.0431
15572TIP3    H168131   5.551   2.858   5.463  0.6373 -0.4062  0.3282
15572TIP3    H268132   5.435   2.832   5.370  0.4726  0.9249  0.1324
15573TIP3   OH268133   5.271   3.018  15.853 -0.0943  0.1627 -0.3620
15573TIP3    H168134   5.175   3.021  15.858 -0.5472 -2.1787 -4.2487
15573TIP3    H268135   5.294   2.932  15.888  0.7432  0.9136  1.0355
15574TIP3   OH268136   3.424   0.799  14.595 -0.2560  0.0234 -0.5617
15574TIP3    H168137   3.403   0.840  14.678  0.6406  0.2276 -0.4286
15574TIP3    H268138   3.482   0.861  14.550  1.0132 -0.9964 -0.4137
15575TIP3   OH268139   5.525   4.741   2.600  0.1868 -0.2400  0.2781
15575TIP3    H168140   5.595   4.777   2.546  0.0522 -0.5359 -0.0946
15575TIP3    H268141   5.566   4.724   2.685  0.5808 -0.4873  0.0378
15576TIP3   OH268142   6.770   1.006   1.865 -0.1027 -0.6958 -0.5060
15576TIP3    H168143   6.714   0.986   1.791  0.4080 -1.2398 -0.7544
15576TIP3    H268144   6.809   0.922   1.889  2.0274 -0.0750 -1.5172
15577TIP3   OH268145   0.925   2.928  15.873 -0.1375 -0.1115 -0.3969
15577TIP3    H168146   0.857   2.995  15.875 -0.2977 -0.2121 -1.7251
15577TIP3    H268147   0.928   2.894  15.963 -1.4958  0.2327 -0.1946
15578TIP3   OH268148   1.137   3.877  14.860  0.5784 -0.0820 -0.7599
15578TIP3    H168149   1.192   3.950  14.835  1.9150 -0.5853  0.5547
15578TIP3    H268150   1.198   3.804  14.873  0.1095 -0.0147  3.3206
15579TIP3   OH268151   6.394   6.092  15.711  0.2356  0.0627  0.6464
15579TIP3    H168152   6.402   6.096  15.616  1.6568  1.4734  0.7748
15579TIP3    H268153   6.340   6.015  15.728 -0.9200  0.3775 -1.3364
15580TIP3   OH268154   0.087   5.074  15.276  0.3631  0.0878 -0.2565
15580TIP3    H168155   0.087   5.132  15.353  1.7307  1.2740 -1.1017
15580TIP3    H268156   0.170   5.093  15.232  0.4136 -1.8447 -1.1021
15581TIP3   OH268157   0.131   0.868  11.245  0.0885 -0.8515 -0.1670
15581TIP3    H168158   0.064   0.935  11.263  1.9768  0.9159  0.7899
15581TIP3    H268159   0.160   0.887  11.156  1.2796  0.3007  0.4277
15582TIP3   OH268160   4.815   4.283  15.461  0.4777 -0.1881  0.5268
15582TIP3    H168161   4.731   4.285  15.414  0.2210  0.2658  0.9931
15582TIP3    H268162   4.862   4.360  15.429  0.5208 -0.1759  0.6191
15583TIP3   OH268163   1.486   3.411   0.430 -0.3548  0.1306  0.2579
15583TIP3    H168164   1.438   3.354   0.370 -0.6822  1.1368 -0.4425
15583TIP3    H268165   1.468   3.500   0.400  0.3031  0.6108  1.2265
15584TIP3   OH268166   1.538   1.073  16.880  0.2039 -0.7119  0.4339
15584TIP3    H168167   1.539   0.985  16.843  1.2425 -0.3346 -0.4818
15584TIP3    H268168   1.557   1.130  16.805 -0.8395  0.3310  0.9317
15585TIP3   OH268169   2.201   5.667  17.292  0.0697 -0.0037  0.1414
15585TIP3    H168170   2.122   5.718  17.311  0.3251 -0.0734  1.4968
15585TIP3    H268171   2.246   5.660  17.377  1.2188 -0.4945 -0.4850
15586TIP3   OH268172   6.536   2.289  17.245  0.1803 -0.4193  0.1931
15586TIP3    H168173   6.624   2.252  17.244 -0.4220 -2.0154  1.1186
15586TIP3    H268174   6.536   2.355  17.176  2.2324 -0.0301  0.5163
15587TIP3   OH268175   3.927   4.816  14.552  0.5112  0.3883 -0.1100
15587TIP3    H168176   3.836   4.816  14.523  0.0876 -0.7521  1.0862
15587TIP3    H268177   3.959   4.903  14.531 -1.0486  1.0292 -0.0132
15588TIP3   OH268178   3.877   2.417  13.956 -0.2350 -0.5324  0.1309
15588TIP3    H168179   3.897   2.394  14.047  2.6261 -0.7582 -0.4597
15588TIP3    H268180   3.958   2.455  13.922 -1.6226  0.7472 -1.9900
15589TIP3   OH268181   2.132   6.112   0.625 -0.1384  0.2809  0.1926
15589TIP3    H168182   2.074   6.144   0.694 -1.1475  0.6816 -0.7969
15589TIP3    H268183   2.105   6.161   0.547  2.5307  1.5893 -0.0246
15590TIP3   OH268184   2.680   4.733  10.855 -0.5658 -0.1857 -0.1626
15590TIP3    H168185   2.719   4.647  10.870 -0.5464 -0.0959  0.3290
15590TIP3    H268186   2.585   4.717  10.856 -0.5546 -0.2926 -0.6568
15591TIP3   OH268187   5.535   3.812  17.251  0.4731  0.2045  0.2790
15591TIP3    H168188   5.583   3.890  17.279  1.2993 -0.9148  2.2004
15591TIP3    H268189   5.588   3.739  17.283 -0.1743 -1.1748 -1.6375
15592TIP3   OH268190   6.579   1.198   5.820  0.5409  0.3325  0.4181
15592TIP3    H168191   6.508   1.180   5.882 -1.6901  0.4616 -1.9326
15592TIP3    H268192   6.604   1.112   5.787  1.0909  0.3463  0.7702
15593TIP3   OH268193   1.508   2.342  12.733  0.2427 -0.0351 -0.1150
15593TIP3    H168194   1.444   2.334  12.803  1.9683  1.5761  1.8005
15593TIP3    H268195   1.477   2.282  12.665 -2.1805 -0.7738  1.4881
15594TIP3   OH268196   6.538   2.398  15.988 -0.5481 -0.4942 -0.6640
15594TIP3    H168197   6.554   2.304  15.992  0.8329 -0.3302 -1.7144
15594TIP3    H268198   6.448   2.409  16.018 -0.3244 -2.0205  0.6594
15595TIP3   OH268199   6.056   0.202  11.452  0.0843 -0.2855 -0.5099
15595TIP3    H168200   5.980   0.159  11.490  1.3614 -0.1187  2.4617
15595TIP3    H268201   6.065   0.160  11.366 -2.9793 -0.6664 -0.7679
15596TIP3   OH268202   0.371   3.523  12.660  0.0059 -0.4167  0.3697
15596TIP3    H168203   0.380   3.479  12.576  0.3821 -1.9402  1.1797
15596TIP3    H268204   0.456   3.564  12.675  0.6621 -1.9340  0.9616
15597TIP3   OH268205   4.931   0.235  11.343  0.1120  0.7684 -0.3659
15597TIP3    H168206   4.984   0.314  11.333 -0.6069  1.1218 -1.3982
15597TIP3    H268207   4.994   0.163  11.332  0.7711  1.1642  0.6034
15598TIP3   OH268208   0.759   6.196   5.420  0.1986  0.3900 -0.3474
15598TIP3    H168209   0.792   6.125   5.364  0.8276  0.6406 -0.2980
15598TIP3    H268210   0.786   6.276   5.375 -0.4638  0.6051 -0.3720
15599TIP3   OH268211   0.436   0.997   3.197  0.2089 -0.3716 -0.3977
15599TIP3    H168212   0.358   1.041   3.233  0.5375 -0.8143  0.9292
15599TIP3    H268213   0.454   0.926   3.259  0.6255 -1.3931 -1.6565
15600TIP3   OH268214   1.440   0.634  11.125 -1.1573 -0.4556  0.2549
15600TIP3    H168215   1.385   0.567  11.165  0.0212 -0.4385  2.0254
15600TIP3    H268216   1.514   0.586  11.088 -0.5492 -0.2302  1.1153
15601TIP3   OH268217   3.575   5.014   0.918 -0.0672  0.3475 -0.0989
15601TIP3    H168218   3.570   4.995   0.824 -0.9536 -1.2007  0.2280
15601TIP3    H268219   3.668   5.019   0.937  0.3552 -3.7689 -0.2991
15602TIP3   OH268220   3.372   2.873   4.460  0.3758 -0.5726  0.6551
15602TIP3    H168221   3.341   2.799   4.511 -1.6220 -0.0263  0.3187
15602TIP3    H268222   3.309   2.881   4.388  0.9882  0.9685  0.2442
15603TIP3   OH268223   5.755   1.945   5.496  0.3718 -0.2818  1.0602
15603TIP3    H168224   5.829   1.931   5.555 -0.1881  1.9472  2.4358
15603TIP3    H268225   5.682   1.966   5.554 -0.6988  0.0877 -0.3611
15604TIP3   OH268226   4.735   3.962   5.389 -0.1018  0.2871 -0.4404
15604TIP3    H168227   4.740   3.944   5.483  0.7800  3.7389  0.3237
15604TIP3    H268228   4.824   3.987   5.365 -0.8552  2.0834 -1.5208
15605TIP3   OH268229   3.051   2.508  13.926 -0.8507  0.2315 -0.3655
15605TIP3    H168230   3.110   2.467  13.989 -0.7448  0.4474 -0.3262
15605TIP3    H268231   3.101   2.580  13.889 -0.5710 -0.4576 -1.3835
15606TIP3   OH268232   0.637   6.254  12.967 -0.1067 -0.4874 -0.1672
15606TIP3    H168233   0.602   6.297  12.889  3.1037 -0.9358 -2.0756
15606TIP3    H268234   0.665   6.168  12.937 -0.2233 -1.3172  1.9120
15607TIP3   OH268235   1.521   0.428  12.157  0.0952 -0.0507  0.2418
15607TIP3    H168236   1.472   0.372  12.097 -0.6086  0.4114  0.3798
15607TIP3    H268237   1.562   0.493  12.100  1.0883 -0.8050  0.0567
15608TIP3   OH268238   5.167   1.527  16.173  0.0763  0.1124 -0.2118
15608TIP3    H168239   5.090   1.568  16.212  0.6967  0.3589  0.8050
15608TIP3    H268240   5.136   1.442  16.141 -0.7721  0.5206 -0.4972
15609TIP3   OH268241   0.832   6.527   2.223 -0.1614 -0.1788 -0.5782
15609TIP3    H168242   0.790   6.451   2.182  1.6823 -1.4101 -0.3072
15609TIP3    H268243   0.814   6.599   2.162 -2.9100 -0.5129 -0.2813
15610TIP3   OH268244   4.215   2.034   0.019 -0.3459  0.0909 -0.0792
15610TIP3    H168245   4.185   1.977   0.090 -0.0657 -0.1993 -0.1903
15610TIP3    H268246   4.164   2.007  -0.057 -0.2691  0.0414 -0.1133
15611TIP3   OH268247   0.795   4.579   4.685 -0.0643 -0.1203 -0.8331
15611TIP3    H168248   0.706   4.543   4.687  0.9573 -2.9014  1.3075
15611TIP3    H268249   0.807   4.606   4.594 -2.5992 -0.9427 -1.5190
15612TIP3   OH268250   6.517   5.521   0.090  0.7938  0.2630  0.3310
15612TIP3    H168251   6.473   5.581   0.030  0.6404 -1.1369 -1.0115
15612TIP3    H268252   6.530   5.572   0.170  0.8838  2.1430 -0.8349
15613TIP3   OH268253   3.193   1.773  17.007 -0.4444 -0.1603  0.2461
15613TIP3    H168254   3.243   1.815  16.938  0.0689  0.0129  0.7230
15613TIP3    H268255   3.219   1.817  17.088 -1.3578 -0.0671  0.5069
15614TIP3   OH268256   6.427   5.759  17.281 -0.1374 -0.3019  0.1585
15614TIP3    H168257   6.477   5.829  17.324  1.3440 -0.9158 -0.5044
15614TIP3    H268258   6.348   5.802  17.249  0.1065  0.7735  0.9420
15615TIP3   OH268259   3.899   0.478   5.201 -0.0611 -0.5394  0.1839
15615TIP3    H168260   3.812   0.513   5.218 -0.2574 -1.9231  2.5454
15615TIP3    H268261   3.900   0.393   5.246  2.5599 -0.4975  0.3947
15616TIP3   OH268262   2.895   6.333   3.537  0.2483  0.5570 -0.0038
15616TIP3    H168263   2.813   6.374   3.564 -1.1053 -0.4309 -2.2549
15616TIP3    H268264   2.913   6.371   3.451 -0.6227 -2.7386 -1.8283
15617TIP3   OH268265   3.071   5.206   4.148  0.5622  0.2499  0.0895
15617TIP3    H168266   2.989   5.223   4.101  0.4194 -0.9038 -0.1297
15617TIP3    H268267   3.100   5.291   4.180 -0.0850  0.8519 -0.8921
15618TIP3   OH268268   3.623   4.300  14.530 -0.8441 -0.0234  0.1520
15618TIP3    H168269   3.689   4.363  14.504 -2.4229  1.6343 -0.0359
15618TIP3    H268270   3.647   4.219  14.484  0.1520  0.9686 -1.1335
15619TIP3   OH268271   2.440   0.884  11.780 -0.3522  0.0092 -0.3799
15619TIP3    H168272   2.468   0.975  11.771  0.5314 -0.1545  0.6264
15619TIP3    H268273   2.350   0.890  11.813 -1.0416  0.5082 -2.1653
15620TIP3   OH268274   4.323   5.846   0.586 -0.2184  0.2514  0.2693
15620TIP3    H168275   4.362   5.847   0.674  3.0659  0.2234 -1.0161
15620TIP3    H268276   4.339   5.757   0.555 -2.7164 -0.1921  0.1237
15621TIP3   OH268277   2.681   1.723  14.344 -0.4110 -0.1118  0.1437
15621TIP3    H168278   2.628   1.727  14.265 -1.2941 -0.1369  0.7208
15621TIP3    H268279   2.760   1.773  14.322 -0.3761 -0.6157 -0.9408
15622TIP3   OH268280   5.349   0.805  12.461 -0.8869  0.5688  0.3099
15622TIP3    H168281   5.399   0.828  12.383 -0.9423  0.2000  0.1675
15622TIP3    H268282   5.360   0.881  12.519  1.7910 -0.4287  1.2618
15623TIP3   OH268283   1.406   6.643   5.371  0.1286 -0.7673 -0.0038
15623TIP3    H168284   1.470   6.607   5.310 -1.3588 -0.2679 -1.9375
15623TIP3    H268285   1.435   6.733   5.386  0.3246 -0.7980 -0.1964
15624TIP3   OH268286   6.337   4.952   2.569 -0.3895  0.3151 -0.6597
15624TIP3    H168287   6.411   4.929   2.626 -0.5137  0.1125 -0.5803
15624TIP3    H268288   6.297   4.868   2.546 -0.7900  0.4431 -0.4408
15625TIP3   OH268289   2.338   6.372   5.411 -0.2439  0.0977 -0.3253
15625TIP3    H168290   2.372   6.440   5.353  1.0892 -0.2437  0.0183
15625TIP3    H268291   2.367   6.399   5.499  0.2220 -0.8557 -0.1797
15626TIP3   OH268292   5.251   2.873   0.711  0.6803 -0.3773 -0.2761
15626TIP3    H168293   5.318   2.819   0.668  1.3659 -0.4871  0.8915
15626TIP3    H268294   5.198   2.810   0.760  1.9079  0.0194  1.6569
15627TIP3   OH268295   3.201   4.015  12.515 -0.3187  0.5439  0.2964
15627TIP3    H168296   3.113   3.998  12.482 -0.4691 -0.5732  1.2124
15627TIP3    H268297   3.192   4.016  12.610  0.6055  0.7086  0.3965
15628TIP3   OH268298   5.918   5.723  17.060 -0.5505 -0.3909 -0.0667
15628TIP3    H168299   5.884   5.721  17.150 -1.9672 -1.4102 -0.5937
15628TIP3    H268300   5.858   5.778  17.012 -0.9709 -1.4636 -0.8134
15629TIP3   OH268301   6.054   2.299  10.809  0.0882  0.1300 -0.0173
15629TIP3    H168302   6.114   2.229  10.838 -0.1257 -0.8584 -1.7617
15629TIP3    H268303   6.112   2.368  10.778  0.3044  0.6633  1.5043
15630TIP3   OH268304   4.896   2.923  11.588  0.4639  0.1801  0.1466
15630TIP3    H168305   4.945   2.995  11.627  0.0735 -1.2664  3.6528
15630TIP3    H268306   4.860   2.959  11.507  1.4335  3.4462  1.0396
15631TIP3   OH268307   3.375   0.722   1.658 -0.1791 -0.5037 -0.0164
15631TIP3    H168308   3.389   0.635   1.619 -0.3257 -0.4971 -0.0862
15631TIP3    H268309   3.461   0.763   1.656 -0.3264 -0.2116 -1.0427
15632TIP3   OH268310   5.011   4.558   3.356  0.4287  0.6288  0.1090
15632TIP3    H168311   5.021   4.578   3.449 -2.6187 -0.2471  0.7168
15632TIP3    H268312   5.031   4.465   3.348  0.1660  0.5816 -0.0135
15633TIP3   OH268313   3.724   0.375  11.234 -0.3255  0.1153 -0.5582
15633TIP3    H168314   3.690   0.286  11.248  0.0230  0.0248 -0.2751
15633TIP3    H268315   3.778   0.368  11.156  0.0502 -0.0186 -0.2873
15634TIP3   OH268316   4.227   0.462  11.589 -0.3619 -0.0737  0.1825
15634TIP3    H168317   4.236   0.475  11.683  2.7670 -1.7123  0.2323
15634TIP3    H268318   4.284   0.528  11.550 -0.0560 -0.6933 -0.4412
15635TIP3   OH268319   3.895   3.641  14.587 -0.2486  0.7538 -0.1031
15635TIP3    H168320   3.861   3.586  14.658 -1.7187  0.4057 -1.0479
15635TIP3    H268321   3.968   3.591  14.552 -0.5979  0.1206  0.0562
15636TIP3   OH268322   2.627   5.553  14.689  0.1619  0.0018 -0.2961
15636TIP3    H168323   2.690   5.624  14.681 -0.4905  0.6134 -0.1106
15636TIP3    H268324   2.680   5.475  14.706  0.7620  0.9182  2.5109
15637TIP3   OH268325   4.741   1.382   1.511 -0.2465 -0.5642 -0.3300
15637TIP3    H168326   4.822   1.356   1.466 -0.8820 -1.6985 -0.8515
15637TIP3    H268327   4.680   1.402   1.441 -0.6972 -0.6027  0.0453
15638TIP3   OH268328   3.356   3.472   5.995  0.4648 -0.2460  0.1385
15638TIP3    H168329   3.267   3.508   6.002  0.7209  1.2407 -2.7057
15638TIP3    H268330   3.346   3.380   6.017 -1.6385  0.0644  0.6785
15639TIP3   OH268331   2.220   3.293  14.663 -0.3557 -0.1087 -0.2040
15639TIP3    H168332   2.193   3.205  14.691  0.7731 -0.4871 -0.2459
15639TIP3    H268333   2.159   3.352  14.707  0.3519 -0.7775  1.8272
15640TIP3   OH268334   4.219   2.629   0.961 -0.2167 -0.6449  0.0714
15640TIP3    H168335   4.269   2.614   0.881 -0.0152  0.2508  0.0245
15640TIP3    H268336   4.179   2.716   0.949 -1.2172 -1.0386  0.4015
15641TIP3   OH268337   2.409   3.815   4.489  0.7824 -0.1427  0.2185
15641TIP3    H168338   2.335   3.789   4.543 -0.8519  0.7934 -1.4781
15641TIP3    H268339   2.434   3.736   4.441 -0.4979  0.0061 -0.7347
15642TIP3   OH268340   0.490   0.837   0.809 -0.3759 -0.2302  0.3290
15642TIP3    H168341   0.555   0.802   0.747 -1.3491  1.2221 -1.6337
15642TIP3    H268342   0.476   0.927   0.780 -0.8076  0.5671  2.8131
15643TIP3   OH268343   5.892   4.156   1.662  0.0389 -0.2540  0.0148
15643TIP3    H168344   5.924   4.243   1.684  1.5700 -1.0549  1.0896
15643TIP3    H268345   5.925   4.099   1.731 -0.4206 -1.8063 -0.9815
15644TIP3   OH268346   5.345   6.561  13.918 -0.2950  0.0686 -0.2302
15644TIP3    H168347   5.370   6.623  13.849 -0.2827  0.1359 -0.1659
15644TIP3    H268348   5.405   6.581  13.990 -0.7268  0.4307  0.0320
15645TIP3   OH268349   0.987   4.585   0.483 -0.1507  0.7586 -0.4092
15645TIP3    H168350   0.896   4.583   0.512 -0.2315  0.3930 -0.6844
15645TIP3    H268351   1.029   4.649   0.540  0.4190 -2.0963  2.6954
15646TIP3   OH268352   4.524   2.228  15.150  0.2761  0.1132 -0.0585
15646TIP3    H168353   4.560   2.316  15.145  0.7649 -0.0660  0.2371
15646TIP3    H268354   4.511   2.202  15.059 -0.9327  0.9074 -0.1452
15647TIP3   OH268355   0.584   0.442   0.139 -0.5008 -0.2079  0.5394
15647TIP3    H168356   0.544   0.444   0.052 -1.2387  2.4349  0.8317
15647TIP3    H268357   0.679   0.444   0.122 -0.6196 -0.6691 -0.1979
15648TIP3   OH268358   5.938   1.959  14.365 -0.0334  0.0216 -0.0247
15648TIP3    H168359   5.967   2.035  14.415 -1.1892  0.6859 -0.3210
15648TIP3    H268360   5.957   1.884  14.421 -1.4101  0.7549  1.4984
15649TIP3   OH268361   1.177   2.948   0.354  0.1593 -0.0868 -0.0385
15649TIP3    H168362   1.141   3.010   0.290  1.2371  2.8233  1.9582
15649TIP3    H268363   1.118   2.954   0.429 -0.2002 -2.2365 -0.1007
15650TIP3   OH268364   3.208   3.889  13.078  0.4104 -0.4928  0.4513
15650TIP3    H168365   3.288   3.845  13.106  1.2114 -0.7361 -1.9491
15650TIP3    H268366   3.176   3.835  13.006 -0.9720  0.5556  0.2503
15651TIP3   OH268367   3.828   2.021  11.534  0.3513 -0.3999 -0.5844
15651TIP3    H168368   3.900   2.051  11.589  0.5980 -0.6869 -0.7468
15651TIP3    H268369   3.865   2.020  11.445 -0.1057  0.2661 -0.7916
15652TIP3   OH268370   6.301   1.357   0.946 -0.3873 -0.3978 -0.6924
15652TIP3    H168371   6.224   1.351   0.889  0.4273  1.2962 -2.0790
15652TIP3    H268372   6.374   1.370   0.885  0.5165  1.5594  0.7163
15653TIP3   OH268373   0.395   2.809  14.768  0.2497  0.1278 -0.3382
15653TIP3    H168374   0.344   2.885  14.797 -1.9148 -1.3210 -0.1143
15653TIP3    H268375   0.404   2.821  14.674 -1.0073  0.1656 -0.4703
15654TIP3   OH268376   2.462   3.680   0.582  0.1284  0.0735 -0.0931
15654TIP3    H168377   2.506   3.722   0.508 -0.7579 -0.1197 -0.7510
15654TIP3    H268378   2.417   3.752   0.627  1.2818  0.3126  0.7329
15655TIP3   OH268379   1.578   0.264   1.677  0.1566 -0.0511  0.6089
15655TIP3    H168380   1.595   0.293   1.767 -2.0349 -1.6226  1.6075
15655TIP3    H268381   1.562   0.345   1.628  0.6468  0.7871  1.7870
15656TIP3   OH268382   1.855   0.050  13.622 -0.0190 -0.5668 -0.1184
15656TIP3    H168383   1.792   0.079  13.688 -0.4964  0.0114 -0.8254
15656TIP3    H268384   1.905  -0.019  13.666  0.1308  0.2768  1.0839
15657TIP3   OH268385   1.829   5.393  11.484  0.7149  0.4243  0.2503
15657TIP3    H168386   1.894   5.324  11.471  1.0261  0.5758  0.9546
15657TIP3    H268387   1.745   5.348  11.483  1.0078 -0.2944  2.6937
15658TIP3   OH268388   3.715   5.755   5.395 -0.2478 -0.1673  0.2208
15658TIP3    H168389   3.697   5.706   5.475  1.0552 -1.4048 -0.2059
15658TIP3    H268390   3.810   5.766   5.394 -0.1120 -1.1441 -1.6871
15659TIP3   OH268391   3.164   3.058   5.376  0.2801  0.3958 -0.0106
15659TIP3    H168392   3.210   3.002   5.314 -0.6723 -2.7204  1.8864
15659TIP3    H268393   3.221   3.062   5.453 -0.0734  1.3143  0.2214
15660TIP3   OH268394   6.231   5.365  17.266 -0.5883 -0.5970 -0.1814
15660TIP3    H168395   6.270   5.409  17.191 -1.3834 -1.2172 -0.9759
15660TIP3    H268396   6.261   5.415  17.342 -0.0321  0.2229 -0.9322
15661TIP3   OH268397   4.419   4.589  13.736 -0.3088  0.1724 -0.6693
15661TIP3    H168398   4.364   4.535  13.793 -0.6702  0.5301 -0.6819
15661TIP3    H268399   4.426   4.538  13.655 -0.2003 -0.1087 -0.4832
15662TIP3   OH268400   2.635   6.172   3.881 -0.0593  0.1944 -0.2387
15662TIP3    H168401   2.554   6.216   3.906  0.9388  1.8939  0.2153
15662TIP3    H268402   2.623   6.151   3.788 -1.0534  0.3527 -0.1518
15663TIP3   OH268403   3.590   1.566  13.510  0.3228  0.0941 -0.3503
15663TIP3    H168404   3.553   1.591  13.425  0.2982 -1.8356 -0.9576
15663TIP3    H268405   3.542   1.618  13.574 -0.1441  1.0714 -1.4628
15664TIP3   OH268406   3.061   6.626   4.257  0.0028 -0.0996 -0.4811
15664TIP3    H168407   3.034   6.539   4.228 -1.0131  0.1391 -0.2918
15664TIP3    H268408   3.141   6.611   4.308 -1.0794 -1.1454  1.0153
15665TIP3   OH268409   0.370   5.228   5.087 -0.4371 -0.0376  0.2067
15665TIP3    H168410   0.396   5.155   5.031  0.2320  0.4229 -0.0925
15665TIP3    H268411   0.358   5.190   5.173 -0.2847 -0.5374  0.0069
15666TIP3   OH268412   1.023   1.064   5.452 -0.1565 -0.6452 -0.3351
15666TIP3    H168413   1.092   0.997   5.447  0.2060 -0.5561  2.2670
15666TIP3    H268414   1.063   1.142   5.413 -0.0790 -1.5129 -2.0751
15667TIP3   OH268415   2.033   4.111   0.075 -0.6254  0.2040 -0.0509
15667TIP3    H168416   1.983   4.062   0.010 -2.1775  1.5107  0.0828
15667TIP3    H268417   2.094   4.165   0.025  0.1854 -0.8815 -0.2547
15668TIP3   OH268418   3.383   6.139  12.098 -0.0044 -0.2615 -0.4138
15668TIP3    H168419   3.442   6.154  12.025  0.6681 -0.7041  0.0206
15668TIP3    H268420   3.435   6.161  12.176  0.1597 -2.1693  0.0753
15669TIP3   OH268421   2.560   3.574   3.750 -0.0974 -0.4397  0.0323
15669TIP3    H168422   2.559   3.498   3.691 -0.2231  0.1813 -0.7869
15669TIP3    H268423   2.485   3.626   3.723  0.2618  0.2143  0.2683
15670TIP3   OH268424   6.359   3.995  12.728 -0.4006  0.6929 -0.0721
15670TIP3    H168425   6.440   3.957  12.694 -0.9580 -1.5059  0.8637
15670TIP3    H268426   6.292   3.969  12.664 -0.9259 -0.7489  0.9896
15671TIP3   OH268427   0.948   1.927  11.333  0.1932 -0.1540 -0.0570
15671TIP3    H168428   0.875   1.919  11.272  0.1641 -2.7838  0.2088
15671TIP3    H268429   0.908   1.953  11.416 -0.3122 -0.5281 -0.1830
15672TIP3   OH268430   6.003   2.800  15.415  0.1903  0.2744 -0.0229
15672TIP3    H168431   5.982   2.711  15.444  0.9433 -0.6109 -2.0096
15672TIP3    H268432   5.976   2.856  15.487 -2.2264 -1.3814  0.4717
15673TIP3   OH268433   4.347   5.606  11.588 -0.6705 -0.1056 -0.0432
15673TIP3    H168434   4.291   5.549  11.641 -2.5928  1.0818 -0.6998
15673TIP3    H268435   4.338   5.693  11.627  0.6544  0.1550 -0.2499
15674TIP3   OH268436   3.937   4.709  12.762  0.2080 -0.2468  0.4550
15674TIP3    H168437   3.938   4.731  12.855 -0.4693 -0.8022  0.6058
15674TIP3    H268438   3.870   4.641  12.754  0.6397 -0.5965 -0.3551
15675TIP3   OH268439   3.140   3.891  14.987 -0.3518  0.0244 -0.4892
15675TIP3    H168440   3.211   3.897  14.925  1.1896 -1.0895  1.0693
15675TIP3    H268441   3.113   3.799  14.984 -0.8968  0.1703 -0.1970
15676TIP3   OH268442   1.327   0.429  12.385 -0.1088  0.3627 -0.3049
15676TIP3    H168443   1.358   0.444  12.474  0.2340  0.0107 -0.3603
15676TIP3    H268444   1.404   0.443  12.330 -0.4054  0.9267 -0.5771
15677TIP3   OH268445   4.812   4.226   3.742 -0.0123 -0.0464  0.2906
15677TIP3    H168446   4.824   4.271   3.826 -1.5860 -1.9001  1.5992
15677TIP3    H268447   4.730   4.262   3.707 -0.3589 -0.6088  0.5041
15678TIP3   OH268448   5.419   3.734  13.151 -0.1116  0.3372 -0.9234
15678TIP3    H168449   5.329   3.701  13.147 -0.2879  0.9348 -2.3439
15678TIP3    H268450   5.468   3.663  13.192 -1.2064 -0.0090 -0.1386
15679TIP3   OH268451   2.384   5.401  13.847 -0.2575  0.2553  0.5154
15679TIP3    H168452   2.331   5.381  13.770 -1.0013  1.4285  0.7069
15679TIP3    H268453   2.329   5.458  13.900  1.1036  1.3044  0.8481
15680TIP3   OH268454   2.098   6.584   2.796 -0.1093 -0.5049 -0.1044
15680TIP3    H168455   2.130   6.506   2.842 -2.0363 -1.3249 -0.0560
15680TIP3    H268456   2.071   6.644   2.866  2.2201  0.6729 -0.1112
15681TIP3   OH268457   0.927   1.859   1.946  0.1231  0.0484  0.3013
15681TIP3    H168458   1.000   1.897   1.995  0.0208  0.2790  0.2795
15681TIP3    H268459   0.870   1.934   1.926  0.6305  0.1313 -0.9784
15682TIP3   OH268460   5.963   6.611   2.991 -0.5223  0.4275 -0.5786
15682TIP3    H168461   5.890   6.673   2.996  1.3888  2.7557  2.1133
15682TIP3    H268462   6.022   6.650   2.926  0.3738  1.1260  0.6237
15683TIP3   OH268463   6.608   3.711  11.674  0.4913  0.3095 -0.6681
15683TIP3    H168464   6.606   3.771  11.600 -0.4927  2.3829  0.9268
15683TIP3    H268465   6.626   3.766  11.750 -0.4264 -1.4070  0.8971
15684TIP3   OH268466   6.642   6.426  14.275 -0.2309 -0.3957 -0.2471
15684TIP3    H168467   6.577   6.445  14.208  0.3215  1.1641 -0.3970
15684TIP3    H268468   6.697   6.505  14.277  1.4119 -1.5024  0.1321
15685TIP3   OH268469   4.677   0.879  11.527  0.6726 -0.6196 -0.2987
15685TIP3    H168470   4.705   0.790  11.550 -2.7436 -1.6804  0.3814
15685TIP3    H268471   4.626   0.868  11.447  1.1868  0.9642 -0.8791
15686TIP3   OH268472   0.140   4.037   5.275  0.0263  0.2743 -0.1542
15686TIP3    H168473   0.121   4.095   5.348 -0.9246  0.2381 -0.3675
15686TIP3    H268474   0.154   4.096   5.201  1.3919  0.3335  0.1210
15687TIP3   OH268475   0.937   0.234  15.884 -0.0105 -0.2985  0.4585
15687TIP3    H168476   0.844   0.216  15.897 -0.4837  0.3815 -1.5561
15687TIP3    H268477   0.976   0.228  15.971 -1.9504 -0.5034  1.3545
15688TIP3   OH268478   3.896   2.510  11.844  0.0356  0.1430 -0.6757
15688TIP3    H168479   3.965   2.503  11.910 -0.4362 -1.3238 -0.3080
15688TIP3    H268480   3.834   2.442  11.867 -1.5583  1.4380 -1.0064
15689TIP3   OH268481   5.468   4.770   0.997 -0.5963  0.2988  0.2282
15689TIP3    H168482   5.419   4.811   0.925  1.4089  2.6123  0.0205
15689TIP3    H268483   5.545   4.732   0.954 -1.3967 -2.0321  0.7161
15690TIP3   OH268484   5.346   4.158   2.522  0.6044 -0.1109  0.0192
15690TIP3    H168485   5.387   4.236   2.485 -0.1340  0.3536  0.1602
15690TIP3    H268486   5.254   4.181   2.531  0.2469 -1.2339 -0.5604
15691TIP3   OH268487   5.195   5.728  12.587 -0.3415 -0.0238  0.2059
15691TIP3    H168488   5.219   5.759  12.500  0.9623 -0.3741  0.4193
15691TIP3    H268489   5.105   5.758  12.599 -0.3027  0.6342 -0.9796
15692TIP3   OH268490   3.489   5.422   5.454  0.1152 -0.2301  0.7344
15692TIP3    H168491   3.456   5.431   5.365  0.7150  2.9101  0.7186
15692TIP3    H268492   3.417   5.382   5.503 -0.7371 -0.6856 -0.8412
15693TIP3   OH268493   1.727   4.225   2.439  0.1265  0.2285 -0.1692
15693TIP3    H168494   1.641   4.264   2.426  0.2603  0.2683 -0.9507
15693TIP3    H268495   1.788   4.299   2.436  0.0228  0.5862  2.8835
15694TIP3   OH268496   3.523   2.499  12.447 -0.0045 -0.2865 -0.1821
15694TIP3    H168497   3.618   2.496  12.448  0.1246  1.9353  0.7641
15694TIP3    H268498   3.503   2.591  12.426 -1.8401  0.3874  3.7406
15695TIP3   OH268499   1.037   4.647  16.889 -0.2046  0.5175  0.6443
15695TIP3    H168500   1.020   4.683  16.801 -1.0395 -1.1384  0.0859
15695TIP3    H268501   0.955   4.660  16.936 -1.2126 -2.1603 -0.1592
15696TIP3   OH268502   6.294   0.802   0.481 -0.2713  0.0547  0.1019
15696TIP3    H168503   6.382   0.782   0.513 -0.2872 -1.9851 -0.9834
15696TIP3    H268504   6.300   0.893   0.450  1.8518 -0.4791 -1.2509
15697TIP3   OH268505   0.746   0.635   4.719 -0.8128  0.6657  0.1147
15697TIP3    H168506   0.759   0.729   4.733  0.7274  0.6262 -0.8433
15697TIP3    H268507   0.678   0.611   4.781 -1.9717  2.6162 -0.3102
15698TIP3   OH268508   0.545   1.571  15.800 -0.2826  0.7422  0.0263
15698TIP3    H168509   0.569   1.480  15.813  0.7927  1.1743  1.2746
15698TIP3    H268510   0.450   1.569  15.791 -0.1136 -0.7201 -2.3198
15699TIP3   OH268511   5.433   4.598  13.885 -0.0243  0.5747  0.7043
15699TIP3    H168512   5.392   4.515  13.862 -0.6505  1.1174 -0.2174
15699TIP3    H268513   5.429   4.650  13.805  2.1614  0.7926  0.6721
15700TIP3   OH268514   4.116   5.239  16.453 -0.4507 -0.2719 -0.1157
15700TIP3    H168515   4.210   5.236  16.436 -0.4976  0.7492 -0.6626
15700TIP3    H268516   4.109   5.245  16.548  0.1331  1.5290 -0.1511
15701TIP3   OH268517   0.661   4.785   0.869  0.2324 -0.4948 -0.4677
15701TIP3    H168518   0.582   4.777   0.815 -0.0935  0.3889 -0.1516
15701TIP3    H268519   0.669   4.879   0.885  1.1578 -0.6127 -0.2014
15702TIP3   OH268520   4.957   6.105   5.274 -0.3293  0.0807  0.2831
15702TIP3    H168521   4.966   6.184   5.221 -0.2359 -0.4780 -0.5517
15702TIP3    H268522   4.869   6.111   5.311 -0.5408  0.2951 -0.2427
15703TIP3   OH268523   2.788   0.307  11.706 -0.2608  0.9661 -0.0696
15703TIP3    H168524   2.701   0.275  11.679 -0.2925  0.1770  0.8821
15703TIP3    H268525   2.842   0.228  11.708  0.4526  1.4341 -0.5071
15704TIP3   OH268526   1.857   6.438  11.558 -0.2139  0.2022  0.1635
15704TIP3    H168527   1.833   6.429  11.465 -2.0839  0.3082  0.5970
15704TIP3    H268528   1.917   6.366  11.574  0.1890  0.2133 -1.1370
15705TIP3   OH268529   2.230   6.294  11.871 -0.1220 -0.3870  0.2491
15705TIP3    H168530   2.273   6.236  11.808 -0.3138  1.7296 -2.0219
15705TIP3    H268531   2.143   6.257  11.883  0.2757 -1.3948  0.0956
15706TIP3   OH268532   5.559   6.051   5.660 -0.0051  0.1696 -0.3695
15706TIP3    H168533   5.484   6.041   5.601  0.4407  0.3508 -0.9694
15706TIP3    H268534   5.555   5.973   5.716 -2.1014  1.3704  1.3019
15707TIP3   OH268535   2.035   1.354  13.703 -0.5036  0.3992  0.3059
15707TIP3    H168536   1.941   1.371  13.710 -0.2841  1.4562  0.8403
15707TIP3    H268537   2.074   1.401  13.777  0.3515 -0.8726  0.7047
15708TIP3   OH268538   4.363   3.398  12.923 -0.0166  0.3303  0.0767
15708TIP3    H168539   4.282   3.354  12.949 -0.7060  1.8254  0.6108
15708TIP3    H268540   4.349   3.489  12.949  0.4416  1.3699 -2.9225
15709TIP3   OH268541   0.072   3.009   2.451  0.5057  0.3467 -0.0677
15709TIP3    H168542   0.009   3.059   2.399  0.4633  0.2539 -0.1055
15709TIP3    H268543   0.021   2.976   2.525  0.5400  0.3815 -0.0283
15710TIP3   OH268544   2.108   0.051   0.772  0.2366 -0.3130 -0.0393
15710TIP3    H168545   2.047  -0.020   0.791  0.9015 -0.8922 -0.0222
15710TIP3    H268546   2.185   0.007   0.736  0.3982  0.4633 -0.6633
15711TIP3   OH268547   6.491   3.321   1.106 -0.3409 -0.1336 -0.3029
15711TIP3    H168548   6.477   3.311   1.200  0.9670  2.6274  0.2774
15711TIP3    H268549   6.568   3.267   1.088 -0.4964 -0.5432  0.2179
15712TIP3   OH268550   5.681   1.755  11.762 -0.1397 -0.4322  0.4503
15712TIP3    H168551   5.686   1.690  11.692 -1.0981 -0.9385  0.8271
15712TIP3    H268552   5.772   1.772  11.786  0.2958  0.6740 -1.7282
15713TIP3   OH268553   0.992   1.886   4.698  0.0168 -0.1436  0.0278
15713TIP3    H168554   1.047   1.946   4.747 -1.9420  0.9902  0.9803
15713TIP3    H268555   0.978   1.812   4.758  1.2150 -0.8694 -0.5683
15714TIP3   OH268556   5.876   2.877   4.820 -0.6168 -0.6788  0.6183
15714TIP3    H168557   5.966   2.885   4.790 -0.3019  3.9029  2.0807
15714TIP3    H268558   5.823   2.886   4.741  0.0800 -2.3348 -0.1014
15715TIP3   OH268559   3.794   1.959   3.457  0.0043  0.2594  0.4332
15715TIP3    H168560   3.874   1.951   3.510  0.0543  0.4808  0.3929
15715TIP3    H268561   3.781   1.872   3.420  0.1000  0.1621  0.6239
15716TIP3   OH268562   6.087   4.021   2.242  0.5493 -0.2992 -0.7314
15716TIP3    H168563   6.035   4.057   2.313 -0.0663 -0.8664 -0.8847
15716TIP3    H268564   6.168   4.073   2.242 -0.1170  0.7580 -0.6560
15717TIP3   OH268565   5.623   2.059   1.131  0.0819 -0.1304 -0.1127
15717TIP3    H168566   5.558   1.990   1.117 -0.6240  0.6055 -0.5206
15717TIP3    H268567   5.629   2.104   1.046  0.0758  0.7032  0.3241
15718TIP3   OH268568   5.896   4.348  11.957 -0.5815  0.5182 -0.1269
15718TIP3    H168569   5.891   4.288  11.883 -0.2531  0.1248  0.1709
15718TIP3    H268570   5.824   4.322  12.014 -1.2722  1.2649 -0.6270
15719TIP3   OH268571   4.162   0.637  16.064  0.2308 -1.3502 -0.0372
15719TIP3    H168572   4.098   0.691  16.110 -0.7567 -0.9942 -1.7614
15719TIP3    H268573   4.137   0.547  16.086  0.1618 -1.1799  0.6054
15720TIP3   OH268574   4.623   2.159   5.528  0.7441 -0.4620 -0.7156
15720TIP3    H168575   4.630   2.248   5.563 -0.2530 -0.2480 -1.0230
15720TIP3    H268576   4.704   2.116   5.554 -0.2070 -0.5717  2.5000
15721TIP3   OH268577   6.507   0.286  17.169  0.0825 -0.1352 -0.1710
15721TIP3    H168578   6.436   0.228  17.198  0.0043 -0.4932 -1.0523
15721TIP3    H268579   6.558   0.232  17.109 -0.4005  0.9235 -1.5663
15722TIP3   OH268580   3.170   6.213  12.283 -0.0804  0.7662 -0.7000
15722TIP3    H168581   3.141   6.146  12.221 -0.9600  0.9758 -0.5412
15722TIP3    H268582   3.161   6.296  12.235  0.9700  0.7754 -0.8856
15723TIP3   OH268583   6.418   5.514  12.573  0.5442 -0.3145 -0.0839
15723TIP3    H168584   6.354   5.447  12.552 -0.5522  0.8616 -0.6404
15723TIP3    H268585   6.425   5.567  12.493  0.4882  0.9248  0.6991
15724TIP3   OH268586   5.903   0.079   3.672 -0.3368 -0.0315 -0.1571
15724TIP3    H168587   5.887   0.168   3.641 -1.1974 -0.3727 -0.7491
15724TIP3    H268588   5.866   0.023   3.603 -0.5225 -0.8336  0.5745
15725TIP3   OH268589   2.625   3.900  16.209  0.2480 -0.1850  0.3064
15725TIP3    H168590   2.587   3.951  16.281 -1.9836 -0.2083 -0.7692
15725TIP3    H268591   2.687   3.960  16.167  1.4447 -0.1082  2.0630
15726TIP3   OH268592   4.009   2.247   3.004  0.1343 -0.4603  0.2983
15726TIP3    H168593   4.045   2.169   2.962 -1.9142 -1.5493  0.4396
15726TIP3    H268594   3.919   2.253   2.970  0.1308  1.6458  0.5541
15727TIP3   OH268595   5.675   0.055   1.074 -0.2492 -0.1955 -0.2040
15727TIP3    H168596   5.586   0.022   1.084 -0.1830 -0.5798 -0.8178
15727TIP3    H268597   5.716  -0.005   1.012 -0.3434  1.4139 -1.9394
15728TIP3   OH268598   2.169   0.636   6.571 -0.6892  0.5954 -0.0713
15728TIP3    H168599   2.226   0.604   6.501 -1.5238  0.2398 -0.6089
15728TIP3    H268600   2.114   0.561   6.594 -1.9967  1.3360 -0.6584
15729TIP3   OH268601   5.046   1.141  16.507  0.4736  0.4109  0.2811
15729TIP3    H168602   5.091   1.060  16.531 -1.6448 -0.4581  1.5876
15729TIP3    H268603   4.956   1.115  16.488 -0.2971  2.4533  0.8064
15730TIP3   OH268604   5.129   4.399   3.010 -0.6996 -0.0020  0.2421
15730TIP3    H168605   5.187   4.470   2.985 -0.2754  0.0112  1.2168
15730TIP3    H268606   5.187   4.325   3.029 -1.0698 -0.3151  0.1733
15731TIP3   OH268607   3.748   3.257  15.591 -0.0276 -0.4103 -0.1769
15731TIP3    H168608   3.821   3.212  15.633 -0.8073 -1.6873 -0.1268
15731TIP3    H268609   3.785   3.294  15.511  0.9322  0.0241  0.4471
15732TIP3   OH268610   3.121   5.292  11.142  0.3160 -0.8697  0.1190
15732TIP3    H168611   3.087   5.207  11.116 -1.3440 -0.2642  0.1802
15732TIP3    H268612   3.178   5.318  11.069  0.3073 -1.7158 -0.2044
15733TIP3   OH268613   3.073   3.910   1.890  0.1936 -0.4786  0.2935
15733TIP3    H168614   3.123   3.828   1.896  1.5084  0.1967 -0.9201
15733TIP3    H268615   3.130   3.969   1.840 -1.1691  0.8501  0.2559
15734TIP3   OH268616   2.973   4.888  11.840 -0.0999 -0.3194 -0.3702
15734TIP3    H168617   2.990   4.862  11.749  0.3066 -0.6465 -0.2051
15734TIP3    H268618   2.883   4.863  11.856 -0.2715  0.0195 -0.7788
15735TIP3   OH268619   4.264   5.124  17.209  0.2662 -0.6950 -0.4602
15735TIP3    H168620   4.191   5.166  17.254  1.1163  1.9335 -1.3607
15735TIP3    H268621   4.225   5.086  17.131  0.0017  2.3857 -1.9738
15736TIP3   OH268622   1.635   4.304  10.992 -0.1376 -0.0130 -0.0011
15736TIP3    H168623   1.618   4.391  10.956  0.0967 -0.5292 -1.4203
15736TIP3    H268624   1.660   4.251  10.916 -0.0794 -1.2703  0.8670
15737TIP3   OH268625   0.537   5.348   0.480  0.1330 -0.3259 -0.8686
15737TIP3    H168626   0.597   5.375   0.411 -0.3562 -0.4004 -1.3303
15737TIP3    H268627   0.479   5.422   0.493 -0.6634 -0.8225 -1.5290
15738TIP3   OH268628   4.044   2.081   0.898 -0.6736  0.2973  0.1897
15738TIP3    H168629   4.070   2.172   0.913 -1.6604  0.7466 -0.7800
15738TIP3    H268630   3.955   2.085   0.865 -0.9125 -1.0605  0.5740
15739TIP3   OH268631   1.226   1.888  11.932  0.1809 -0.3855  0.5664
15739TIP3    H168632   1.160   1.818  11.927  1.4051 -1.6120  0.9184
15739TIP3    H268633   1.209   1.942  11.855 -2.5402  0.5940  1.7067
15740TIP3   OH268634   4.344   2.583   4.662 -0.1222  0.7795 -0.2335
15740TIP3    H168635   4.263   2.633   4.655 -1.1244 -0.6339  0.6885
15740TIP3    H268636   4.388   2.595   4.578  0.3436  4.2169  0.3830
15741TIP3   OH268637   1.057   5.723   3.969 -0.3810  0.0584 -0.0283
15741TIP3    H168638   1.096   5.739   4.055 -0.0638 -0.7613 -0.0096
15741TIP3    H268639   1.089   5.795   3.914  1.8080 -0.9740 -0.2066
15742TIP3   OH268640   0.043   0.527  14.350  0.8657  0.3466  0.0978
15742TIP3    H168641   0.019   0.474  14.426 -1.7598  0.9431 -0.2110
15742TIP3    H268642   0.054   0.463  14.279  0.2838  0.0043  0.3053
15743TIP3   OH268643   6.111   1.262  11.953 -0.2787 -0.1186  0.4664
15743TIP3    H168644   6.050   1.194  11.979 -2.0230  0.7292 -1.1699
15743TIP3    H268645   6.118   1.254  11.858 -0.9679  2.2538  0.1304
15744TIP3   OH268646   0.057   5.209   2.440  0.6937  0.0414 -0.0892
15744TIP3    H168647   0.149   5.215   2.467  0.7586  1.3875 -0.5142
15744TIP3    H268648   0.051   5.125   2.394  1.4645 -0.5294  0.8135
15745TIP3   OH268649   1.784   2.039   3.888 -0.0672 -0.3106 -0.0573
15745TIP3    H168650   1.768   2.064   3.798 -0.5693 -1.0797 -0.1956
15745TIP3    H268651   1.701   2.055   3.933 -0.6909 -2.4167 -0.3325
15746TIP3   OH268652   2.934   1.138   3.780 -0.1115 -0.3365  0.0274
15746TIP3    H168653   2.854   1.093   3.809 -0.9877  1.2822  0.2153
15746TIP3    H268654   2.985   1.069   3.737 -1.8514 -1.3053 -0.6037
15747TIP3   OH268655   0.298   3.984  14.146  0.3847  0.6141  0.3624
15747TIP3    H168656   0.384   4.027  14.156  0.6154 -0.2771  3.1100
15747TIP3    H268657   0.318   3.891  14.137 -0.2845  0.4214  0.7904
15748TIP3   OH268658   4.039   2.587   3.109  0.2676  0.7517 -0.9220
15748TIP3    H168659   4.043   2.492   3.101  1.5590  0.3343  2.7732
15748TIP3    H268660   4.112   2.619   3.056  3.3253 -0.8953  1.9077
15749TIP3   OH268661   4.506   3.698   2.007  0.1026 -0.5250  0.3861
15749TIP3    H168662   4.429   3.753   1.991  0.5120  0.4272  1.5876
15749TIP3    H268663   4.573   3.758   2.040  1.0946 -1.4851  0.1922
15750TIP3   OH268664   5.160   2.709  12.248 -0.2122  0.0662  0.0601
15750TIP3    H168665   5.220   2.712  12.174 -0.8584  2.4623 -0.4545
15750TIP3    H268666   5.145   2.616  12.264  2.2242 -0.5404 -0.9094
15751TIP3   OH268667   5.920   4.084  10.873  0.0925 -1.0655 -0.1183
15751TIP3    H168668   5.989   4.122  10.928 -0.1055  0.7780 -1.0607
15751TIP3    H268669   5.956   4.086  10.784 -0.8860 -0.7435 -0.5230
15752TIP3   OH268670   4.923   6.710   0.808  0.4392 -0.2953  0.9096
15752TIP3    H168671   4.836   6.669   0.818  0.7196 -0.8734  1.0195
15752TIP3    H268672   4.958   6.714   0.896  0.6667 -0.3772  0.8225
15753TIP3   OH268673   2.300   2.547  13.322  0.0240  0.2259 -0.2223
15753TIP3    H168674   2.385   2.547  13.278 -0.7422 -0.3225 -1.7641
15753TIP3    H268675   2.244   2.495  13.266 -1.5810  1.3068  0.3077
15754TIP3   OH268676   5.000   3.749  15.815 -0.6252  0.3733 -0.0594
15754TIP3    H168677   4.975   3.817  15.877  0.2564  0.6584 -0.0023
15754TIP3    H268678   5.031   3.677  15.869  1.6286  1.2028 -0.1491
15755TIP3   OH268679   2.909   3.225  12.797 -1.0339  0.0125 -0.2091
15755TIP3    H168680   3.001   3.230  12.774 -0.7535  3.2268  1.0699
15755TIP3    H268681   2.863   3.223  12.713  0.1304  0.0085 -0.8716
15756TIP3   OH268682   6.405   3.462   5.396 -0.0167 -0.1277 -0.5761
15756TIP3    H168683   6.393   3.554   5.416 -0.3289 -0.3649  0.3902
15756TIP3    H268684   6.317   3.430   5.375  0.3419  0.1971 -2.8476
15757TIP3   OH268685   2.231   6.275  13.811 -0.1302 -0.2764 -0.3137
15757TIP3    H168686   2.215   6.289  13.904  0.9960 -1.2529  0.0556
15757TIP3    H268687   2.211   6.359  13.770 -0.6591  0.1601  0.8044
15758TIP3   OH268688   1.474   4.090  16.683  0.6434 -0.4261 -0.0212
15758TIP3    H168689   1.386   4.104  16.718  0.0474 -3.3934 -0.0844
15758TIP3    H268690   1.464   4.107  16.589  0.1400 -0.7156 -0.0255
15759TIP3   OH268691   4.829   3.078  11.874 -0.1225  0.2194  0.3382
15759TIP3    H168692   4.867   3.127  11.801 -1.7713  0.3084 -0.5135
15759TIP3    H268693   4.810   3.145  11.941  0.7561  0.2333  0.5852
15760TIP3   OH268694   5.693   6.128  12.028 -0.0699 -0.2651 -0.0560
15760TIP3    H168695   5.687   6.150  12.121  0.9257  0.1632 -0.0805
15760TIP3    H268696   5.635   6.053  12.017 -1.8182  0.9324  0.4956
15761TIP3   OH268697   4.840   5.713  15.536 -0.2641 -0.1649 -0.1994
15761TIP3    H168698   4.868   5.661  15.611 -3.3225 -1.5504  0.1059
15761TIP3    H268699   4.887   5.675  15.462  2.2699  0.7890  0.7754
15762TIP3   OH268700   5.583   6.354   6.287  0.3742  0.1325  0.3965
15762TIP3    H168701   5.580   6.288   6.357  1.1731 -0.2477  0.0843
15762TIP3    H268702   5.494   6.388   6.282 -0.0279 -0.8585  0.6266
15763TIP3   OH268703   0.332   5.485  15.315 -0.5501 -0.1347  0.5301
15763TIP3    H168704   0.395   5.480  15.387  0.2248  0.3613 -0.0977
15763TIP3    H268705   0.343   5.403  15.268  0.5101  0.4549 -0.2837
15764TIP3   OH268706   5.239   3.120   5.725  0.3351 -0.2682 -0.4499
15764TIP3    H168707   5.164   3.164   5.686 -0.5995 -1.0393  0.4347
15764TIP3    H268708   5.245   3.036   5.679  0.0691 -0.6023  0.1150
15765TIP3   OH268709   0.777   0.809  16.023  0.4811 -0.2135  0.3357
15765TIP3    H168710   0.720   0.764  15.960 -0.0405  0.2929  0.4387
15765TIP3    H268711   0.862   0.767  16.012  0.2567 -0.5197 -0.3063
15766TIP3   OH268712   2.317   5.227  16.455  0.1020 -0.4511  0.8586
15766TIP3    H168713   2.412   5.216  16.459 -0.0952 -2.8653  0.4435
15766TIP3    H268714   2.305   5.319  16.431  2.4216 -0.7733 -2.2276
15767TIP3   OH268715   0.250   2.526   1.305 -0.5474 -0.2324  0.0461
15767TIP3    H168716   0.282   2.613   1.281 -0.4259 -0.3145 -0.0936
15767TIP3    H268717   0.268   2.472   1.228 -1.1757 -0.2406 -0.1003
15768TIP3   OH268718   1.218   1.000  10.526  0.1597 -0.0932  0.1473
15768TIP3    H168719   1.250   0.925  10.475  0.4570 -0.8813  1.4367
15768TIP3    H268720   1.130   1.016  10.492  0.2470 -0.7715 -0.4268
15769TIP3   OH268721   1.169   5.533  15.677  0.5247 -0.0310  0.1286
15769TIP3    H168722   1.250   5.502  15.718  0.8525  0.1341 -0.3923
15769TIP3    H268723   1.134   5.456  15.633  0.7538  0.0614 -0.2178
15770TIP3   OH268724   5.250   3.889  12.395  0.4277 -0.1218  0.8106
15770TIP3    H168725   5.323   3.947  12.419 -0.1565 -0.1332  2.7399
15770TIP3    H268726   5.171   3.939  12.416 -0.1734 -0.1890 -1.0715
15771TIP3   OH268727   1.399   0.971   0.087 -0.1805  0.5826  0.7750
15771TIP3    H168728   1.471   0.980   0.024  0.0176  1.0447  1.0639
15771TIP3    H268729   1.322   1.002   0.040 -0.7888 -2.5750 -0.5707
15772TIP3   OH268730   1.078   2.192   2.952 -0.1315 -0.0019  0.0864
15772TIP3    H168731   0.995   2.167   2.993 -0.3741 -0.4588 -0.6711
15772TIP3    H268732   1.079   2.144   2.870  1.1177 -0.3899  0.3201
15773TIP3   OH268733   0.999   4.620  14.832  0.4660  0.0596 -0.5560
15773TIP3    H168734   1.048   4.549  14.872  0.4034  0.3733  0.1050
15773TIP3    H268735   0.998   4.689  14.899 -2.3979 -0.5987  0.2027
15774TIP3   OH268736   0.096   1.838  15.008 -0.1401 -0.2129  0.6645
15774TIP3    H168737   0.153   1.910  14.979 -0.1498 -0.8900 -1.1411
15774TIP3    H268738   0.115   1.767  14.947 -0.6845 -1.4983  1.9647
15775TIP3   OH268739   6.301   2.283   4.091  0.0955  0.2402  0.5111
15775TIP3    H168740   6.307   2.371   4.056  0.8211  0.1482  0.3932
15775TIP3    H268741   6.221   2.283   4.144 -0.6176  0.5843 -0.5519
15776TIP3   OH268742   4.847   3.507  11.569 -0.3113 -0.0739  0.5865
15776TIP3    H168743   4.817   3.536  11.656 -0.0680 -0.3095  0.7517
15776TIP3    H268744   4.934   3.545  11.560 -0.5331  0.3595  0.2351
15777TIP3   OH268745   1.187   2.234   1.482 -0.5050  0.0198 -0.1687
15777TIP3    H168746   1.135   2.221   1.403 -1.2301 -1.9426  0.5503
15777TIP3    H268747   1.124   2.224   1.554  0.3854  0.3541  0.6864
15778TIP3   OH268748   0.138   4.717   3.035 -0.0262  0.3483  0.1844
15778TIP3    H168749   0.076   4.735   3.106  0.0875  0.0798  0.3562
15778TIP3    H268750   0.220   4.697   3.081  0.2389  0.8926 -0.0459
15779TIP3   OH268751   5.720   0.356  10.563  0.5643 -0.6480  0.4947
15779TIP3    H168752   5.732   0.439  10.518  0.6914 -0.0175  1.6422
15779TIP3    H268753   5.707   0.380  10.655  0.6461 -1.8998  0.8589
15780TIP3   OH268754   5.913   1.338  16.820  0.1543 -0.2905 -0.6607
15780TIP3    H168755   5.924   1.386  16.738 -1.5756 -1.2232 -1.5058
15780TIP3    H268756   5.842   1.276  16.801  0.7264 -1.5382  1.1026
15781TIP3   OH268757   0.571   4.025  16.382  0.1113 -0.5668 -0.1215
15781TIP3    H168758   0.634   4.003  16.451 -0.1280 -0.6574  0.0689
15781TIP3    H268759   0.626   4.045  16.306  0.3521 -2.8008 -0.6223
15782TIP3   OH268760   5.869   0.726   1.885  0.6825 -0.6564 -0.1025
15782TIP3    H168761   5.798   0.665   1.864  0.5758 -0.6314  0.1848
15782TIP3    H268762   5.859   0.743   1.978  0.7496 -0.2482 -0.1675
15783TIP3   OH268763   5.472   2.676   0.507 -0.3692 -0.1949 -0.3478
15783TIP3    H168764   5.405   2.689   0.440 -0.4313 -0.0860 -0.2661
15783TIP3    H268765   5.475   2.581   0.520 -2.7204 -0.0750  1.8556
15784TIP3   OH268766   1.593   6.399   2.783  0.1002  0.3137 -0.2321
15784TIP3    H168767   1.658   6.464   2.759  0.4272 -0.4110 -1.3709
15784TIP3    H268768   1.623   6.318   2.741 -1.0173 -0.2601  0.0343
15785TIP3   OH268769   0.295   6.587  12.347  0.5212 -1.0170 -0.2840
15785TIP3    H168770   0.303   6.678  12.321 -0.7260 -0.5672  0.8117
15785TIP3    H268771   0.381   6.564  12.381  0.5219  0.1081  0.5011
15786TIP3   OH268772   5.824   3.350   0.965 -0.0621 -0.3394 -0.4334
15786TIP3    H168773   5.894   3.366   1.027  0.9537  0.2254 -1.6747
15786TIP3    H268774   5.830   3.257   0.945  0.1466 -0.3510 -0.3147
15787TIP3   OH268775   3.612   6.070  13.415  0.7546  0.0925 -0.2384
15787TIP3    H168776   3.630   6.149  13.465 -2.3522  0.8513 -0.0921
15787TIP3    H268777   3.593   6.101  13.326 -1.9167 -0.1992  0.1445
15788TIP3   OH268778   6.071   0.004  14.958 -0.2755  0.5291 -0.5118
15788TIP3    H168779   6.040  -0.014  14.869 -1.8822  1.3637 -0.1610
15788TIP3    H268780   6.023  -0.058  15.013  1.2762 -0.5102 -0.2563
15789TIP3   OH268781   2.984   3.738   1.253 -0.6105  0.2232 -0.5455
15789TIP3    H168782   3.036   3.664   1.283  0.1477  0.9947  0.0781
15789TIP3    H268783   2.897   3.724   1.293 -0.1759  0.2014  0.4295
15790TIP3   OH268784   1.241   6.014   2.878  0.3239 -0.1813  0.5560
15790TIP3    H168785   1.210   5.971   2.958 -1.4366  2.5875  1.4894
15790TIP3    H268786   1.272   6.100   2.907  0.1828  0.6782 -1.6516
15791TIP3   OH268787   4.509   5.162   1.464  0.4252  0.3904  0.3197
15791TIP3    H168788   4.506   5.212   1.546 -0.1046 -1.4862  1.4918
15791TIP3    H268789   4.561   5.217   1.405  1.4369  1.4662  2.1251
15792TIP3   OH268790   6.512   5.374   5.580 -0.3728 -0.0547 -0.2986
15792TIP3    H168791   6.419   5.354   5.564 -0.3261  1.1553 -2.5429
15792TIP3    H268792   6.552   5.288   5.594 -1.7335 -0.6543  0.1270
15793TIP3   OH268793   6.010   3.690   0.758 -0.1802 -0.0833 -0.0057
15793TIP3    H168794   5.943   3.665   0.694 -1.3381 -1.9781  1.8109
15793TIP3    H268795   5.968   3.677   0.843  0.8064  3.6689  1.2581
15794TIP3   OH268796   6.642   4.459  15.837  0.0850 -0.3968 -0.4908
15794TIP3    H168797   6.591   4.451  15.756 -0.4548  2.4722 -0.5367
15794TIP3    H268798   6.582   4.431  15.906 -1.0460  1.3751 -0.7080
15795TIP3   OH268799   2.247   0.089  15.889 -0.0431  0.1588  0.2726
15795TIP3    H168800   2.216  -0.001  15.880 -0.4361  0.3197  0.0104
15795TIP3    H268801   2.185   0.131  15.949 -0.0989  0.3666  0.0710
15796TIP3   OH268802   0.036   4.220  12.113 -0.4562  0.3132  0.1039
15796TIP3    H168803   0.127   4.217  12.143 -1.2801 -1.2788  2.7203
15796TIP3    H268804   0.023   4.311  12.086  1.9316  0.5458 -0.5352
15797TIP3   OH268805   3.170   4.960   3.605 -0.4928  0.0871 -0.0170
15797TIP3    H168806   3.168   4.877   3.653 -0.1468  1.1700  2.0049
15797TIP3    H268807   3.082   4.995   3.616  0.1549  1.2955  1.6928
15798TIP3   OH268808   3.014   4.189   1.546 -0.2065 -0.4615  0.4912
15798TIP3    H168809   3.106   4.200   1.521  0.3892  1.0998  3.0217
15798TIP3    H268810   2.966   4.252   1.492  0.0756 -1.6704 -1.2424
15799TIP3   OH268811   0.398   0.829   4.929 -0.4952 -0.0727  0.0199
15799TIP3    H168812   0.389   0.865   5.018  2.4743  0.7081  0.1173
15799TIP3    H268813   0.399   0.906   4.872 -1.1876 -0.4968 -0.5779
15800TIP3   OH268814   5.080   4.282  12.623  0.3239 -0.2111  0.3340
15800TIP3    H168815   4.990   4.307  12.644 -0.4070 -2.3014 -0.1617
15800TIP3    H268816   5.125   4.282  12.708  0.5810  3.1874  0.3511
15801TIP3   OH268817   2.092   3.861  11.126 -0.0516  0.4040 -0.1728
15801TIP3    H168818   2.109   3.872  11.219 -0.9507 -1.0323  0.1915
15801TIP3    H268819   2.164   3.808  11.094 -0.6114 -0.5291  0.0797
15802TIP3   OH268820   1.700   2.109   5.396  0.2774 -0.6021  0.2886
15802TIP3    H168821   1.776   2.166   5.392  0.1269 -0.3771  0.6605
15802TIP3    H268822   1.736   2.021   5.404  0.4956 -0.4929  0.4983
15803TIP3   OH268823   1.974   2.816  15.788  0.6344 -0.2032 -0.0140
15803TIP3    H168824   2.044   2.752  15.799  1.4044  0.3825 -1.2413
15803TIP3    H268825   1.966   2.858  15.873  0.1456 -1.8516  0.8138
15804TIP3   OH268826   1.956   4.889   1.713 -0.1431 -0.0233 -0.2126
15804TIP3    H168827   1.910   4.920   1.634  1.9168  2.0561 -0.6980
15804TIP3    H268828   1.964   4.966   1.768  1.0245 -0.7793  0.7331
15805TIP3   OH268829   1.769   3.054   3.565  0.2445 -0.0103 -0.8219
15805TIP3    H168830   1.708   3.116   3.524  0.6369 -0.0825 -1.5421
15805TIP3    H268831   1.768   2.978   3.506  0.2458 -0.4285 -0.2833
15806TIP3   OH268832   3.698   4.731  13.775  0.1357 -0.4065 -0.1561
15806TIP3    H168833   3.756   4.686  13.836  0.6401  0.7577  0.2536
15806TIP3    H268834   3.750   4.805  13.742 -0.8785  0.2672 -0.2922
15807TIP3   OH268835   3.789   1.573  12.697  0.6267  0.1703  0.7491
15807TIP3    H168836   3.832   1.658  12.689  1.5175 -0.2701  0.8006
15807TIP3    H268837   3.858   1.513  12.723  0.2160 -0.7787 -0.2541
15808TIP3   OH268838   5.449   0.897  14.545  0.7900  0.1263  0.6171
15808TIP3    H168839   5.463   0.823  14.486 -1.3599 -0.8225  1.2150
15808TIP3    H268840   5.407   0.964  14.491  0.9254  0.1475  0.5380
15809TIP3   OH268841   2.605   6.223  13.694 -0.4845 -0.1715 -0.1887
15809TIP3    H168842   2.530   6.265  13.651  0.4447 -0.8147 -2.5801
15809TIP3    H268843   2.658   6.189  13.622  1.1001 -1.4918  1.5142
15810TIP3   OH268844   0.287   6.362   2.468  0.1209  0.0610  0.3370
15810TIP3    H168845   0.305   6.268   2.466  3.5548  0.5793 -0.4224
15810TIP3    H268846   0.294   6.390   2.377 -3.2229  0.8243  0.1835
15811TIP3   OH268847   6.680   0.584   2.497 -0.1780  0.6862  0.1071
15811TIP3    H168848   6.704   0.597   2.405  0.6150 -1.9304 -0.1302
15811TIP3    H268849   6.585   0.575   2.496 -0.0843 -0.3825 -0.6377
15812TIP3   OH268850   1.971   6.153  16.029 -0.1521 -0.2394  0.6033
15812TIP3    H168851   2.042   6.119  16.083 -1.0425 -0.9326  1.3794
15812TIP3    H268852   1.983   6.111  15.944  0.1153 -0.6982  0.8616
15813TIP3   OH268853   3.875   0.815   0.115  0.1910  0.2949 -0.8010
15813TIP3    H168854   3.937   0.858   0.175  0.0180  1.4550 -1.4232
15813TIP3    H268855   3.853   0.883   0.051 -2.1744  0.1289 -0.2745
15814TIP3   OH268856   2.582   3.080   0.477 -0.0901 -0.4024 -0.7196
15814TIP3    H168857   2.613   3.142   0.543  0.6577 -1.8401  0.3343
15814TIP3    H268858   2.499   3.046   0.512 -0.4099 -0.1283 -1.2057
15815TIP3   OH268859   1.693   3.964  13.647  0.0108 -0.2050 -0.4366
15815TIP3    H168860   1.728   4.053  13.638 -0.0593 -0.1712 -0.3704
15815TIP3    H268861   1.771   3.908  13.645  0.2152 -0.0242  1.3625
15816TIP3   OH268862   5.500   5.341  16.162  0.0402  0.0930  0.4350
15816TIP3    H168863   5.587   5.378  16.146  0.4366 -0.9023  0.1941
15816TIP3    H268864   5.510   5.247  16.143 -1.7703  0.3478 -2.5378
15817TIP3   OH268865   1.403   1.373   5.700  0.4195  0.0710  0.2950
15817TIP3    H168866   1.348   1.440   5.660  1.7946 -0.1311 -2.1455
15817TIP3    H268867   1.490   1.414   5.705  0.8017 -0.7802  0.8426
15818TIP3   OH268868   5.459   2.408  15.636  0.3376  0.1750  0.0471
15818TIP3    H168869   5.423   2.469  15.572  0.8435  0.6662  0.2318
15818TIP3    H268870   5.506   2.343  15.584 -0.3808 -0.1887 -0.1627
15819TIP3   OH268871   6.212   3.958  12.454 -0.5603  0.1914  0.1388
15819TIP3    H168872   6.173   4.045  12.460 -1.7926 -0.2121 -1.3823
15819TIP3    H268873   6.269   3.962  12.377 -1.0189 -0.4652 -0.2520
15820TIP3   OH268874   0.537   4.813   2.157 -0.4300 -0.2120  0.7314
15820TIP3    H168875   0.559   4.735   2.208 -1.7706 -0.7243  0.5764
15820TIP3    H268876   0.520   4.880   2.222 -0.8213 -0.4953  0.9254
15821TIP3   OH268877   1.620   1.592  16.192  0.1321 -0.0084  0.5289
15821TIP3    H168878   1.642   1.674  16.237  1.4883  0.9711 -1.7175
15821TIP3    H268879   1.551   1.616  16.131  1.6551 -0.0967 -1.2968
15822TIP3   OH268880   1.316   2.574   3.442  0.2346  0.0806 -0.1192
15822TIP3    H168881   1.250   2.536   3.383 -0.4573 -1.5193  1.5974
15822TIP3    H268882   1.399   2.541   3.408 -0.2975 -2.6431  0.9394
15823TIP3   OH268883   0.126   2.117  13.400 -0.7688  0.3388 -0.1694
15823TIP3    H168884   0.124   2.185  13.332 -1.8866  1.2382  0.7212
15823TIP3    H268885   0.062   2.052  13.372 -1.6874  1.0193  0.3125
15824TIP3   OH268886   4.906   4.838  16.440  0.2280  0.2453 -0.3471
15824TIP3    H168887   4.998   4.818  16.458  0.1371  0.6002  0.5857
15824TIP3    H268888   4.878   4.771  16.378  1.6672  1.3379 -2.2630
15825TIP3   OH268889   5.476   1.028   1.869  0.1823  0.0490 -0.3064
15825TIP3    H168890   5.470   1.119   1.841 -0.0754  0.6464  1.5442
15825TIP3    H268891   5.569   1.007   1.865  0.3784  0.7636  0.3063
15826TIP3   OH268892   0.737   2.583   0.998  0.6259  0.1236 -0.6042
15826TIP3    H168893   0.822   2.540   0.994  1.4010  1.5519 -0.1393
15826TIP3    H268894   0.715   2.602   0.907  1.5573  1.1079 -0.6500
15827TIP3   OH268895   0.542   2.542  11.743 -0.0404 -0.0756 -0.9896
15827TIP3    H168896   0.525   2.612  11.680 -0.7676  0.1656 -0.5420
15827TIP3    H268897   0.545   2.587  11.828 -4.0432 -0.9101 -0.2081
15828TIP3   OH268898   6.141   3.578  13.231  0.2857  0.5943 -0.7330
15828TIP3    H168899   6.095   3.625  13.162 -3.2257 -0.2119  0.8318
15828TIP3    H268900   6.160   3.492  13.193 -1.2569  0.2923 -0.8964
15829TIP3   OH268901   2.231   0.290  17.071  0.2524  0.0375  0.0915
15829TIP3    H168902   2.184   0.358  17.023  1.5192 -0.3307 -1.7979
15829TIP3    H268903   2.312   0.332  17.099 -0.3992  0.1940  1.8428
15830TIP3   OH268904   2.782   4.198  15.281  0.4267  0.0397 -0.4387
15830TIP3    H168905   2.855   4.162  15.331 -0.9658 -1.9180  0.3058
15830TIP3    H268906   2.733   4.122  15.250 -0.4556  1.2534 -2.2630
15831TIP3   OH268907   5.390   2.556   5.314 -0.1856 -0.2178  0.2688
15831TIP3    H168908   5.447   2.632   5.322  1.3271 -1.0515 -1.5917
15831TIP3    H268909   5.310   2.590   5.274 -0.5448  0.7618  1.7562
15832TIP3   OH268910   5.324   1.247  16.169 -0.4185 -0.0340 -0.3708
15832TIP3    H168911   5.347   1.215  16.257 -0.3048  0.5333 -0.1908
15832TIP3    H268912   5.251   1.192  16.142  0.5890 -1.3066 -0.6019
15833TIP3   OH268913   2.006   2.826   1.555  0.0239 -0.0384  0.4047
15833TIP3    H168914   2.092   2.839   1.596 -0.1426  0.9209  0.4774
15833TIP3    H268915   2.017   2.858   1.466  0.1299 -1.2761 -0.0511
15834TIP3   OH268916   6.254   2.570   4.027  0.0278 -0.5163  0.1026
15834TIP3    H168917   6.213   2.656   4.021  2.9810  0.9278 -0.7411
15834TIP3    H268918   6.235   2.529   3.942  0.8329  0.3744 -0.5130
15835TIP3   OH268919   5.655   4.548  15.441  0.1101  0.7092  0.3443
15835TIP3    H168920   5.606   4.548  15.358  1.2747  1.0918 -0.3593
15835TIP3    H268921   5.677   4.640  15.456 -1.6354  0.9336  2.0613
15836TIP3   OH268922   6.113   1.974   0.512 -0.2443 -0.1433  0.1346
15836TIP3    H168923   6.161   1.998   0.432 -1.6133 -0.4150 -0.7947
15836TIP3    H268924   6.054   2.048   0.527  0.2901  0.1080  1.1805
15837TIP3   OH268925   2.691   4.988   6.615  0.2941 -0.2417 -0.3201
15837TIP3    H168926   2.610   4.940   6.602 -0.9064  1.3097  0.9615
15837TIP3    H268927   2.703   4.990   6.710  1.4062  0.2195 -0.4576
15838TIP3   OH268928   4.699   5.958   6.630  0.3004 -0.1338  0.4197
15838TIP3    H168929   4.730   6.040   6.591  0.9702 -0.7444 -0.3791
15838TIP3    H268930   4.775   5.924   6.678 -0.0042 -0.2326  0.8340
15839TIP3   OH268931   1.951   3.847  11.812  0.3713 -0.3432 -0.4492
15839TIP3    H168932   2.003   3.802  11.879  1.0951  0.7287 -0.2622
15839TIP3    H268933   1.977   3.805  11.730  0.2633 -0.9559 -0.1791
15840TIP3   OH268934   2.891   4.371  15.931 -0.0669 -0.1570  0.6484
15840TIP3    H168935   2.848   4.294  15.895  1.0499 -0.6611  0.3397
15840TIP3    H268936   2.979   4.369  15.893  0.4836  0.4104  1.8403
15841TIP3   OH268937   2.249   5.316  12.763  0.4081  0.1903 -0.9321
15841TIP3    H168938   2.195   5.270  12.699 -0.0745 -0.7802  0.1516
15841TIP3    H268939   2.190   5.379  12.804  0.8514  1.2027 -1.7815
15842TIP3   OH268940   2.270   5.454  14.562 -0.5518  0.5133 -0.1571
15842TIP3    H168941   2.241   5.372  14.521 -0.6809  0.6971 -0.4279
15842TIP3    H268942   2.315   5.425  14.642  0.4945  0.1107 -0.8822
15843TIP3   OH268943   2.590   0.847  15.431  0.3425 -0.2828  0.1441
15843TIP3    H168944   2.518   0.894  15.389  0.0034  0.2710  1.3039
15843TIP3    H268945   2.562   0.755  15.429 -0.3035 -0.0993  0.3999
15844TIP3   OH268946   3.608   3.612   1.536 -0.2659 -0.4712  0.2270
15844TIP3    H168947   3.572   3.547   1.476  1.9978 -0.9054 -0.7605
15844TIP3    H268948   3.689   3.573   1.569 -0.8721  0.2345  2.7534
15845TIP3   OH268949   5.163   3.474  17.151  0.1294  0.5844 -0.1298
15845TIP3    H168950   5.230   3.532  17.114  0.7452  1.0232  1.5549
15845TIP3    H268951   5.169   3.489  17.245 -2.7677  1.1003  0.0711
15846TIP3   OH268952   4.566   5.535  13.077 -0.6044 -0.0147 -0.6582
15846TIP3    H168953   4.517   5.457  13.050 -0.1726  0.0521 -1.6756
15846TIP3    H268954   4.523   5.564  13.157 -0.4131 -1.6380  0.0713
15847TIP3   OH268955   6.569   6.716   2.823 -0.3804 -0.5819  0.2588
15847TIP3    H168956   6.630   6.737   2.894  0.0249  0.8237 -0.4704
15847TIP3    H268957   6.625   6.690   2.750 -0.6422  0.5912 -0.3751
15848TIP3   OH268958   6.767   6.297  11.853  0.1942  0.2764 -0.1253
15848TIP3    H168959   6.783   6.392  11.857  0.0645  0.2790  0.3987
15848TIP3    H268960   6.814   6.268  11.775 -2.0907  1.2369 -1.9880
15849TIP3   OH268961   3.183   5.325   0.228 -0.6902  0.1899  0.4857
15849TIP3    H168962   3.208   5.244   0.271 -0.2003  0.8960  1.5942
15849TIP3    H268963   3.252   5.340   0.163  0.8827  1.1619  2.2573
15850TIP3   OH268964   0.028   6.107   3.772 -0.7293  0.5719 -0.2300
15850TIP3    H168965  -0.059   6.098   3.733 -0.3699 -0.1394 -0.9034
15850TIP3    H268966   0.052   6.199   3.757 -2.5533  1.6364  2.6017
15851TIP3   OH268967   4.828   4.866   0.119  0.4235 -0.1223  0.6628
15851TIP3    H168968   4.742   4.827   0.105  1.0399 -1.0970 -0.5113
15851TIP3    H268969   4.876   4.800   0.169 -0.1011  1.2432  3.1953
15852TIP3   OH268970   4.439   5.397   4.336 -0.5281  0.5897  0.0745
15852TIP3    H168971   4.440   5.492   4.335 -1.4571  0.6118 -1.5957
15852TIP3    H268972   4.441   5.374   4.429  0.6386  2.2002  0.4926
15853TIP3   OH268973   4.353   2.165   1.940 -0.0969 -0.1040 -0.0546
15853TIP3    H168974   4.301   2.245   1.932  0.5671  0.4168  0.6440
15853TIP3    H268975   4.329   2.129   2.026 -1.7925 -1.7079 -1.1172
15854TIP3   OH268976   0.004   1.462   4.011 -0.5630  0.2277 -0.6007
15854TIP3    H168977  -0.075   1.409   4.019 -1.6028  1.6351 -0.9434
15854TIP3    H268978  -0.029   1.552   4.000  1.0460  0.7328 -1.8054
15855TIP3   OH268979   6.019   1.206  16.523 -0.0273 -0.0344  0.0906
15855TIP3    H168980   5.956   1.135  16.538 -0.0919  0.0798  0.3720
15855TIP3    H268981   6.040   1.201  16.429  1.1223 -1.3805  0.3892
15856TIP3   OH268982   0.248   0.397  16.844 -0.3909  0.5257  0.1961
15856TIP3    H168983   0.175   0.376  16.786  0.5107  0.3779 -0.9309
15856TIP3    H268984   0.294   0.314  16.856 -0.5014  0.5776  1.0534
15857TIP3   OH268985   4.435   4.141  12.743 -0.0953 -0.0991 -0.3083
15857TIP3    H168986   4.358   4.085  12.732 -1.9876  1.6812  2.4221
15857TIP3    H268987   4.398   4.229  12.755  2.3801  0.8829  0.7412
15858TIP3   OH268988   0.263   2.332  15.187  0.6786 -0.1528  0.9849
15858TIP3    H168989   0.287   2.333  15.094 -0.2402  2.7220  0.7003
15858TIP3    H268990   0.171   2.305  15.187  0.6647 -0.1013  1.0822
15859TIP3   OH268991   5.194   1.299   3.646 -0.2061 -0.3073 -0.1522
15859TIP3    H168992   5.289   1.305   3.640 -0.0094 -1.1182  1.3616
15859TIP3    H268993   5.179   1.211   3.680 -1.3517  0.5466  1.7046
15860TIP3   OH268994   6.229   3.601   1.895  0.3896  0.4894  0.4498
15860TIP3    H168995   6.209   3.667   1.961  0.1190 -0.6824  1.5758
15860TIP3    H268996   6.154   3.604   1.835  1.2353  2.4434 -0.5753
15861TIP3   OH268997   0.818   5.444  17.202  0.4844 -0.0783  0.7693
15861TIP3    H168998   0.818   5.505  17.276  3.9797  1.5731 -0.3731
15861TIP3    H268999   0.779   5.494  17.130 -1.0417 -0.9717  0.9308
15862TIP3   OH269000   1.418   3.987   0.687  0.1118 -0.8305  0.7652
15862TIP3    H169001   1.461   4.034   0.758  0.8335 -0.9769  0.4334
15862TIP3    H269002   1.373   4.054   0.637  1.4074 -0.4314  0.1036
15863TIP3   OH269003   5.253   3.490  12.823 -0.0989 -0.3621  0.5677
15863TIP3    H169004   5.220   3.487  12.913  0.9121  0.3774  0.9810
15863TIP3    H269005   5.344   3.462  12.829  0.6540  1.7953  0.1369
15864TIP3   OH269006   1.591   2.666   2.371 -0.2911 -0.0765 -0.0137
15864TIP3    H169007   1.676   2.658   2.327 -0.0972 -1.7438  0.6244
15864TIP3    H269008   1.592   2.755   2.407  1.2035 -0.0780  0.0299
15865TIP3   OH269009   2.774   6.058  14.134 -0.0570 -0.0077  0.1110
15865TIP3    H169010   2.709   6.015  14.191 -0.9921  0.9884 -0.1660
15865TIP3    H269011   2.755   6.152  14.143  2.0842  0.4117  0.8987
15866TIP3   OH269012   4.079   3.098   4.208  0.3497 -0.6461 -0.0862
15866TIP3    H169013   4.150   3.147   4.249 -0.6312 -0.1080  1.0365
15866TIP3    H269014   4.080   3.014   4.253 -0.8251 -0.0007  1.2152
15867TIP3   OH269015   5.196   6.641   0.592  0.2436  0.3400  0.4029
15867TIP3    H169016   5.113   6.681   0.619 -0.7820 -0.4680 -1.3382
15867TIP3    H269017   5.176   6.599   0.508  1.8465 -1.7960  0.9886
15868TIP3   OH269018   1.825   4.565  15.222  0.2394  0.2789  0.1663
15868TIP3    H169019   1.852   4.647  15.180 -0.0941  1.0548  1.4270
15868TIP3    H269020   1.866   4.497  15.169  1.7644  1.3007 -0.0329
15869TIP3   OH269021   1.356   4.121  12.346 -0.0763  0.3396  0.2911
15869TIP3    H169022   1.433   4.064  12.344  1.4539  2.1402  2.4728
15869TIP3    H269023   1.378   4.193  12.287  0.0401  0.9350  1.0349
15870TIP3   OH269024   5.062   6.327  15.445 -0.2372 -0.4512  0.5192
15870TIP3    H169025   5.103   6.409  15.474  0.1669  0.3584 -2.0726
15870TIP3    H269026   4.969   6.349  15.439  0.1652  1.0626 -3.3335
15871TIP3   OH269027   1.841   3.987  12.645 -0.3612  0.2183 -0.8099
15871TIP3    H169028   1.763   4.035  12.671 -0.3730  0.8790 -1.9809
15871TIP3    H269029   1.899   4.053  12.607  0.4516 -0.3874 -0.6542
15872TIP3   OH269030   0.536   5.513   0.044  0.7384 -0.4727 -0.0926
15872TIP3    H169031   0.573   5.428   0.019  0.3444 -0.3267 -1.2220
15872TIP3    H269032   0.446   5.493   0.070 -0.0016 -0.2039 -2.2044
15873TIP3   OH269033   4.703   4.350  13.204 -0.3314  0.7804 -0.0859
15873TIP3    H169034   4.646   4.297  13.259  0.0358  2.6508  2.2669
15873TIP3    H269035   4.784   4.300  13.197  0.1264  1.0726  2.3431
15874TIP3   OH269036   3.515   4.600  13.063 -0.7035 -0.4525 -0.1101
15874TIP3    H169037   3.475   4.628  12.981  0.5889 -0.8674 -0.9075
15874TIP3    H269038   3.559   4.678  13.096  0.9514 -0.9074 -1.1552
15875TIP3   OH269039   6.710   4.416  15.545 -0.7570 -0.3547  0.2930
15875TIP3    H169040   6.746   4.452  15.464 -2.0081 -0.6036 -0.4046
15875TIP3    H269041   6.708   4.322  15.531 -2.2565 -0.3147  0.0255
15876TIP3   OH269042   3.393   1.404  11.593  0.4783 -0.8851 -0.0086
15876TIP3    H169043   3.466   1.433  11.648  1.4485 -1.2495 -1.0621
15876TIP3    H269044   3.420   1.426  11.504 -0.9841 -0.4624 -0.3761
15877TIP3   OH269045   3.773   5.426  13.363 -0.0938  0.3024 -0.7586
15877TIP3    H169046   3.734   5.381  13.438  0.5468  2.7471  1.1754
15877TIP3    H269047   3.850   5.374  13.340  0.1207 -0.0993  0.8041
15878TIP3   OH269048   3.108   3.108  14.072 -0.8558 -0.6843  0.0123
15878TIP3    H169049   3.040   3.043  14.054 -1.9683  0.3992  0.1125
15878TIP3    H269050   3.130   3.094  14.164 -1.1344 -0.8915  0.0491
15879TIP3   OH269051   0.599   0.846  17.229  0.5986 -0.3520 -0.3301
15879TIP3    H169052   0.562   0.764  17.195  1.1207 -0.5510 -0.4306
15879TIP3    H269053   0.676   0.862  17.174 -0.3309  1.0022 -1.2814
15880TIP3   OH269054   1.142   4.125  12.504  0.0020 -0.0614  0.0219
15880TIP3    H169055   1.106   4.201  12.458 -1.0690  0.5539  1.7651
15880TIP3    H269056   1.225   4.108  12.461 -0.8265  0.6060 -1.9613
15881TIP3   OH269057   3.173   4.343  12.642 -0.1794  0.0422 -0.3842
15881TIP3    H169058   3.132   4.314  12.723  0.5584  1.0226  0.3733
15881TIP3    H269059   3.122   4.420  12.616  1.4990  1.7068  0.9503
15882TIP3   OH269060   4.770   3.573  11.842 -0.0292 -0.0737  0.3648
15882TIP3    H169061   4.744   3.513  11.912  1.5084 -0.1144  0.9406
15882TIP3    H269062   4.805   3.650  11.889  0.4524  0.1500 -0.3492
15883TIP3   OH269063   3.557   3.823  10.727 -0.3688  0.2195 -0.0030
15883TIP3    H169064   3.507   3.900  10.699  0.4268  0.5062 -0.6528
15883TIP3    H269065   3.560   3.767  10.650  0.1557  0.1250  0.0820
15884TIP3   OH269066   5.262   0.683  13.671  0.0118  0.1914  0.2818
15884TIP3    H169067   5.237   0.727  13.589  0.4667 -1.3308 -0.7064
15884TIP3    H269068   5.201   0.610  13.679 -0.0945  0.3773  1.3854
15885TIP3   OH269069   3.774   3.968  10.801 -0.3344  0.3025 -0.1252
15885TIP3    H169070   3.693   3.919  10.791  0.3348 -1.1995  1.4747
15885TIP3    H269071   3.759   4.025  10.877  0.6217 -1.1698  1.2188
15886TIP3   OH269072   2.732   6.248  15.233 -0.1962 -0.2791  0.4193
15886TIP3    H169073   2.768   6.307  15.299 -1.4690  0.4934  0.4657
15886TIP3    H269074   2.721   6.304  15.155 -0.0018 -0.8297 -0.0052
15887TIP3   OH269075   6.686   4.451  14.150 -0.2659 -0.3358 -0.0102
15887TIP3    H169076   6.612   4.402  14.185  0.1741  0.3941  2.0792
15887TIP3    H269077   6.659   4.542  14.150  0.3116 -0.1539 -0.1230
15888TIP3   OH269078   2.159   3.655  13.994  0.1300 -0.4310 -0.3235
15888TIP3    H169079   2.216   3.584  13.966  0.7690 -0.6078  1.2804
15888TIP3    H269080   2.082   3.612  14.030 -0.3451 -0.2362 -1.0853
15889TIP3   OH269081   0.530   4.774  12.850 -0.0769 -0.4972 -0.3192
15889TIP3    H169082   0.555   4.829  12.775  1.4576 -2.0735 -1.0238
15889TIP3    H269083   0.609   4.769  12.903 -1.1827  0.7038  1.5604
15890TIP3   OH269084   2.184   2.658  15.839 -0.1922  0.3808 -0.1475
15890TIP3    H169085   2.204   2.657  15.745 -1.1462 -0.5049 -0.3490
15890TIP3    H269086   2.262   2.620  15.880  0.7393  1.8566 -0.4490
15891TIP3   OH269087   1.816   4.292   3.965 -0.2555  0.0017 -0.3088
15891TIP3    H169088   1.842   4.222   3.905  1.6651  0.6071 -0.2505
15891TIP3    H269089   1.745   4.337   3.920  0.8101  0.1300 -1.9334
15892TIP3   OH269090   5.168   4.056   4.161  0.2760 -0.1954  0.4063
15892TIP3    H169091   5.208   4.139   4.185  0.1367  0.5357 -1.6847
15892TIP3    H269092   5.121   4.075   4.080  0.3818 -2.3510 -0.2196
15893TIP3   OH269093   4.612   1.522   0.992  0.2209  0.3687 -0.3880
15893TIP3    H169094   4.597   1.477   0.909  2.2105  0.4947 -0.8661
15893TIP3    H269095   4.592   1.614   0.974  0.2622  0.3314 -0.6193
15894TIP3   OH269096   3.358   6.744   4.771  0.3158 -0.3526 -0.4480
15894TIP3    H169097   3.349   6.771   4.862 -1.1487  1.0147 -0.9672
15894TIP3    H269098   3.378   6.825   4.723  0.1555 -0.8962 -1.4652
15895TIP3   OH269099   1.826   3.152  15.685 -0.2244  0.2149  0.0502
15895TIP3    H169100   1.732   3.167  15.697 -0.3282  0.4617 -0.9507
15895TIP3    H269101   1.833   3.112  15.599  0.5876  0.1580  0.1367
15896TIP3   OH269102   2.745   0.673   4.692  0.3020  0.0387  0.4365
15896TIP3    H169103   2.806   0.745   4.679 -0.1698  0.4002  0.1981
15896TIP3    H269104   2.736   0.665   4.787  1.6863 -0.8481  0.5215
15897TIP3   OH269105   2.734   6.216   1.925 -0.1336 -0.3001 -0.2465
15897TIP3    H169106   2.771   6.140   1.881  0.6808  1.3902 -2.7099
15897TIP3    H269107   2.809   6.273   1.942 -0.8068  0.3074  0.8313
15898TIP3   OH269108   3.069   3.501   4.224 -0.4376  0.0521  0.1439
15898TIP3    H169109   3.111   3.575   4.180  0.0780  0.7096  1.6670
15898TIP3    H269110   3.000   3.473   4.164  0.5385  0.5850 -1.2844
15899TIP3   OH269111   4.286   5.677  15.517 -0.6920 -0.3617  0.0716
15899TIP3    H169112   4.310   5.738  15.587 -0.7963  0.1388 -0.3319
15899TIP3    H269113   4.312   5.591  15.551  0.1728 -0.0103  0.3158
15900TIP3   OH269114   1.079   3.718  15.548  0.2820 -0.0537 -0.1104
15900TIP3    H169115   1.001   3.763  15.583  0.0801 -2.0845  2.3491
15900TIP3    H269116   1.153   3.770  15.580  0.0053 -0.3776  1.0954
15901TIP3   OH269117   1.202   4.818  11.878  0.0791  0.1491 -0.3740
15901TIP3    H169118   1.138   4.752  11.905 -0.9426  1.1466 -0.2641
15901TIP3    H269119   1.262   4.826  11.952 -0.0614 -0.3231 -0.2072
15902TIP3   OH269120   4.238   5.113   3.355  0.0964  0.2653 -0.3417
15902TIP3    H169121   4.321   5.130   3.312 -0.4096  2.5848 -0.5326
15902TIP3    H269122   4.198   5.199   3.367 -1.9410 -0.6969  0.4413
15903TIP3   OH269123   2.240   1.587   1.594 -0.2513 -0.4671  0.5027
15903TIP3    H169124   2.215   1.525   1.525 -1.5896  0.0094  0.5440
15903TIP3    H269125   2.227   1.538   1.675  1.7850 -1.1965  0.4652
15904TIP3   OH269126   1.245   6.177   4.205 -0.2116  0.3395 -0.5530
15904TIP3    H169127   1.253   6.210   4.116 -1.4317  2.3765  0.0481
15904TIP3    H269128   1.335   6.177   4.239  0.4592 -1.6407 -2.0983
15905TIP3   OH269129   0.360   4.993   1.461 -0.1907  0.4014 -0.7234
15905TIP3    H169130   0.295   4.924   1.462  0.8214 -0.5737 -0.3869
15905TIP3    H269131   0.309   5.074   1.466 -1.4046 -0.2940 -1.3603
15906TIP3   OH269132   1.124   5.137  14.944 -0.1847  0.1985  0.4088
15906TIP3    H169133   1.169   5.071  14.892 -0.0831  0.8606 -0.3784
15906TIP3    H269134   1.132   5.218  14.892 -1.4748  0.5364  0.6863
15907TIP3   OH269135   4.611   5.056   5.537  0.0918 -0.4551  0.5077
15907TIP3    H169136   4.580   4.996   5.469 -0.6450 -0.1464  0.5654
15907TIP3    H269137   4.688   5.013   5.573  1.1018 -0.1644 -1.1989
15908TIP3   OH269138   3.755   3.372  17.181  0.7878 -0.4626  0.4995
15908TIP3    H169139   3.813   3.448  17.171  0.2467 -0.1809 -0.7096
15908TIP3    H269140   3.667   3.410  17.187  0.3481 -1.0043 -1.6873
15909TIP3   OH269141   3.503   6.448  13.317  0.0877  0.4988 -0.2776
15909TIP3    H169142   3.464   6.468  13.402  0.0333  2.4361 -0.6954
15909TIP3    H269143   3.596   6.437  13.334 -0.2929 -2.3782  0.4610
15910TIP3   OH269144   4.907   6.258  16.216 -0.7474 -0.0026  0.7038
15910TIP3    H169145   4.933   6.228  16.304  1.1547 -0.0907  0.1654
15910TIP3    H269146   4.814   6.236  16.209 -1.0338  0.3130  2.8181
15911TIP3   OH269147   1.024   1.191  12.258  0.2756  0.3579  0.1142
15911TIP3    H169148   0.948   1.249  12.245  1.1056  1.4622  0.0458
15911TIP3    H269149   0.988   1.103  12.253 -1.1550  0.8596  0.9606
15912TIP3   OH269150   1.905   1.124   2.210  0.0681  0.1413 -0.0194
15912TIP3    H169151   1.952   1.207   2.214  0.1480  0.1248 -0.4638
15912TIP3    H269152   1.815   1.149   2.188  0.2203  0.0824 -0.7469
15913TIP3   OH269153   1.520   2.399  15.074  0.3592  0.5741 -0.3708
15913TIP3    H169154   1.508   2.330  15.009 -2.4097  1.8738 -1.4474
15913TIP3    H269155   1.442   2.393  15.130  0.5069  2.1871  0.0730
15914TIP3   OH269156   3.253   1.599  15.040 -0.0730 -0.1508 -0.0745
15914TIP3    H169157   3.189   1.534  15.069  0.6927 -1.0469 -0.3230
15914TIP3    H269158   3.315   1.606  15.113 -0.3623  0.5919  0.1039
15915TIP3   OH269159   4.528   6.585  12.773  0.5723 -0.1415  0.1344
15915TIP3    H169160   4.437   6.563  12.756 -0.5519  3.6976  0.4258
15915TIP3    H269161   4.563   6.609  12.687  1.0680 -0.6987  0.1725
15916TIP3   OH269162   4.272   1.272   5.227 -1.0906 -0.9572  0.2188
15916TIP3    H169163   4.288   1.366   5.232 -0.0570 -1.0787 -0.5498
15916TIP3    H269164   4.196   1.257   5.284 -2.2448  0.5685 -0.8444
15917TIP3   OH269165   0.413   0.411   1.769  0.6901  0.0766  0.1106
15917TIP3    H169166   0.392   0.366   1.687  0.0731 -0.5385  0.5836
15917TIP3    H269167   0.431   0.339   1.830  1.5300  0.5406  0.4083
15918TIP3   OH269168   1.540   2.065   3.369 -0.0471 -0.1164 -0.5065
15918TIP3    H169169   1.543   2.144   3.316  4.5435  0.3610  0.0528
15918TIP3    H269170   1.472   2.082   3.434  0.2426  3.0639 -0.8699
15919TIP3   OH269171   3.313   6.400   0.221  0.0761  0.0510 -0.3993
15919TIP3    H169172   3.352   6.338   0.282 -1.0941 -1.1672 -0.8196
15919TIP3    H269173   3.234   6.431   0.265  1.4409  2.5393  0.4767
15920TIP3   OH269174   3.794   0.996   6.492  0.6747 -0.9067  0.3921
15920TIP3    H169175   3.868   0.956   6.446  0.4098 -1.0808  0.1192
15920TIP3    H269176   3.768   0.932   6.558  1.2331 -0.5435  0.9832
15921TIP3   OH269177   2.792   0.091   1.085  0.3024  0.0561 -0.0041
15921TIP3    H169178   2.866   0.112   1.028  0.8196 -1.3728  0.0895
15921TIP3    H269179   2.750   0.175   1.103  3.0278  1.1919  1.5030
15922TIP3   OH269180   5.789   4.550  13.775  0.4621  0.5022  0.5703
15922TIP3    H169181   5.842   4.473  13.795 -0.4782 -0.2184  0.3382
15922TIP3    H269182   5.853   4.620  13.760  1.3244 -0.2148  0.8225
15923TIP3   OH269183   5.052   4.938  16.845  0.0619 -0.5772  0.1160
15923TIP3    H169184   5.126   4.951  16.786 -0.2287  1.0462  0.0736
15923TIP3    H269185   5.081   4.972  16.929 -1.1764  1.7665 -0.3190
15924TIP3   OH269186   2.405   3.864  13.502  0.2296 -0.1490  0.8356
15924TIP3    H169187   2.449   3.921  13.565  0.1568  0.7940  0.0475
15924TIP3    H269188   2.372   3.791  13.555  2.6121 -0.8486  1.4786
15925TIP3   OH269189   6.142   3.148   3.955  0.1774 -0.1017  0.8304
15925TIP3    H169190   6.207   3.107   3.897 -0.3286  0.1557  0.0645
15925TIP3    H269191   6.188   3.225   3.990 -0.2079  1.0179 -0.9909
15926TIP3   OH269192   3.685   5.332  14.865 -0.0324  0.0976  0.4753
15926TIP3    H169193   3.718   5.290  14.786  1.1914 -0.1931  1.1119
15926TIP3    H269194   3.615   5.273  14.895 -1.0034  0.5834 -0.7497
15927TIP3   OH269195   1.197   4.554  13.264 -0.4390  0.2801  0.5593
15927TIP3    H169196   1.131   4.608  13.222 -0.9360  0.0347  1.0152
15927TIP3    H269197   1.178   4.561  13.358  1.6366  2.1365  0.9417
15928TIP3   OH269198   5.106   6.497  14.785  0.1829 -0.3085 -0.3368
15928TIP3    H169199   5.032   6.538  14.739  1.2917  1.5200 -0.5982
15928TIP3    H269200   5.166   6.471  14.716  0.6671  0.0232 -0.0417
15929TIP3   OH269201   2.180   0.972  16.580  0.1275  0.6204 -0.4941
15929TIP3    H169202   2.182   0.917  16.502  0.6664 -0.8550  0.5082
15929TIP3    H269203   2.149   1.057  16.550  0.9241  0.2705 -2.4237
15930TIP3   OH269204   0.099   1.551   3.143  0.0715  0.0503  0.2077
15930TIP3    H169205   0.077   1.643   3.126 -0.2928 -0.1583 -0.4880
15930TIP3    H269206   0.192   1.552   3.167  0.3027  0.5027 -0.6773
15931TIP3   OH269207   3.221   5.596   2.618 -0.2843  0.5209 -0.9793
15931TIP3    H169208   3.280   5.670   2.601 -2.0333  1.7956 -1.8212
15931TIP3    H269209   3.269   5.541   2.680  0.9114  2.6089  0.0610
15932TIP3   OH269210   1.686   1.247  14.692  0.1737 -0.0245  0.7668
15932TIP3    H169211   1.694   1.323  14.749  1.4299  0.2654  0.2598
15932TIP3    H269212   1.606   1.262  14.641  1.4200  2.0090 -0.7540
15933TIP3   OH269213   2.682   3.535  15.660  0.6216  0.1715  0.0708
15933TIP3    H169214   2.628   3.516  15.737  1.3914 -0.2754  0.5178
15933TIP3    H269215   2.708   3.627  15.671  0.2954  0.2627  0.0720
15934TIP3   OH269216   5.748   4.875   4.605 -0.0014  0.1606  0.5112
15934TIP3    H169217   5.669   4.923   4.580 -0.4617 -0.3262  1.0157
15934TIP3    H269218   5.786   4.927   4.677 -0.1351  0.1331  0.6027
15935TIP3   OH269219   2.745   6.385   4.360  0.4887  0.5754 -0.0581
15935TIP3    H169220   2.742   6.476   4.390 -0.9976  0.8917 -1.0420
15935TIP3    H269221   2.706   6.335   4.431 -1.1864  1.0701 -0.5965
15936TIP3   OH269222   0.021   0.317   2.544 -0.4932  0.1512 -0.3961
15936TIP3    H169223   0.001   0.410   2.535 -0.1456  0.1849 -0.8348
15936TIP3    H269224   0.002   0.280   2.458 -1.6820 -0.3890  0.0696
15937TIP3   OH269225   4.779   1.135  11.598  0.1651 -0.8422 -0.4237
15937TIP3    H169226   4.761   1.044  11.576  1.2855 -0.9468 -0.9439
15937TIP3    H269227   4.874   1.141  11.601  0.1137  0.3914 -0.7250
15938TIP3   OH269228   4.153   5.466  11.730 -0.5203 -0.4373  0.2058
15938TIP3    H169229   4.130   5.506  11.814 -0.7074 -0.9394  0.3947
15938TIP3    H269230   4.106   5.383  11.729 -0.7639 -0.2968 -0.5310
15939TIP3   OH269231   6.770   4.476   5.073  0.1946  0.0605  0.3992
15939TIP3    H169232   6.690   4.426   5.092  0.3725 -0.0473  0.8812
15939TIP3    H269233   6.744   4.567   5.084 -0.0324  0.0566 -0.0996
15940TIP3   OH269234   0.466   5.515  16.893 -0.2640  0.6102  0.5249
15940TIP3    H169235   0.451   5.514  16.799  0.6854 -2.1879  0.3002
15940TIP3    H269236   0.407   5.447  16.927 -0.8889  1.8448  2.0516
15941TIP3   OH269237   3.175   3.725   3.108  0.0963  0.1944  0.1737
15941TIP3    H169238   3.161   3.746   3.016 -0.5622  0.0896  0.2484
15941TIP3    H269239   3.142   3.636   3.118 -1.1671  0.7131  0.8224
15942TIP3   OH269240   2.656   2.155  10.792  0.3278 -0.0288  0.1205
15942TIP3    H169241   2.602   2.097  10.738 -0.9276  1.2513 -0.0585
15942TIP3    H269242   2.669   2.233  10.738  1.0241  0.3290  0.7829
15943TIP3   OH269243   0.139   0.458   1.471 -0.2613 -0.2821  0.1768
15943TIP3    H169244   0.141   0.523   1.542 -0.9026  0.9839 -0.9220
15943TIP3    H269245   0.048   0.428   1.469 -0.8569  1.4608 -1.6078
15944TIP3   OH269246   6.578   0.744   4.416 -0.1792  0.0547 -0.3812
15944TIP3    H169247   6.529   0.737   4.498 -0.6334 -2.7630 -0.7836
15944TIP3    H269248   6.670   0.745   4.443 -0.3506  1.4385  0.2190
15945TIP3   OH269249   5.445   0.601   0.022 -0.4675 -0.0828  0.2380
15945TIP3    H169250   5.350   0.586   0.020 -0.1151 -3.5414 -2.8284
15945TIP3    H269251   5.482   0.513   0.032  2.4672  1.1836  1.4588
15946TIP3   OH269252   4.904   6.453   3.260 -0.2812  0.4955 -0.2715
15946TIP3    H169253   4.864   6.513   3.197  0.3369 -0.2613 -1.4139
15946TIP3    H269254   4.839   6.445   3.330 -0.7740  1.7293 -0.5645
15947TIP3   OH269255   4.221   0.035   0.490 -0.2099  0.0026 -0.0788
15947TIP3    H169256   4.252   0.125   0.500  0.8282 -0.3245 -0.2285
15947TIP3    H269257   4.219   0.021   0.395 -2.7765  0.6461 -0.2044
15948TIP3   OH269258   5.784   4.659   5.535 -0.2328  0.4366 -0.0214
15948TIP3    H169259   5.798   4.728   5.599 -1.5616  1.4847 -0.8071
15948TIP3    H269260   5.766   4.580   5.586  1.1630  0.6726  0.8820
15949TIP3   OH269261   0.278   1.713   1.246 -0.4562  0.4236 -0.5640
15949TIP3    H169262   0.321   1.662   1.315 -0.3546  0.0425 -0.9080
15949TIP3    H269263   0.264   1.650   1.175 -2.0828  0.3833 -0.2570
15950TIP3   OH269264   3.556   4.342   0.799 -0.8104  0.2383  0.0315
15950TIP3    H169265   3.540   4.396   0.877  0.2094 -0.5217  0.8033
15950TIP3    H269266   3.637   4.378   0.761 -0.4138 -0.3931  0.2565
15951TIP3   OH269267   1.354   1.746   3.879 -0.1632  0.0333 -0.4648
15951TIP3    H169268   1.274   1.774   3.924  1.3326  2.1688  1.0812
15951TIP3    H269269   1.350   1.651   3.879 -2.4971  0.0739 -0.0811
15952TIP3   OH269270   4.151   3.555  15.339  0.1890  0.0377 -0.2829
15952TIP3    H169271   4.092   3.601  15.398  1.1547 -0.7452  1.3661
15952TIP3    H269272   4.239   3.586  15.363  0.5577  0.7407 -2.2809
15953TIP3   OH269273   0.544   1.468  16.891  0.4519 -0.3530 -0.2513
15953TIP3    H169274   0.535   1.450  16.797  1.6351 -0.4495 -0.3582
15953TIP3    H269275   0.635   1.494  16.902  0.6212 -1.4090  1.0457
15954TIP3   OH269276   2.116   6.384   6.454  0.1495  0.3564  0.2440
15954TIP3    H169277   2.210   6.374   6.466  0.5211  1.0721 -1.6546
15954TIP3    H269278   2.106   6.471   6.414 -1.3277  0.2813  0.3744
15955TIP3   OH269279   1.066   2.059   5.061 -0.7421 -0.6705 -0.3743
15955TIP3    H169280   1.076   1.981   5.006 -2.0066  0.2661 -2.0231
15955TIP3    H269281   1.098   2.131   5.006  1.9942 -0.1029  1.6974
15956TIP3   OH269282   1.892   6.517   5.714 -0.1991  0.0295  0.5292
15956TIP3    H169283   1.982   6.490   5.694  0.1404  1.3929  0.1281
15956TIP3    H269284   1.851   6.529   5.628 -0.4762  0.3345  0.7009
15957TIP3   OH269285   2.890   6.597  13.381 -0.3574 -0.0041  0.2186
15957TIP3    H169286   2.796   6.577  13.374 -0.6084  0.9539  0.6631
15957TIP3    H269287   2.903   6.613  13.475  0.2911 -0.2760  0.1788
15958TIP3   OH269288   3.543   3.049   0.330  0.4312  0.0626 -0.3419
15958TIP3    H169289   3.462   3.068   0.377 -0.6058 -1.3662 -1.4665
15958TIP3    H269290   3.609   3.039   0.399 -0.4002  0.9337  0.6149
15959TIP3   OH269291   5.461   0.088  15.235 -0.1376  0.2378 -0.4516
15959TIP3    H169292   5.457   0.170  15.284  0.5858  1.1511 -1.8327
15959TIP3    H269293   5.470   0.020  15.301 -1.0186  1.2410  0.7406
15960TIP3   OH269294   1.066   0.774  13.396  0.0537  0.4504 -0.2094
15960TIP3    H169295   0.985   0.824  13.408  0.4296  0.9455  0.3495
15960TIP3    H269296   1.091   0.747  13.485 -0.8137 -1.8656 -0.5997
15961TIP3   OH269297   2.959   5.906  16.837 -0.1989  0.5504 -0.2418
15961TIP3    H169298   2.995   5.905  16.748  0.9086 -0.2203  0.1813
15961TIP3    H269299   2.892   5.837  16.836  0.0175  0.3375 -0.4065
15962TIP3   OH269300   5.729   6.100  13.450 -0.0469  0.3103  0.1692
15962TIP3    H169301   5.775   6.049  13.517  0.9768  1.6727  0.5508
15962TIP3    H269302   5.727   6.189  13.484 -1.7882  0.5711 -0.4847
15963TIP3   OH269303   1.464   5.159  14.598 -0.4561 -0.5649  0.3510
15963TIP3    H169304   1.553   5.126  14.603 -0.3926 -0.2919  1.1327
15963TIP3    H269305   1.474   5.253  14.582 -0.6252 -0.7284 -0.8092
15964TIP3   OH269306   6.046   1.306  11.279 -0.1125  0.4980 -0.2261
15964TIP3    H169307   6.078   1.251  11.351 -1.7086  0.2842  0.3403
15964TIP3    H269308   6.112   1.294  11.210 -0.2151 -1.9016 -0.0093
15965TIP3   OH269309   1.195   2.068  12.159 -0.6491 -0.3500  0.0610
15965TIP3    H169310   1.281   2.085  12.198 -0.3419  1.1464 -1.1586
15965TIP3    H269311   1.213   2.007  12.088 -0.9204 -1.5520  0.9877
15966TIP3   OH269312   2.726   3.080   4.110  0.4093  0.1596 -0.6465
15966TIP3    H169313   2.816   3.086   4.144  0.0838  0.3293  0.2026
15966TIP3    H269314   2.671   3.112   4.181 -0.3298  0.1052 -1.1802
15967TIP3   OH269315   2.991   2.523  14.227  0.2858  0.1304 -0.2611
15967TIP3    H169316   3.063   2.465  14.204 -0.6421 -2.0490  1.8407
15967TIP3    H269317   2.915   2.485  14.183 -0.1911  0.2125  0.4690
15968TIP3   OH269318   5.286   1.941   3.368  0.1928  0.1698 -0.8901
15968TIP3    H169319   5.252   1.953   3.457  1.3998  0.5554 -0.4653
15968TIP3    H269320   5.379   1.923   3.380  0.5257  0.9571 -2.1098
15969TIP3   OH269321   0.099   0.083  12.093  0.0244  0.6946  0.2632
15969TIP3    H169322   0.164   0.067  12.024  1.3471  3.5164  0.6955
15969TIP3    H269323   0.064   0.170  12.072 -1.5992  0.4247  1.6490
15970TIP3   OH269324   0.449   4.289   5.319 -0.4670 -0.1442  0.0871
15970TIP3    H169325   0.448   4.286   5.415  0.1761  0.4132  0.1155
15970TIP3    H269326   0.471   4.379   5.298  1.5163 -0.7416 -0.5641
15971TIP3   OH269327   5.942   6.537   0.449 -0.2769 -0.1517 -0.4045
15971TIP3    H169328   5.873   6.474   0.432 -1.4079  0.5365  1.2759
15971TIP3    H269329   6.002   6.529   0.375 -0.6640 -2.7575 -0.5388
15972TIP3   OH269330   5.972   6.351  14.638 -0.3448 -0.1425  0.4697
15972TIP3    H169331   6.013   6.275  14.681  1.0153  0.5784  0.5193
15972TIP3    H269332   6.004   6.348  14.548 -3.1003 -1.5792 -0.5933
15973TIP3   OH269333   3.271   0.647   4.340 -0.0391 -0.3378  0.0108
15973TIP3    H169334   3.360   0.631   4.308  0.3459  2.2104 -0.4545
15973TIP3    H269335   3.243   0.564   4.378  1.7768 -1.7671 -1.6082
15974TIP3   OH269336   0.732   3.503  13.258  0.4503 -0.1730  0.2710
15974TIP3    H169337   0.732   3.427  13.316 -1.0470 -2.6471 -2.7358
15974TIP3    H269338   0.786   3.478  13.184  0.6404  2.0654 -0.4326
15975TIP3   OH269339   1.555   2.288  16.779 -0.0900  0.5463  0.2188
15975TIP3    H169340   1.483   2.297  16.842  0.8001 -4.2548  2.4103
15975TIP3    H269341   1.634   2.306  16.831  0.5617 -1.7193  0.1253
15976TIP3   OH269342   1.433   6.072   4.946  0.0195 -0.2247 -0.1027
15976TIP3    H169343   1.493   5.997   4.946 -0.3333 -0.6075  2.3757
15976TIP3    H269344   1.376   6.056   4.871  1.3059 -1.2735 -0.9192
15977TIP3   OH269345   0.536   0.373   2.725  0.7001 -0.7763 -0.5802
15977TIP3    H169346   0.462   0.388   2.667 -0.1436 -1.6210  0.2587
15977TIP3    H269347   0.548   0.278   2.726  0.4781 -0.8114  0.8821
15978TIP3   OH269348   6.638   3.380   0.448 -0.2801  0.1671  0.0949
15978TIP3    H169349   6.666   3.334   0.527  0.0264 -0.1749 -0.2099
15978TIP3    H269350   6.581   3.450   0.480  1.6255  1.4745  0.8111
15979TIP3   OH269351   4.231   1.976   3.987 -0.4155  0.7479 -0.3399
15979TIP3    H169352   4.238   2.071   3.980 -1.7861  0.8392 -0.6439
15979TIP3    H269353   4.196   1.948   3.903  1.1261 -0.1826 -0.7194
15980TIP3   OH269354   2.712   2.372  12.772 -0.4127 -0.2039  0.2062
15980TIP3    H169355   2.655   2.297  12.756 -0.2992 -0.4886  1.1137
15980TIP3    H269356   2.654   2.448  12.762 -0.9717 -0.4934  1.1649
15981TIP3   OH269357   2.917   5.081   4.907 -0.6259 -0.6202 -0.2563
15981TIP3    H169358   2.935   4.987   4.906  0.9129 -0.3402 -0.2227
15981TIP3    H269359   2.949   5.112   4.822 -1.0588 -0.1106 -0.2375
15982TIP3   OH269360   3.112   6.287   3.750 -0.6454 -0.0263 -0.4261
15982TIP3    H169361   3.044   6.345   3.783 -0.3746  0.7658 -1.1976
15982TIP3    H269362   3.073   6.200   3.751 -1.3293  0.2819  0.0334
15983TIP3   OH269363   6.265   4.591   3.156 -0.3133  0.1701  0.4076
15983TIP3    H169364   6.304   4.529   3.217 -0.4093  1.7142  2.0918
15983TIP3    H269365   6.326   4.594   3.082 -0.5739 -2.2795 -0.0056
15984TIP3   OH269366   5.482   3.497  15.891 -0.0737 -0.3472 -0.4478
15984TIP3    H169367   5.421   3.564  15.921  0.6501 -0.0347  0.3653
15984TIP3    H269368   5.436   3.414  15.904 -0.0971 -0.1567  0.7429
15985TIP3   OH269369   2.294   0.876  15.441 -0.9561  0.2957  0.1026
15985TIP3    H169370   2.264   0.909  15.356  0.4670  0.7455 -0.2603
15985TIP3    H269371   2.309   0.783  15.428 -0.5565  0.3996 -0.2183
15986TIP3   OH269372   1.057   1.604   4.754  0.2858 -0.3805  0.1072
15986TIP3    H169373   1.136   1.658   4.758  0.5235 -0.7388  0.2544
15986TIP3    H269374   1.049   1.566   4.841 -1.3823  1.5044  0.8624
15987TIP3   OH269375   1.161   1.170   3.761 -0.1605  0.2266  0.1229
15987TIP3    H169376   1.116   1.148   3.843  0.6439 -2.4884 -0.0435
15987TIP3    H269377   1.091   1.199   3.702 -1.0340  0.3712  1.2039
15988TIP3   OH269378   3.655   2.181   5.417 -0.0593  0.0436 -0.1244
15988TIP3    H169379   3.622   2.271   5.425 -0.4350  0.0142 -1.2138
15988TIP3    H269380   3.706   2.167   5.497 -1.1153  0.7629  0.7056
15989TIP3   OH269381   2.706   2.978  16.550  0.2233 -0.2788  0.4598
15989TIP3    H169382   2.785   2.931  16.577  0.3674  0.4791  1.4024
15989TIP3    H269383   2.718   2.992  16.456 -0.6845 -3.7263 -0.3117
15990TIP3   OH269384   0.452   3.697   5.507 -0.1889  0.4159  0.3120
15990TIP3    H169385   0.408   3.694   5.591 -0.6530 -0.1519  0.0519
15990TIP3    H269386   0.469   3.790   5.492  1.5756  0.4178  1.8860
15991TIP3   OH269387   3.394   1.095   2.224 -0.1625 -0.3522  0.3117
15991TIP3    H169388   3.477   1.093   2.175 -0.1448 -0.8520  0.3621
15991TIP3    H269389   3.362   1.185   2.212  0.2567 -0.2304  0.0749
15992TIP3   OH269390   2.361   4.664   0.612 -0.1341  0.3021  0.4766
15992TIP3    H169391   2.408   4.717   0.676  1.0326  0.0558 -0.1441
15992TIP3    H269392   2.314   4.600   0.664 -0.5222  1.1230  1.1700
15993TIP3   OH269393   2.753   4.992   3.711 -0.1401  0.4767  0.2978
15993TIP3    H169394   2.736   4.992   3.617  1.6815 -2.2926 -0.1525
15993TIP3    H269395   2.697   4.923   3.745  2.2288 -1.4852  0.4624
15994TIP3   OH269396   3.684   0.530   3.816  0.1928 -0.0377 -0.3371
15994TIP3    H169397   3.711   0.451   3.863 -0.9498 -0.1929  0.1023
15994TIP3    H269398   3.607   0.502   3.765 -1.6577  1.2819  1.5865
15995TIP3   OH269399   4.731   2.885  16.662  0.5001  0.7009 -0.0537
15995TIP3    H169400   4.745   2.791  16.669  0.8559  0.5576 -2.1826
15995TIP3    H269401   4.710   2.913  16.751 -1.5781 -1.6962  0.2933
15996TIP3   OH269402   1.373   0.735   4.720 -0.0058 -0.1962 -0.5675
15996TIP3    H169403   1.456   0.767   4.685 -0.9115  1.4153 -1.3735
15996TIP3    H269404   1.394   0.705   4.809  1.0753  2.3827  0.1513
15997TIP3   OH269405   5.763   3.204   1.352  0.3914  0.0591 -0.0664
15997TIP3    H169406   5.778   3.168   1.265  0.8177 -1.4957  0.6125
15997TIP3    H269407   5.708   3.281   1.337 -1.1770 -1.2611 -1.5467
15998TIP3   OH269408   2.912   0.641  12.550 -0.0361 -0.1075 -0.4869
15998TIP3    H169409   2.877   0.700  12.484 -1.6511  0.0484  0.4692
15998TIP3    H269410   2.891   0.553  12.519  0.8652 -0.1334 -1.0694
15999TIP3   OH269411   0.535   3.515   3.889  0.1917  0.1359  0.2087
15999TIP3    H169412   0.468   3.451   3.862  0.3191 -0.4061  1.1591
15999TIP3    H269413   0.601   3.510   3.820  1.1247 -2.1502  1.1780
16000TIP3   OH269414   0.800   5.684   4.873 -0.0831 -0.9293 -0.2659
16000TIP3    H169415   0.786   5.602   4.827 -0.6015 -0.4508 -0.9928
16000TIP3    H269416   0.722   5.696   4.927 -0.6048 -0.3198 -1.1179
16001TIP3   OH269417   2.363   5.038   6.334  0.3798 -0.8462  0.0764
16001TIP3    H169418   2.439   5.087   6.303  0.8194 -0.7028  1.3263
16001TIP3    H269419   2.295   5.104   6.349  0.6339 -0.7363  0.7679
16002TIP3   OH269420   3.306   1.194  15.050 -0.4606 -0.1208  0.6088
16002TIP3    H169421   3.268   1.123  15.101  0.3287 -0.6218  0.5223
16002TIP3    H269422   3.400   1.174  15.049 -0.4252  0.0455 -0.7707
16003TIP3   OH269423   0.606   0.385   3.053 -0.7931 -0.3817  0.0033
16003TIP3    H169424   0.613   0.312   2.991 -0.7204  0.7364 -1.3516
16003TIP3    H269425   0.520   0.372   3.093 -0.6559 -1.3830  0.0130
16004TIP3   OH269426   2.718   0.255  11.260  0.6780  0.2647 -0.2037
16004TIP3    H169427   2.776   0.192  11.303  0.7739  0.1099 -0.5513
16004TIP3    H269428   2.689   0.209  11.181 -1.8473 -0.6461  1.1144
16005TIP3   OH269429   1.939   0.923  12.312  0.9139  0.1864  0.4490
16005TIP3    H169430   1.944   0.965  12.226  0.1110 -4.3092 -2.1476
16005TIP3    H269431   2.029   0.899  12.332  1.0911  1.1668  0.9026
16006TIP3   OH269432   1.195   2.351   5.512 -0.6191 -1.2233 -0.3913
16006TIP3    H169433   1.193   2.323   5.421 -1.8928  0.2134 -0.8655
16006TIP3    H269434   1.179   2.271   5.562 -0.5558 -1.9294 -1.4586
16007TIP3   OH269435   6.097   3.470   5.364  0.1229  0.3295 -0.4241
16007TIP3    H169436   6.028   3.533   5.340 -0.0391  0.1853 -0.3411
16007TIP3    H269437   6.100   3.472   5.459  2.5546  2.8226 -0.4396
16008TIP3   OH269438   0.025   6.249   5.170 -0.0406  0.6342 -0.5392
16008TIP3    H169439   0.000   6.238   5.078  0.7330  0.7131 -0.7691
16008TIP3    H269440   0.079   6.172   5.189  1.5554  1.6435 -0.7922
16009TIP3   OH269441   1.956   0.712  11.178 -0.1386  0.1847  0.4479
16009TIP3    H169442   2.025   0.761  11.132  0.9518 -0.4277  1.3843
16009TIP3    H269443   1.928   0.645  11.115 -0.3539  0.8393 -0.1717
16010TIP3   OH269444   5.718   1.498  13.117  0.0087  0.0474 -0.1885
16010TIP3    H169445   5.740   1.451  13.197  0.9248  0.2317 -0.3273
16010TIP3    H269446   5.801   1.507  13.071 -0.3616  0.7581 -0.7237
16011TIP3   OH269447   2.069   3.542   3.675 -0.3359 -0.0527 -0.5953
16011TIP3    H169448   2.154   3.585   3.662 -0.0426  0.1907  1.7495
16011TIP3    H269449   2.006   3.615   3.677 -0.1360  0.1081  1.0233
16012TIP3   OH269450   5.018   5.497   5.038 -0.1192  0.1399  0.5581
16012TIP3    H169451   4.936   5.462   5.072 -0.4814 -1.1867 -1.4837
16012TIP3    H269452   5.053   5.427   4.982  2.2060  0.8287  1.0337
16013TIP3   OH269453   6.673   2.811  11.330 -0.1561  0.4579  0.3727
16013TIP3    H169454   6.752   2.793  11.381 -0.4830 -2.2678  0.0728
16013TIP3    H269455   6.701   2.875  11.264  2.1308 -1.1563 -0.3800
16014TIP3   OH269456   2.357   0.942   3.877  0.2881 -0.4246 -0.4294
16014TIP3    H169457   2.372   1.023   3.927 -0.1337 -0.8737  0.4332
16014TIP3    H269458   2.386   0.872   3.935 -1.0563 -1.0151 -0.4312
16015TIP3   OH269459   3.248   2.779   5.625  0.0516 -0.1169 -0.2102
16015TIP3    H169460   3.260   2.735   5.541 -0.3109  0.6955 -0.7009
16015TIP3    H269461   3.174   2.733   5.665 -0.1329 -0.1519 -0.5854
16016TIP3   OH269462   2.538   1.530   2.963 -0.8848 -0.1739 -0.2970
16016TIP3    H169463   2.578   1.518   3.049  0.7667 -0.9573 -1.1260
16016TIP3    H269464   2.508   1.620   2.963  2.6137  1.1606 -0.2237
16017TIP3   OH269465   4.761   0.013   5.442  0.6598  0.0876 -0.6734
16017TIP3    H169466   4.802   0.074   5.503  0.1557  0.0190 -0.2609
16017TIP3    H269467   4.818   0.015   5.365  0.6676  1.0541 -0.6607
16018TIP3   OH269468   3.233   2.530  15.549  0.2291  0.3940 -0.0033
16018TIP3    H169469   3.219   2.502  15.639 -3.6423 -0.8371 -0.7933
16018TIP3    H269470   3.304   2.474  15.517 -1.4839 -2.5202  1.0041
16019TIP3   OH269471   3.333   4.585  16.096  0.2579  0.4445 -0.0229
16019TIP3    H169472   3.336   4.553  16.006  0.1522 -2.2160  0.8384
16019TIP3    H269473   3.423   4.575  16.128  0.3930  1.7680  0.0972
16020TIP3   OH269474   6.225   6.713  11.645 -0.2047 -0.6120  0.5178
16020TIP3    H169475   6.313   6.690  11.677  0.5313  0.6818 -0.4748
16020TIP3    H269476   6.184   6.629  11.624  1.8203 -1.1839 -1.5657
16021TIP3   OH269477   0.669   5.786   5.536 -0.0531  0.7694 -0.5537
16021TIP3    H169478   0.605   5.855   5.517 -0.3855  0.3693 -0.9061
16021TIP3    H269479   0.684   5.743   5.452 -0.7258 -0.3280 -0.1316
16022TIP3   OH269480   4.108   4.528  13.030  0.2670  0.1194  0.0398
16022TIP3    H169481   4.178   4.481  13.075  0.7491  1.6848  1.0251
16022TIP3    H269482   4.027   4.488  13.060  0.7006 -1.6339 -1.0126
16023TIP3   OH269483   0.851   2.352  17.284  0.0863  0.1842  0.2186
16023TIP3    H169484   0.875   2.441  17.259  0.6416  0.1239  0.5072
16023TIP3    H269485   0.935   2.306  17.289 -0.3505 -1.1110 -2.6623
16024TIP3   OH269486   4.068   5.829  16.171 -0.1903  0.2016 -0.1362
16024TIP3    H169487   4.029   5.742  16.165 -1.4239  0.7913 -0.9605
16024TIP3    H269488   4.005   5.881  16.220  1.0707  0.3706  1.3798
16025TIP3   OH269489   0.727   5.640  12.224  0.2136  0.4108 -0.6369
16025TIP3    H169490   0.648   5.693  12.208  0.1135  1.2247  2.0921
16025TIP3    H269491   0.794   5.682  12.171 -0.7542  0.8098 -1.6035
16026TIP3   OH269492   2.442   1.748  13.734  0.2167  0.4754 -0.1376
16026TIP3    H169493   2.488   1.796  13.665  0.7699 -0.3229 -0.3354
16026TIP3    H269494   2.511   1.721  13.795 -0.3185  1.5942  1.0069
16027TIP3   OH269495   4.547   3.723   3.584  0.2524  0.1693 -0.4430
16027TIP3    H169496   4.521   3.814   3.576 -0.3564  0.0408  0.0803
16027TIP3    H269497   4.534   3.701   3.676  1.1433 -0.2259 -0.3952
16028TIP3   OH269498   4.851   5.514   4.669  0.2770  0.3599 -0.5622
16028TIP3    H169499   4.814   5.496   4.582  0.6429 -0.6319 -0.5265
16028TIP3    H269500   4.842   5.608   4.680  0.1294  0.4828 -1.6382
16029TIP3   OH269501   6.146   1.301  14.602 -0.1059 -0.5658 -0.3651
16029TIP3    H169502   6.135   1.383  14.554 -0.5770 -0.7077 -0.4970
16029TIP3    H269503   6.241   1.294  14.615 -0.1017  0.3369  0.2368
16030TIP3   OH269504   5.681   4.019   1.883 -0.3637  0.7848  0.4790
16030TIP3    H169505   5.723   4.105   1.880 -0.2742  0.7261 -0.1485
16030TIP3    H269506   5.699   3.986   1.971 -1.5114  1.9533  1.1918
16031TIP3   OH269507   0.692   5.225  12.456  0.3034  0.1565  0.0751
16031TIP3    H169508   0.692   5.234  12.551  0.8399  0.0159  0.0889
16031TIP3    H269509   0.625   5.287  12.427 -1.2447 -1.1876  0.6541
16032TIP3   OH269510   1.643   0.229   0.384  0.1575  0.2057  0.3096
16032TIP3    H169511   1.642   0.153   0.327 -2.3247 -0.4932  1.1722
16032TIP3    H269512   1.635   0.304   0.324 -3.4065 -0.5466 -0.3674
16033TIP3   OH269513   5.239   3.179  16.680 -0.0899 -0.1920  0.2116
16033TIP3    H169514   5.225   3.216  16.767 -1.5504  0.6345 -0.3272
16033TIP3    H269515   5.165   3.212  16.628  1.0309 -0.2302 -1.4844
16034TIP3   OH269516   0.935   4.236   3.160  0.2565 -0.3361  0.3283
16034TIP3    H169517   0.931   4.235   3.064  0.1377  0.0549  0.3298
16034TIP3    H269518   0.856   4.189   3.188  0.7109 -1.1790  0.2279
16035TIP3   OH269519   4.635   2.258  16.046 -0.1792  0.4168 -0.5050
16035TIP3    H169520   4.696   2.265  15.972  0.6519 -5.4310 -0.8553
16035TIP3    H269521   4.680   2.201  16.108 -3.5748 -0.4925  1.3287
16036TIP3   OH269522   4.211   3.308  11.456 -0.1851  0.1860 -0.4889
16036TIP3    H169523   4.126   3.348  11.473  0.2144  1.7034 -1.8079
16036TIP3    H269524   4.194   3.214  11.452 -1.4299  0.2983  1.2056
16037TIP3   OH269525   3.786   3.752   0.380  0.5472 -0.0711 -0.0195
16037TIP3    H169526   3.726   3.791   0.316 -0.5378 -2.5306 -0.6082
16037TIP3    H269527   3.870   3.747   0.335  0.1029 -0.6327 -0.8013
16038TIP3   OH269528   6.351   0.933  13.762  0.0869 -0.7432 -0.3987
16038TIP3    H169529   6.367   1.013  13.812 -0.3571 -1.7315  1.4432
16038TIP3    H269530   6.436   0.911  13.724  0.2694  0.4509 -0.7258
16039TIP3   OH269531   3.033   5.139  14.877 -0.5841 -0.4727  0.4657
16039TIP3    H169532   2.940   5.138  14.899 -1.4067  0.3760 -2.4929
16039TIP3    H269533   3.040   5.080  14.802  0.9498  0.7259 -0.3693
16040TIP3   OH269534   6.526   1.311  15.319 -0.0981  0.2816 -0.2828
16040TIP3    H169535   6.540   1.217  15.315  0.2649  0.0728  2.8997
16040TIP3    H269536   6.605   1.349  15.280  0.2188 -0.7471 -0.6690
16041TIP3   OH269537   5.231   0.062   3.528 -0.7080  0.1353  0.0478
16041TIP3    H169538   5.259  -0.004   3.592  0.1800  0.2335 -0.2312
16041TIP3    H269539   5.178   0.012   3.466 -2.7192  0.2670  1.5347
16042TIP3   OH269540   0.990   6.375   2.854  0.1062 -0.2701 -0.7523
16042TIP3    H169541   1.032   6.330   2.781 -0.6168  0.5079 -1.6792
16042TIP3    H269542   0.996   6.468   2.831 -1.0242 -0.0750 -0.3103
16043TIP3   OH269543   4.853   5.383  15.610  0.1306 -0.3886 -0.2707
16043TIP3    H169544   4.897   5.361  15.693  2.2029  0.1661 -1.1501
16043TIP3    H269545   4.778   5.436  15.637 -1.1653 -2.8955  1.4224
16044TIP3   OH269546   5.302   2.319  12.631 -0.4073  0.6114  0.1789
16044TIP3    H169547   5.386   2.285  12.599 -1.0635  0.8003 -1.8811
16044TIP3    H269548   5.281   2.264  12.706  0.5506 -0.8284 -0.5633
16045TIP3   OH269549   0.421   1.824   0.665  0.0112 -0.2484 -0.2158
16045TIP3    H169550   0.413   1.916   0.691 -1.6536 -0.7870  1.3697
16045TIP3    H269551   0.402   1.824   0.571  1.4097  1.1528 -0.5546
16046TIP3   OH269552   0.271   2.382   6.596  1.4320  0.0488  0.5043
16046TIP3    H169553   0.334   2.452   6.610  2.5818 -0.7717 -0.3651
16046TIP3    H269554   0.252   2.384   6.502 -1.8046  1.8615  1.0572
16047TIP3   OH269555   4.484   5.964  13.692  0.6272  1.0271  0.0248
16047TIP3    H169556   4.454   5.944  13.603 -0.0786  0.7253  0.3226
16047TIP3    H269557   4.520   5.882  13.724 -1.1542  0.5155  0.8082
16048TIP3   OH269558   3.241   0.588  15.494  0.7155  0.3704 -0.2468
16048TIP3    H169559   3.257   0.563  15.404 -1.0989  1.4399 -0.9178
16048TIP3    H269560   3.245   0.684  15.493  2.2363  0.3711  1.1574
16049TIP3   OH269561   2.900   5.220   3.046 -0.1665 -0.1891  0.0507
16049TIP3    H169562   2.880   5.149   2.986  0.1387  0.8470 -1.3273
16049TIP3    H269563   2.927   5.293   2.990 -1.3689  1.3308  1.3145
16050TIP3   OH269564   4.632   4.840  16.586  0.0007 -0.1702 -0.5811
16050TIP3    H169565   4.607   4.913  16.643  2.0944  1.0206 -1.0580
16050TIP3    H269566   4.676   4.778  16.644 -1.1251 -0.7266 -0.3046
16051TIP3   OH269567   3.534   5.895  13.941  0.3201  0.0911  0.1251
16051TIP3    H169568   3.518   5.802  13.956  1.3147  0.0672  1.1892
16051TIP3    H269569   3.629   5.905  13.951  0.1284  1.3603  0.9354
16052TIP3   OH269570   5.120   6.041  12.747 -0.3617 -0.0153 -0.8517
16052TIP3    H169571   5.090   6.126  12.778  1.0967  0.0280  0.5574
16052TIP3    H269572   5.203   6.026  12.792  0.9203 -0.8657 -3.3118
16053TIP3   OH269573   2.811   5.790  12.735 -0.0424  0.4161 -0.2567
16053TIP3    H169574   2.821   5.714  12.679  0.5006 -0.8471  1.4793
16053TIP3    H269575   2.883   5.848  12.711  1.8802 -1.3549  0.9627
16054TIP3   OH269576   5.032   6.765   6.552  0.4652 -0.0778  0.2658
16054TIP3    H169577   5.114   6.717   6.543  1.9592  2.2787  0.7364
16054TIP3    H269578   4.999   6.740   6.638  0.2281 -1.6328 -0.2405
16055TIP3   OH269579   0.181   4.874   4.197 -0.4977  0.3149 -0.0089
16055TIP3    H169580   0.140   4.928   4.130  1.6381  1.3578 -0.5433
16055TIP3    H269581   0.272   4.905   4.202  1.0786 -3.6110 -0.8015
16056TIP3   OH269582   6.545   4.347   0.194 -0.1509  0.3446 -0.1391
16056TIP3    H169583   6.539   4.255   0.221 -0.8972  0.2160 -0.7168
16056TIP3    H269584   6.631   4.375   0.225 -0.1036 -0.4149  0.4527
16057TIP3   OH269585   0.363   6.591  15.622  0.3467  0.3819  0.2457
16057TIP3    H169586   0.313   6.537  15.684  0.2458  2.2625  1.8972
16057TIP3    H269587   0.301   6.607  15.550 -0.8472  1.1399  1.3839
16058TIP3   OH269588   5.261   5.722  17.177  0.1335 -0.5646 -0.6929
16058TIP3    H169589   5.276   5.791  17.241  0.7136 -1.2710 -0.0554
16058TIP3    H269590   5.288   5.761  17.093  0.8727 -0.1715 -0.2817
16059TIP3   OH269591   4.891   3.949  15.998  0.2744  0.2078 -0.5717
16059TIP3    H169592   4.801   3.959  15.966  0.0530  1.4687  0.3781
16059TIP3    H269593   4.918   4.037  16.022  0.7520 -0.5116  1.8129
16060TIP3   OH269594   6.772   2.198   2.306  0.2084  0.2988  0.4399
16060TIP3    H169595   6.817   2.256   2.367  0.3577 -0.2905  0.8999
16060TIP3    H269596   6.745   2.255   2.234 -0.3636  1.0954  1.2649
16061TIP3   OH269597   6.068   2.624  15.771  0.2218 -0.1697 -0.3617
16061TIP3    H169598   6.061   2.689  15.701 -0.7923  2.1674  1.7441
16061TIP3    H269599   5.992   2.567  15.759 -0.4530  0.7676 -0.6510
16062TIP3   OH269600   6.368   4.900   0.911 -0.0693 -0.2646  0.0779
16062TIP3    H169601   6.287   4.887   0.960 -1.4779 -0.3993 -2.1461
16062TIP3    H269602   6.419   4.962   0.963 -0.8248 -1.4636  2.3565
16063TIP3   OH269603   2.691   3.104   5.659 -0.0520  0.1673 -0.1010
16063TIP3    H169604   2.782   3.115   5.633 -0.0078 -0.0387 -0.0344
16063TIP3    H269605   2.696   3.075   5.750 -0.1662 -0.3669 -0.2620
16064TIP3   OH269606   6.770   0.516  14.716  0.5794 -0.3909 -0.2700
16064TIP3    H169607   6.852   0.538  14.672  0.7230  1.8226  0.9149
16064TIP3    H269608   6.738   0.600  14.749 -1.1148 -1.4881  1.0698
16065TIP3   OH269609   0.622   3.620   5.188  0.1803  0.1843 -0.3741
16065TIP3    H169610   0.678   3.697   5.199 -0.2899  0.4396  0.2833
16065TIP3    H269611   0.643   3.564   5.262  1.2616 -0.8100 -1.4004
16066TIP3   OH269612   1.850   5.311   4.194  0.1723  0.0257 -0.3097
16066TIP3    H169613   1.925   5.341   4.143 -0.2683 -2.0382 -2.3620
16066TIP3    H269614   1.799   5.390   4.211  1.3298  1.0633 -1.4296
16067TIP3   OH269615   1.291   0.033  13.400 -0.1190 -0.4107  0.1934
16067TIP3    H169616   1.290  -0.039  13.337  1.3160 -0.7425  0.5037
16067TIP3    H269617   1.216   0.087  13.376 -0.7790 -1.5909 -0.5286
16068TIP3   OH269618   3.016   0.545  11.462  0.3340 -0.4765  0.2060
16068TIP3    H169619   2.928   0.565  11.428  0.4796 -0.3704 -0.1097
16068TIP3    H269620   3.040   0.623  11.513 -0.0772 -0.8272  0.9484
16069TIP3   OH269621   1.073   3.123  13.788  0.2020  0.5967 -0.2892
16069TIP3    H169622   1.159   3.111  13.828 -0.1488  1.4388  0.7533
16069TIP3    H269623   1.088   3.109  13.694  1.6100  1.4391 -0.2158
16070TIP3   OH269624   4.292   1.376  11.861 -0.2802 -0.7307  0.1512
16070TIP3    H169625   4.370   1.390  11.915 -0.1833  0.7373 -0.3188
16070TIP3    H269626   4.251   1.299  11.898  1.6436 -1.8402  0.1231
16071TIP3   OH269627   2.154   1.177   4.016  0.5987  0.0600  0.0854
16071TIP3    H169628   2.110   1.096   3.990 -0.9141  0.8108  0.2091
16071TIP3    H269629   2.115   1.200   4.100  0.7260  1.1121 -0.1299
16072TIP3   OH269630   2.939   5.075   2.447 -0.0371  0.6241  0.0398
16072TIP3    H169631   2.853   5.115   2.457  0.4130  1.5540  0.3735
16072TIP3    H269632   2.985   5.096   2.529 -0.0033 -1.1882  0.5225
16073TIP3   OH269633   2.212   1.965  15.894 -0.0379 -0.0452 -0.2407
16073TIP3    H169634   2.257   1.962  15.978 -0.1080  0.4753 -0.1830
16073TIP3    H269635   2.241   1.886  15.848  0.6240  0.0839 -0.0483
16074TIP3   OH269636   2.123   5.396   3.835  0.1794 -0.0500 -0.0083
16074TIP3    H169637   2.042   5.445   3.818 -0.2595 -1.2312 -1.5983
16074TIP3    H269638   2.122   5.326   3.769  2.5096 -0.0740 -0.0830
16075TIP3   OH269639   3.188   2.510  11.144 -0.1816 -0.8952  0.3490
16075TIP3    H169640   3.284   2.514  11.137 -0.1135 -1.4557  0.8806
16075TIP3    H269641   3.172   2.443  11.210 -0.9730 -1.6095 -0.5381
16076TIP3   OH269642   5.498   4.260  16.105  0.0451  0.3459  0.0244
16076TIP3    H169643   5.466   4.197  16.170 -0.8623  1.2088  0.4410
16076TIP3    H269644   5.515   4.207  16.027  0.4393 -0.5887  0.7240
16077TIP3   OH269645   3.064   0.947  13.027 -0.1997 -0.9056  0.0088
16077TIP3    H169646   3.123   0.916  13.095  1.8834  2.3770 -0.0881
16077TIP3    H269647   3.015   1.019  13.067 -0.5333 -0.3639 -1.2951
16078TIP3   OH269648   3.591   6.230   0.803 -0.0728  0.1139  0.0296
16078TIP3    H169649   3.679   6.192   0.795 -0.8233 -1.3497 -2.1964
16078TIP3    H269650   3.598   6.291   0.876  2.9406  0.4444 -0.3951
16079TIP3   OH269651   1.687   1.750  11.049  0.7904 -0.1834 -0.0715
16079TIP3    H169652   1.603   1.723  11.085  0.4115  0.3871 -0.5247
16079TIP3    H269653   1.680   1.733  10.955  0.3180  1.9657 -0.4883
16080TIP3   OH269654   3.754   0.442  15.069  0.6859  0.5825  0.2959
16080TIP3    H169655   3.733   0.349  15.068  1.5968  0.3590  0.8105
16080TIP3    H269656   3.678   0.484  15.108  0.7880 -0.0923  1.2600
16081TIP3   OH269657   2.191   4.189  10.767 -0.4055 -0.5255 -0.7738
16081TIP3    H169658   2.106   4.181  10.724 -0.7954 -1.0114  0.0775
16081TIP3    H269659   2.207   4.284  10.770 -1.3881 -0.3671 -0.0356
16082TIP3   OH269660   1.268   2.687   0.049 -0.3900  0.0016 -0.1246
16082TIP3    H169661   1.332   2.722  -0.012  1.7906  0.9095  2.5056
16082TIP3    H269662   1.199   2.754   0.052 -0.2270  0.2297 -1.0623
16083TIP3   OH269663   2.972   3.498  13.857  0.4281 -0.1053  0.1032
16083TIP3    H169664   2.929   3.554  13.792  0.5141 -1.3847 -1.0954
16083TIP3    H269665   2.913   3.423  13.866  1.4949 -0.9820 -0.1373
16084TIP3   OH269666   5.216   3.099  13.167 -0.0005 -0.4099 -0.4698
16084TIP3    H169667   5.151   3.162  13.200  0.1820 -0.6668  0.4233
16084TIP3    H269668   5.300   3.136  13.194  0.2806  0.1640 -2.0330
16085TIP3   OH269669   0.871   6.094  12.593  0.1246 -0.0539 -0.0091
16085TIP3    H169670   0.834   6.087  12.681 -0.7384 -0.2949 -0.3742
16085TIP3    H269671   0.797   6.121  12.539  0.6112 -0.0688 -0.6888
16086TIP3   OH269672   0.517   3.752   2.617 -0.2312 -0.6285  0.1928
16086TIP3    H169673   0.480   3.825   2.568 -3.9157 -2.2753  0.2070
16086TIP3    H269674   0.544   3.689   2.550  0.3082 -0.4493  0.2338
16087TIP3   OH269675   1.380   4.881   0.848  0.1188  0.2470  0.6107
16087TIP3    H169676   1.386   4.848   0.758  2.3094 -0.7617  1.0799
16087TIP3    H269677   1.305   4.941   0.845 -1.6905 -1.8632 -1.1953
16088TIP3   OH269678   1.180   5.990  13.596  0.0929  0.3761  0.9345
16088TIP3    H169679   1.260   6.040  13.579  1.2128 -1.3939  0.7745
16088TIP3    H269680   1.115   6.056  13.617  1.3324  1.9478  0.0574
16089TIP3   OH269681   0.364   3.680  13.980 -0.2122 -0.1275  0.1783
16089TIP3    H169682   0.412   3.617  14.035  1.0143  1.0423  0.5121
16089TIP3    H269683   0.413   3.681  13.897 -1.0835 -0.6690 -0.3506
16090TIP3   OH269684   6.339   3.081  17.025 -0.0151 -0.1507  0.1339
16090TIP3    H169685   6.383   3.017  16.969  1.9797  1.9029 -0.8021
16090TIP3    H269686   6.272   3.119  16.969  0.3631  0.1933 -0.0942
16091TIP3   OH269687   2.798   1.775  13.946  0.0598  0.2680 -0.6317
16091TIP3    H169688   2.810   1.860  13.904  0.7086 -0.2486 -1.5187
16091TIP3    H269689   2.755   1.721  13.879  0.7529 -0.4549 -0.5051
16092TIP3   OH269690   6.213   3.149  12.575  0.3265 -0.7580 -0.0607
16092TIP3    H169691   6.199   3.056  12.593 -1.6012 -1.0510 -2.5690
16092TIP3    H269692   6.280   3.150  12.506  1.9356 -0.1046  1.4410
16093TIP3   OH269693   4.861   0.522  14.751  0.1230  0.2611  0.5336
16093TIP3    H169694   4.915   0.444  14.763  2.9342  1.8110 -1.0251
16093TIP3    H269695   4.862   0.538  14.656 -1.9303  1.1919  0.6083
16094TIP3   OH269696   5.832   3.216  16.409  0.4701  0.2439  0.3330
16094TIP3    H169697   5.849   3.297  16.361  1.2117 -0.0491  0.0841
16094TIP3    H269698   5.908   3.206  16.467 -0.5133  0.7078  1.7431
16095TIP3   OH269699   2.376   0.959   0.690 -0.5106 -0.0075 -0.2762
16095TIP3    H169700   2.471   0.966   0.690 -0.6130  1.7490 -0.3170
16095TIP3    H269701   2.356   0.906   0.767  0.4158  1.9854  1.4405
16096TIP3   OH269702   1.558   6.111  12.054  0.1544  0.3151 -0.5716
16096TIP3    H169703   1.605   6.062  11.986  0.2415  0.2234 -0.4464
16096TIP3    H269704   1.627   6.158  12.100  0.1200  0.2059 -0.4084
16097TIP3   OH269705   1.380   0.778   1.358  0.5199  0.2655  0.5826
16097TIP3    H169706   1.389   0.705   1.420 -0.0989  0.5433  1.0070
16097TIP3    H269707   1.287   0.798   1.357  0.5810  0.5550 -0.1192
16098TIP3   OH269708   6.558   2.762   0.974 -0.7477  0.3554 -0.0102
16098TIP3    H169709   6.647   2.784   0.950 -1.0198  0.9214 -0.5255
16098TIP3    H269710   6.543   2.676   0.935 -0.0907 -0.2179  0.9609
16099TIP3   OH269711   6.710   6.683  13.306  0.3182 -0.0934  0.0230
16099TIP3    H169712   6.697   6.772  13.340 -0.2853 -0.6741  1.3422
16099TIP3    H269713   6.652   6.628  13.358  1.2734 -1.3938 -0.2342
16100TIP3   OH269714   4.381   4.697   5.643 -0.1622  0.0229  0.3681
16100TIP3    H169715   4.371   4.758   5.570  0.7747  2.2914  2.0084
16100TIP3    H269716   4.302   4.643   5.640 -0.9182  1.1289 -1.3365
16101TIP3   OH269717   3.329   0.152   5.301  0.1150  0.0747 -0.0324
16101TIP3    H169718   3.331   0.066   5.344 -1.4398 -0.1792 -0.3990
16101TIP3    H269719   3.412   0.193   5.325  0.1585 -0.8576  1.5478
16102TIP3   OH269720   5.044   5.246  17.026 -0.1402  0.6608 -0.0786
16102TIP3    H169721   5.083   5.316  16.974  1.2115  1.6454  2.1107
16102TIP3    H269722   5.095   5.245  17.107 -2.0512 -0.8606  1.2006
16103TIP3   OH269723   1.562   2.987  16.691 -0.9003 -0.2751 -0.0293
16103TIP3    H169724   1.587   3.025  16.607 -2.1601 -2.6697 -1.6120
16103TIP3    H269725   1.638   2.937  16.719  0.8829  3.2319  2.2157
16104TIP3   OH269726   5.097   3.438  14.305 -0.2662 -0.1408  0.7880
16104TIP3    H169727   5.011   3.468  14.277 -0.5116 -1.6442 -0.1994
16104TIP3    H269728   5.152   3.445  14.227 -0.8278 -3.8896 -0.1549
16105TIP3   OH269729   4.763   6.325   0.433 -0.2047  0.1661 -0.1262
16105TIP3    H169730   4.780   6.244   0.481 -0.3475  0.7161  0.8793
16105TIP3    H269731   4.690   6.366   0.480  2.5249  2.9513  2.0892
16106TIP3   OH269732   0.058   1.931  14.090  0.3734  0.6079  0.1276
16106TIP3    H169733   0.105   1.955  14.010  0.2244 -0.3844 -0.2717
16106TIP3    H269734  -0.034   1.931  14.066  0.4035 -1.1337 -0.1344
16107TIP3   OH269735   2.788   4.833   5.325  0.2835  0.3922  0.3707
16107TIP3    H169736   2.822   4.901   5.266 -0.4741 -0.1427 -0.7105
16107TIP3    H269737   2.755   4.881   5.400  1.6660  1.0619  0.5777
16108TIP3   OH269738   1.137   2.092  16.246 -0.0791 -0.7047  0.1570
16108TIP3    H169739   1.172   2.079  16.158 -1.6857 -0.6829 -0.5225
16108TIP3    H269740   1.048   2.125  16.232 -0.5333 -1.1362  1.7834
16109TIP3   OH269741   6.201   4.995   6.548  0.3169  0.3105  0.3285
16109TIP3    H169742   6.112   5.031   6.541  0.7141  1.1941 -0.5039
16109TIP3    H269743   6.257   5.072   6.557  1.1023 -0.1509 -0.4378
16110TIP3   OH269744   3.431   4.406  14.703  0.5959  0.2977  0.4318
16110TIP3    H169745   3.462   4.492  14.731  1.8751  0.1187 -0.3408
16110TIP3    H269746   3.495   4.378  14.637  0.4569 -1.4181  0.9723
16111TIP3   OH269747   2.015   6.247   0.424  0.1701 -0.1667  0.3888
16111TIP3    H169748   2.016   6.333   0.466  2.1584  0.3854 -0.6422
16111TIP3    H269749   2.038   6.265   0.333  0.8743 -1.8019  0.2114
16112TIP3   OH269750   4.021   5.598  11.468  0.4362 -0.0016  0.4330
16112TIP3    H169751   4.049   5.637  11.551  0.6830 -0.5318  0.6011
16112TIP3    H269752   4.102   5.575  11.424  0.2887 -0.4211  0.3809
16113TIP3   OH269753   2.154   5.108   5.806  0.6783  0.1335 -0.3304
16113TIP3    H169754   2.109   5.046   5.863  1.6232  0.7305  1.1263
16113TIP3    H269755   2.231   5.061   5.775  1.0149  0.3124  0.2047
16114TIP3   OH269756   4.175   2.269  17.074 -0.6499 -0.2280  0.4645
16114TIP3    H169757   4.104   2.263  17.138 -0.0918 -0.2652  1.0957
16114TIP3    H269758   4.138   2.318  17.001 -0.9887  0.7692  1.2742
16115TIP3   OH269759   5.929   6.375  11.456  0.0812  0.0337  0.3291
16115TIP3    H169760   5.974   6.370  11.372  1.5680 -0.4772  1.1312
16115TIP3    H269761   5.987   6.428  11.511 -1.5849  1.6631  0.6221
16116TIP3   OH269762   3.640   1.178  15.882 -0.1153 -0.2355  0.0009
16116TIP3    H169763   3.568   1.235  15.910 -0.5035 -1.0295  0.6499
16116TIP3    H269764   3.597   1.103  15.840  0.3165 -0.8094  0.5670
16117TIP3   OH269765   1.009   3.114   0.121  0.2003  0.1590  0.3296
16117TIP3    H169766   0.961   3.188   0.159  2.3379  0.3806  2.9422
16117TIP3    H269767   1.065   3.153   0.054  1.4256  1.0241  1.7963
16118TIP3   OH269768   3.301   4.152   2.635  0.1940 -0.4255  0.3722
16118TIP3    H169769   3.296   4.230   2.579  2.3753  0.3076  1.0960
16118TIP3    H269770   3.210   4.125   2.647 -0.5540  1.4856 -0.6306
16119TIP3   OH269771   0.816   2.937   4.394  0.4746 -0.3026 -0.1804
16119TIP3    H169772   0.841   2.851   4.360  1.2425 -0.2353  0.1969
16119TIP3    H269773   0.895   2.990   4.388  0.8030 -0.4218  2.1041
16120TIP3   OH269774   1.932   3.168  13.697 -0.3627 -0.0753 -0.5898
16120TIP3    H169775   2.014   3.211  13.722 -0.0910  0.0467 -1.6551
16120TIP3    H269776   1.960   3.094  13.644 -0.9843  0.5697 -1.8396
16121TIP3   OH269777   4.271   5.763  12.732  0.0206  0.3280  0.1450
16121TIP3    H169778   4.246   5.673  12.754 -0.7963  0.6731  0.6904
16121TIP3    H269779   4.363   5.757  12.705  1.1339 -0.2108  3.5719
16122TIP3   OH269780   4.494   5.448  10.874  0.3760 -0.1400  0.0385
16122TIP3    H169781   4.516   5.519  10.934 -0.1220  0.5292 -0.5554
16122TIP3    H269782   4.452   5.382  10.929  1.9959 -0.5487  0.8166
16123TIP3   OH269783   1.211   1.770   0.839  0.3677  0.1696 -0.7689
16123TIP3    H169784   1.158   1.795   0.764  0.2560  0.3132 -0.6448
16123TIP3    H269785   1.204   1.674   0.843 -2.5481  0.3234  1.1379
16124TIP3   OH269786   2.703   3.254  15.300  0.3075  0.0402 -0.0234
16124TIP3    H169787   2.661   3.169  15.316  0.5148 -0.2400 -0.9302
16124TIP3    H269788   2.786   3.248  15.347 -0.5281  0.5079  1.5858
16125TIP3   OH269789   6.277   0.621  15.399  0.5105 -0.4479  0.0237
16125TIP3    H169790   6.233   0.591  15.320  0.0441  3.8751 -1.6294
16125TIP3    H269791   6.211   0.672  15.445  1.0968 -1.9792  2.7702
16126TIP3   OH269792   1.979   0.188  12.269 -0.5074  0.5140 -0.2061
16126TIP3    H169793   2.023   0.272  12.263 -0.7419  0.6151 -0.5540
16126TIP3    H269794   2.031   0.130  12.213 -0.7963  0.6250 -0.5901
16127TIP3   OH269795   3.092   0.140   1.550 -0.1922  0.1488 -0.0377
16127TIP3    H169796   3.097   0.052   1.513 -3.2108  0.1737 -0.7778
16127TIP3    H269797   3.153   0.192   1.499  1.0780 -1.3411 -0.0885
16128TIP3   OH269798   0.768   1.540   3.191 -0.4929  0.2229 -0.2945
16128TIP3    H169799   0.776   1.630   3.220 -2.7243  0.5315 -0.5160
16128TIP3    H269800   0.843   1.527   3.132 -0.1303  1.8853 -0.2357
16129TIP3   OH269801   2.256   1.409  15.836  0.5774 -0.0683  0.0550
16129TIP3    H169802   2.249   1.493  15.880 -0.7403  1.0302 -2.0900
16129TIP3    H269803   2.323   1.423  15.768 -1.0992 -0.0331 -1.6711
16130TIP3   OH269804   5.061   0.455  15.304 -1.2690  0.2631 -0.1796
16130TIP3    H169805   5.044   0.445  15.398  2.1188 -1.3061  0.4277
16130TIP3    H269806   5.035   0.371  15.267  1.6015 -0.8929  0.2213
16131TIP3   OH269807   4.788   1.153   6.102 -0.3214 -0.3646  0.5190
16131TIP3    H169808   4.866   1.098   6.104  0.0235  0.0789 -0.3757
16131TIP3    H269809   4.774   1.178   6.194  2.4087  2.0341  0.4150
16132TIP3   OH269810   2.243   0.773  14.321  0.3180  0.3018  0.1116
16132TIP3    H169811   2.204   0.700  14.273  0.2925  0.3344  0.0824
16132TIP3    H269812   2.174   0.839  14.325 -0.5682 -0.6444  2.3839
16133TIP3   OH269813   2.132   2.496  11.408  0.3129  0.3341 -0.4270
16133TIP3    H169814   2.148   2.551  11.484 -0.5567  0.6192 -0.4414
16133TIP3    H269815   2.046   2.458  11.423  0.4344 -0.1573 -0.9373
16134TIP3   OH269816   0.842   6.676  15.664  0.6896  0.3509 -0.5211
16134TIP3    H169817   0.920   6.669  15.608  1.0000 -0.1888 -0.0420
16134TIP3    H269818   0.769   6.659  15.605  0.8815  1.4746 -1.1067
16135TIP3   OH269819   4.494   6.272   1.342  0.2920 -0.3277  0.3782
16135TIP3    H169820   4.503   6.177   1.351 -1.2796 -0.4155  1.4289
16135TIP3    H269821   4.443   6.299   1.419  0.4267  1.3249 -0.0722
16136TIP3   OH269822   2.880   2.110  14.834 -0.0176  0.0372  0.3166
16136TIP3    H169823   2.864   2.057  14.756 -0.8433  0.2754  0.3145
16136TIP3    H269824   2.967   2.149  14.820 -0.4461  0.6192 -0.8004
16137TIP3   OH269825   4.954   4.582  11.375 -0.0094  0.2029  0.4969
16137TIP3    H169826   4.942   4.676  11.365  3.1505  0.7601  0.7649
16137TIP3    H269827   4.894   4.543  11.311  0.8001  2.5567 -1.8643
16138TIP3   OH269828   5.627   2.225  14.381 -0.5583  0.1791 -0.3671
16138TIP3    H169829   5.560   2.203  14.446  0.5508  0.8725  1.0634
16138TIP3    H269830   5.579   2.271  14.311 -1.4549  1.4680  1.0453
16139TIP3   OH269831   4.953   3.857   0.128 -0.1922 -0.1844 -0.0026
16139TIP3    H169832   4.945   3.764   0.107 -0.0084 -0.3002  0.4222
16139TIP3    H269833   4.934   3.863   0.222  2.5437 -0.2241  0.6532
16140TIP3   OH269834   0.156   5.200  10.872 -0.2823  0.5923  0.5340
16140TIP3    H169835   0.227   5.189  10.935 -0.3147  2.8563  1.0506
16140TIP3    H269836   0.187   5.268  10.812 -0.9237 -0.3546 -0.9132
16141TIP3   OH269837   6.562   3.872   5.457 -0.4086  0.5010 -0.3707
16141TIP3    H169838   6.631   3.823   5.413  0.3565 -0.4766  1.7588
16141TIP3    H269839   6.492   3.808   5.471 -0.1177  0.4285  0.8906
16142TIP3   OH269840   5.828   4.711  13.045  0.2445  0.3651 -0.8363
16142TIP3    H169841   5.810   4.761  13.125 -0.8981  1.0932 -1.5252
16142TIP3    H269842   5.864   4.628  13.076 -1.5129  0.0578  0.5085
16143TIP3   OH269843   5.563   6.565  12.815  0.5514  0.0772  0.1125
16143TIP3    H169844   5.560   6.658  12.794  0.9022  0.1523  0.3794
16143TIP3    H269845   5.562   6.562  12.910 -0.0473 -0.2203  0.1068
16144TIP3   OH269846   1.572   4.738  12.325 -0.7601  0.1289  0.0419
16144TIP3    H169847   1.624   4.694  12.259 -0.4926  0.7011 -0.1401
16144TIP3    H269848   1.627   4.811  12.354 -0.8244 -0.1786  0.9764
16145TIP3   OH269849   1.869   5.713   0.671 -0.6154 -0.3097  0.4291
16145TIP3    H169850   1.929   5.639   0.688  1.9014  1.9362  2.2037
16145TIP3    H269851   1.883   5.734   0.579 -1.4008 -1.9819 -0.1195
16146TIP3   OH269852   3.304   1.443   1.703  0.0670 -0.3343  0.1393
16146TIP3    H169853   3.222   1.412   1.741 -0.0661  0.6974  0.7258
16146TIP3    H269854   3.369   1.378   1.729 -0.7373 -1.8086 -1.3183
16147TIP3   OH269855   5.277   0.133  15.481  0.2772 -0.1137 -0.2780
16147TIP3    H169856   5.315   0.047  15.466  0.5045  0.0661 -0.7656
16147TIP3    H269857   5.247   0.131  15.572  2.9833  0.3110  0.7002
16148TIP3   OH269858   0.813   3.000   0.699 -0.2596 -0.4167 -0.3389
16148TIP3    H169859   0.781   2.923   0.745  1.5630 -1.1027 -0.1254
16148TIP3    H269860   0.843   2.967   0.614  0.0269  0.1418 -0.4653
16149TIP3   OH269861   4.473   5.883   6.184  0.2301 -0.1281  0.0416
16149TIP3    H169862   4.385   5.857   6.210  0.9254 -2.3707  0.3695
16149TIP3    H269863   4.515   5.802   6.156  2.1848  0.8897 -0.1718
16150TIP3   OH269864   0.544   4.417  14.566 -0.0810 -0.1360 -0.1572
16150TIP3    H169865   0.538   4.323  14.552  0.8508 -0.1033 -0.9251
16150TIP3    H269866   0.627   4.429  14.612  0.0649  0.3423 -0.5299
16151TIP3   OH269867   6.105   3.877   4.188 -0.1233 -0.2099  0.3129
16151TIP3    H169868   6.061   3.896   4.105 -0.2715  0.8611  0.6249
16151TIP3    H269869   6.154   3.957   4.208 -0.1547 -0.4265  1.3007
16152TIP3   OH269870   3.986   1.093   1.888  0.0201 -0.5631  0.5007
16152TIP3    H169871   3.918   1.070   1.951 -0.0310 -2.5142 -0.2064
16152TIP3    H269872   4.068   1.090   1.938 -0.0137 -2.1561  0.5100
16153TIP3   OH269873   0.692   1.029  15.063 -0.1559 -0.4251 -0.0988
16153TIP3    H169874   0.607   1.006  15.026  1.1865 -0.8548 -3.3249
16153TIP3    H269875   0.713   1.114  15.022  1.1986 -0.6350  0.1196
16154TIP3   OH269876   2.231   2.785   0.878  0.9217  0.2013 -0.2997
16154TIP3    H169877   2.316   2.768   0.835  0.0989  0.8128 -2.2967
16154TIP3    H269878   2.188   2.849   0.821 -1.1895 -0.6419  0.2580
16155TIP3   OH269879   5.183   5.404   6.313 -0.0095 -0.3660 -0.0738
16155TIP3    H169880   5.129   5.468   6.267 -1.7036 -1.4687  0.2996
16155TIP3    H269881   5.257   5.455   6.346 -0.9270  1.2570 -0.3916
16156TIP3   OH269882   4.451   6.607   1.740 -0.6701 -0.0357 -0.4292
16156TIP3    H169883   4.389   6.653   1.796  1.0992  0.7221  1.0230
16156TIP3    H269884   4.466   6.523   1.782  0.1098  0.2392 -0.1316
16157TIP3   OH269885   4.186   2.289  15.445 -0.1667  0.2032 -0.0916
16157TIP3    H169886   4.175   2.227  15.518 -0.6232 -1.2207 -1.3215
16157TIP3    H269887   4.096   2.312  15.420 -0.0058  0.8942 -0.0336
16158TIP3   OH269888   6.208   5.431   1.116  0.4197  0.2013 -0.4490
16158TIP3    H169889   6.206   5.446   1.211 -1.6722  3.3949 -0.8180
16158TIP3    H269890   6.156   5.352   1.103  0.3672 -0.0296  1.0549
16159TIP3   OH269891   0.840   4.664   2.768 -0.0868  0.1024 -0.0093
16159TIP3    H169892   0.811   4.706   2.687  1.4405 -0.3443 -0.8249
16159TIP3    H269893   0.790   4.708   2.837 -1.4863  0.4273 -1.1854
16160TIP3   OH269894   3.606   6.125   3.102  0.1334 -0.7603  0.5871
16160TIP3    H169895   3.525   6.081   3.077  0.5312 -0.4149 -1.5516
16160TIP3    H269896   3.649   6.065   3.163 -0.6408 -2.0345 -0.0864
16161TIP3   OH269897   4.517   3.374  16.932  0.2692 -0.3590  0.1698
16161TIP3    H169898   4.497   3.294  16.884 -3.4230  0.0459  0.7436
16161TIP3    H269899   4.570   3.426  16.872  0.2704 -2.0060 -1.3298
16162TIP3   OH269900   5.771   2.138   2.778 -0.0180  0.0578 -0.3421
16162TIP3    H169901   5.771   2.138   2.874 -1.4152  0.3050 -0.3163
16162TIP3    H269902   5.750   2.049   2.754 -0.4883  0.1817 -0.3974
16163TIP3   OH269903   0.255   1.685   5.542 -0.5749 -0.2731  0.4213
16163TIP3    H169904   0.266   1.593   5.517 -1.4256 -0.0837 -0.7865
16163TIP3    H269905   0.225   1.728   5.461 -0.6776  0.9688  1.0918
16164TIP3   OH269906   1.451   5.491  16.898  0.3165 -0.5339  0.7086
16164TIP3    H169907   1.449   5.433  16.974 -0.2622 -1.2123  0.1872
16164TIP3    H269908   1.360   5.497  16.869  0.3361  0.7817  0.8553
16165TIP3   OH269909   3.797   3.341   2.767  0.4703 -0.5390  0.0117
16165TIP3    H169910   3.758   3.264   2.725  1.9378 -1.2242 -0.1464
16165TIP3    H269911   3.792   3.410   2.700  1.4397 -1.2143 -0.7879
16166TIP3   OH269912   5.037   5.550  15.392 -0.0335  0.2208 -0.7277
16166TIP3    H169913   5.129   5.564  15.369  0.0163  1.1089 -0.0361
16166TIP3    H269914   5.035   5.549  15.487 -0.7107 -0.0097 -0.7357
16167TIP3   OH269915   3.592   4.485  12.317  0.3528  0.4703 -0.1334
16167TIP3    H169916   3.666   4.505  12.260 -1.0185 -0.9010 -2.5634
16167TIP3    H269917   3.522   4.460  12.257 -1.5025 -0.1778  2.1591
16168TIP3   OH269918   4.487   4.540  11.284 -0.0964  0.0513  0.2975
16168TIP3    H169919   4.512   4.461  11.332  1.4106  0.9383  1.0387
16168TIP3    H269920   4.438   4.507  11.208 -0.8364 -1.4897  1.3809
16169TIP3   OH269921   2.907   1.213   2.565  0.2462 -0.3839 -0.7478
16169TIP3    H169922   2.932   1.270   2.492  0.6035 -0.3057 -0.5680
16169TIP3    H269923   2.853   1.145   2.525 -2.4360  1.4929 -0.6114
16170TIP3   OH269924   5.941   3.061  17.281  0.1582 -0.2431  0.5458
16170TIP3    H169925   5.951   3.132  17.344  0.3285  1.2543 -1.0912
16170TIP3    H269926   5.986   2.987  17.321  2.1181  1.2431  1.2648
16171TIP3   OH269927   3.096   3.840  13.745  0.1812 -0.2464  0.1150
16171TIP3    H169928   3.045   3.921  13.744  1.0284  0.2966 -0.2010
16171TIP3    H269929   3.139   3.839  13.830  1.2514  0.3492 -0.3927
16172TIP3   OH269930   0.320   1.778  16.255  0.7129 -0.5556  0.0209
16172TIP3    H169931   0.409   1.780  16.220  0.8075 -0.3400  0.2744
16172TIP3    H269932   0.264   1.775  16.177  0.8805  1.2482 -0.2014
16173TIP3   OH269933   5.213   5.286   1.284 -0.4071 -0.5029  0.4808
16173TIP3    H169934   5.123   5.305   1.258 -0.5994 -0.9445  0.8080
16173TIP3    H269935   5.215   5.191   1.297  0.2377 -0.5620 -0.0122
16174TIP3   OH269936   5.643   0.484  12.331  0.0281  0.0931  0.2501
16174TIP3    H169937   5.622   0.423  12.260  0.0074  0.1861  0.1761
16174TIP3    H269938   5.733   0.512  12.313  0.2155 -0.2955  0.5598
16175TIP3   OH269939   6.281   3.800  11.469  0.5630  0.6394  0.2977
16175TIP3    H169940   6.299   3.818  11.561 -0.9690 -0.6707  0.9079
16175TIP3    H269941   6.197   3.753  11.469  1.2456 -0.7593 -1.6175
16176TIP3   OH269942   0.674   6.685   0.626  0.2109 -0.0349 -0.1861
16176TIP3    H169943   0.678   6.613   0.563  3.4313  1.2401 -1.6917
16176TIP3    H269944   0.683   6.643   0.711 -0.5845 -1.5695 -0.8313
16177TIP3   OH269945   3.382   5.832   2.345  0.3924 -1.0754 -0.3030
16177TIP3    H169946   3.383   5.924   2.369 -2.8518 -0.9519 -0.1777
16177TIP3    H269947   3.416   5.787   2.422 -2.0506 -0.1468  1.4681
16178TIP3   OH269948   0.795   2.055   0.640  0.7201 -0.2725  0.1414
16178TIP3    H169949   0.736   2.011   0.578  0.4470 -0.8629  0.8028
16178TIP3    H269950   0.742   2.067   0.719  0.5486  1.9541 -0.2442
16179TIP3   OH269951   0.306   2.851   2.937  0.2094 -0.0757  0.3483
16179TIP3    H169952   0.318   2.863   3.031 -0.1951  1.0654  0.2747
16179TIP3    H269953   0.393   2.867   2.900  0.2141  0.2102  0.4755
16180TIP3   OH269954   5.264   0.055   5.828  0.4408 -0.2258  0.1421
16180TIP3    H169955   5.227   0.127   5.879  1.2687  0.9000 -0.7963
16180TIP3    H269956   5.356   0.078   5.815  0.8835 -1.7385  0.2847
16181TIP3   OH269957   5.029   3.873   3.828 -0.0003 -0.0043  0.0968
16181TIP3    H169958   4.970   3.826   3.887  1.0190 -1.1220  0.2661
16181TIP3    H269959   5.070   3.939   3.883 -0.8043  0.5322  0.0642
16182TIP3   OH269960   5.337   1.101  12.215  0.1638 -0.6764 -0.2306
16182TIP3    H169961   5.326   1.177  12.157  1.5616  0.2939  0.7002
16182TIP3    H269962   5.430   1.080  12.208  0.8093  0.5568  2.8847
16183TIP3   OH269963   4.592   1.955   3.591  0.1714  0.1275  0.4094
16183TIP3    H169964   4.649   2.017   3.547  0.6300 -0.9578 -0.5901
16183TIP3    H269965   4.521   2.008   3.628  0.9064  1.2927  0.1755
16184TIP3   OH269966   1.819   5.409  13.489  0.1452  0.5313  0.3801
16184TIP3    H169967   1.823   5.316  13.512 -0.6648  1.0207  2.8070
16184TIP3    H269968   1.860   5.454  13.564 -1.8854  2.2415  0.5500
16185TIP3   OH269969   1.983   2.186  11.918  0.4732 -0.2742 -0.3194
16185TIP3    H169970   2.001   2.279  11.935  0.0004 -0.0934 -0.7838
16185TIP3    H269971   1.958   2.183  11.826 -1.4125 -0.5740  0.1581
16186TIP3   OH269972   3.040   0.168  13.464 -0.3826 -0.5163 -0.6963
16186TIP3    H169973   2.987   0.107  13.516 -0.8276  1.4412  1.3129
16186TIP3    H269974   3.017   0.254  13.499  2.8038  0.5619 -0.9830
16187TIP3   OH269975   3.277   3.364   5.183 -0.3462  0.1353 -0.5201
16187TIP3    H169976   3.212   3.311   5.136 -0.4859 -0.1185 -0.0469
16187TIP3    H269977   3.270   3.336   5.274  1.6009 -1.1123 -0.6987
16188TIP3   OH269978   2.290   0.578   1.865 -0.1026  0.2998 -0.0638
16188TIP3    H169979   2.385   0.581   1.854 -0.0671  1.2041  0.3952
16188TIP3    H269980   2.277   0.549   1.956 -0.1417  4.0201  1.2858
16189TIP3   OH269981   3.113   2.047   1.373 -0.0442  0.0401  0.7525
16189TIP3    H169982   3.138   1.959   1.400 -1.1619 -0.2010  1.0698
16189TIP3    H269983   3.191   2.100   1.389  0.5643 -0.8438  0.7791
16190TIP3   OH269984   4.797   2.630   0.740 -0.8542 -0.3258 -0.1571
16190TIP3    H169985   4.823   2.690   0.810 -3.8145  0.5169  0.3447
16190TIP3    H269986   4.812   2.543   0.776  0.9321  0.0519  0.1280
16191TIP3   OH269987   4.431   2.136   3.720  0.2691 -0.3612  0.2341
16191TIP3    H169988   4.336   2.142   3.717  0.0654 -2.3392 -3.1563
16191TIP3    H269989   4.462   2.212   3.670  0.5029  0.3770  1.4826
16192TIP3   OH269990   3.607   1.968  16.754 -0.2860 -0.7248 -0.2095
16192TIP3    H169991   3.641   1.887  16.715 -1.0529 -0.5765 -1.2458
16192TIP3    H269992   3.682   2.006  16.800  0.7653 -0.7815 -1.7946
16193TIP3   OH269993   6.180   6.271   0.944 -0.2036  0.0764 -0.2748
16193TIP3    H169994   6.183   6.333   0.871 -1.3387  0.8499  0.3172
16193TIP3    H269995   6.087   6.249   0.953  0.0810 -1.0241  0.1048
16194TIP3   OH269996   3.401   1.907   4.270 -0.2455 -0.1048  0.5452
16194TIP3    H169997   3.384   1.860   4.352 -0.6701 -0.1303  0.4452
16194TIP3    H269998   3.464   1.975   4.294 -0.2323 -0.2261  0.8552
16195TIP3   OH269999   1.226   1.764   0.464 -0.0360  0.1156 -0.3574
16195TIP3    H170000   1.292   1.826   0.434  0.0243  0.4773  0.4903
16195TIP3    H270001   1.143   1.805   0.443  0.0055  0.3153 -0.1307
16196TIP3   OH270002   0.914   5.075  11.671  0.0290  0.4404  0.1899
16196TIP3    H170003   0.848   5.118  11.726 -0.6535 -0.9057  0.4518
16196TIP3    H270004   0.956   5.147  11.623  0.0012  1.5515  1.7618
16197TIP3   OH270005   5.892   5.784   5.303  0.4052 -0.1349  0.2000
16197TIP3    H170006   5.867   5.826   5.385  0.3446  2.0599 -0.8732
16197TIP3    H270007   5.954   5.716   5.329  0.4824  0.5768  2.0471
16198TIP3   OH270008   6.736   3.497  11.586 -0.0679  0.0995 -0.0663
16198TIP3    H170009   6.692   3.577  11.616 -0.4990 -1.0233  2.6135
16198TIP3    H270010   6.716   3.492  11.493 -2.6870  1.4841  0.3225
16199TIP3   OH270011   4.426   3.995  12.016  0.1674  0.0511 -0.2510
16199TIP3    H170012   4.391   3.906  12.015 -3.8607  1.3680 -3.9736
16199TIP3    H270013   4.499   3.993  11.954 -1.1127 -0.3256 -1.7804
16200TIP3   OH270014   2.421   3.416   0.638 -0.0214 -0.6111 -0.6045
16200TIP3    H170015   2.345   3.418   0.697  1.6094  0.9371  1.6060
16200TIP3    H270016   2.428   3.505   0.604 -0.2142 -1.1950 -2.2781
16201TIP3   OH270017   5.724   4.352   3.397  0.4330 -0.3349 -0.1403
16201TIP3    H170018   5.681   4.425   3.443  0.4627 -0.2294 -0.2782
16201TIP3    H270019   5.816   4.359   3.422  0.3435 -0.6690  0.2976
16202TIP3   OH270020   2.687   5.726   2.573 -0.6050  0.4434 -0.5983
16202TIP3    H170021   2.778   5.753   2.580 -0.4939  0.0399 -0.4907
16202TIP3    H270022   2.689   5.631   2.580 -1.1676  0.5219  0.9538
16203TIP3   OH270023   4.894   1.590  12.611 -0.1715 -0.1668  0.0649
16203TIP3    H170024   4.966   1.601  12.549 -0.5264  0.0717 -0.3153
16203TIP3    H270025   4.829   1.539  12.563  0.2629 -1.4915  0.8375
16204TIP3   OH270026   2.217   2.592   1.087  0.4682  0.1833 -0.0967
16204TIP3    H170027   2.243   2.646   1.012 -0.1185 -0.5421 -0.8520
16204TIP3    H270028   2.143   2.639   1.125  0.9722  0.7212  0.2341
16205TIP3   OH270029   4.544   2.015  15.549  0.0517 -0.0644 -0.6575
16205TIP3    H170030   4.570   2.107  15.554  0.2759  0.0049 -2.5055
16205TIP3    H270031   4.610   1.969  15.600 -1.1633  0.9354  1.9778
16206TIP3   OH270032   3.968   1.875  11.848  0.2988 -0.1014  0.3127
16206TIP3    H170033   3.927   1.856  11.932 -0.1045 -0.8843 -0.0526
16206TIP3    H270034   3.904   1.845  11.783  2.5278 -4.0058 -0.3428
16207TIP3   OH270035   6.764   1.332   4.359  0.1620 -0.3534  0.0340
16207TIP3    H170036   6.706   1.359   4.288  0.4603  1.0644  0.2989
16207TIP3    H270037   6.814   1.258   4.323 -2.2475 -2.0867  0.0378
16208TIP3   OH270038   2.145   5.462   4.482 -0.1987 -0.4011 -0.3157
16208TIP3    H170039   2.195   5.385   4.510  0.0638  0.6331  2.4226
16208TIP3    H270040   2.073   5.466   4.545  1.1572  2.8916  1.2219
16209TIP3   OH270041   3.888   5.518   2.922 -0.5220 -0.2590 -0.1873
16209TIP3    H170042   3.942   5.565   2.858 -0.0864 -0.0408  0.3346
16209TIP3    H270043   3.814   5.575   2.939  1.0323  1.2676  2.0226
16210TIP3   OH270044   3.949   2.005  13.886  0.0126  0.2220  0.6962
16210TIP3    H170045   3.968   1.924  13.933  2.3561 -0.3849 -1.1467
16210TIP3    H270046   4.018   2.066  13.915  1.0125  0.0853 -1.2470
16211TIP3   OH270047   1.483   2.338   2.416  0.2438 -0.2703  0.2418
16211TIP3    H170048   1.540   2.389   2.359  0.2115 -0.5487 -0.0444
16211TIP3    H270049   1.468   2.394   2.492  3.7354 -1.4714  2.0224
16212TIP3   OH270050   5.374   1.639   4.398  0.0090 -0.6566  0.0859
16212TIP3    H170051   5.395   1.547   4.417  0.7853 -0.6203 -0.5092
16212TIP3    H270052   5.446   1.668   4.342 -0.2603  0.3050  0.2264
16213TIP3   OH270053   0.195   2.673  17.279 -0.2849  0.8412  0.2050
16213TIP3    H170054   0.263   2.644  17.218 -0.3889  1.1924 -0.0807
16213TIP3    H270055   0.129   2.604  17.277 -0.4151  0.9782 -0.2839
16214TIP3   OH270056   0.020   0.848   3.550  0.1989 -0.1706 -0.0157
16214TIP3    H170057   0.051   0.920   3.495  0.7017 -0.6938 -0.4362
16214TIP3    H270058   0.079   0.776   3.529  0.5451 -0.3251  1.3733
16215TIP3   OH270059   2.001   4.307   3.713 -0.0363  0.0769 -0.7496
16215TIP3    H170060   1.916   4.272   3.689  0.5444  0.2051 -3.2836
16215TIP3    H270061   2.058   4.230   3.721 -0.4731 -0.0750  1.6850
16216TIP3   OH270062   0.908   0.438  16.376 -0.1632 -0.0920  0.4011
16216TIP3    H170063   0.838   0.503  16.381 -0.2949 -0.2217  0.2485
16216TIP3    H270064   0.882   0.381  16.304  0.4683  0.2903 -0.1376
16217TIP3   OH270065   4.814   3.958  10.489 -0.1927  0.4480 -0.3875
16217TIP3    H170066   4.808   3.872  10.531  0.4146  0.2595 -0.6803
16217TIP3    H270067   4.904   3.963  10.457 -0.4709  0.8363 -1.1387
16218TIP3   OH270068   2.604   0.678  16.794 -0.6178 -0.4628 -0.0025
16218TIP3    H170069   2.666   0.737  16.838  0.3781 -0.6719 -1.0767
16218TIP3    H270070   2.522   0.728  16.790  0.7174  1.7820 -2.7734
16219TIP3   OH270071   2.269   2.019   4.691  0.2623 -0.2583 -0.5808
16219TIP3    H170072   2.297   2.067   4.612  0.9602 -0.3618 -0.4047
16219TIP3    H270073   2.227   2.085   4.746 -0.0847 -0.1523 -0.9712
16220TIP3   OH270074   0.516   4.077   2.964 -0.3358  0.3705  0.0417
16220TIP3    H170075   0.443   4.106   2.909 -0.6486 -1.1178 -0.3799
16220TIP3    H270076   0.505   4.126   3.046 -0.5036  1.7996 -0.8065
16221TIP3   OH270077   0.759   2.244  15.365  0.8500 -0.3070 -0.1667
16221TIP3    H170078   0.728   2.199  15.286 -0.6172  0.0183  0.1956
16221TIP3    H270079   0.680   2.281  15.404  1.9298  2.2288 -0.2132
16222TIP3   OH270080   2.923   3.291  16.462  0.7500  0.1238 -0.3705
16222TIP3    H170081   2.829   3.296  16.445  0.5523  0.3742  0.7360
16222TIP3    H270082   2.957   3.377  16.438  0.7308 -0.0100 -0.8980
16223TIP3   OH270083   5.351   2.428   2.763  0.1763  0.1688 -0.6376
16223TIP3    H170084   5.320   2.430   2.854 -0.2819 -1.0734 -0.7440
16223TIP3    H270085   5.423   2.365   2.764  0.4332  0.4558 -1.0561
16224TIP3   OH270086   4.865   4.342  17.180 -0.0029  0.0361  0.1844
16224TIP3    H170087   4.774   4.353  17.208  0.3146  0.2595  1.1737
16224TIP3    H270088   4.887   4.253  17.208  0.4884  0.4557  1.1749
16225TIP3   OH270089   1.813   4.782  14.008 -0.0198 -0.0727  0.1602
16225TIP3    H170090   1.811   4.743  14.095 -1.6300 -1.3438 -0.3932
16225TIP3    H270091   1.722   4.808  13.991 -0.0569 -1.2255 -1.6938
16226TIP3   OH270092   1.728   4.464  14.408  0.5353 -0.4730 -0.1196
16226TIP3    H170093   1.647   4.428  14.371 -0.7509 -0.4624  2.4183
16226TIP3    H270094   1.780   4.386  14.430  0.4998 -0.5478 -0.2999
16227TIP3   OH270095   3.340   1.972  11.629 -0.5318  0.1889 -0.3810
16227TIP3    H170096   3.428   1.976  11.666 -0.8013 -0.1479  0.3093
16227TIP3    H270097   3.321   1.878  11.621 -0.8356  0.2594 -0.5181
16228TIP3   OH270098   6.734   4.990   4.074  0.0535 -0.3690 -0.2176
16228TIP3    H170099   6.641   5.009   4.087  0.6298  1.9219  0.9605
16228TIP3    H270100   6.756   4.931   4.147 -0.6469 -1.7829 -1.0935
16229TIP3   OH270101   3.282   4.290   5.556 -0.6348  0.2871  0.1410
16229TIP3    H170102   3.373   4.298   5.527 -1.3523 -2.3645 -3.7292
16229TIP3    H270103   3.243   4.375   5.537  0.7622  1.1071  0.8134
16230TIP3   OH270104   3.043   1.280  15.884  0.4130 -0.3807 -0.2963
16230TIP3    H170105   3.130   1.258  15.851  0.4765  0.4246 -0.6638
16230TIP3    H270106   2.983   1.233  15.826  0.6153 -2.6766  1.2171
16231TIP3   OH270107   5.373   2.349   4.564  0.2068  0.7435 -0.3120
16231TIP3    H170108   5.331   2.321   4.645 -0.6844  1.6378 -0.4396
16231TIP3    H270109   5.409   2.269   4.526 -1.6465 -0.1446 -0.3322
16232TIP3   OH270110   0.100   0.294  15.337 -0.4709 -0.3488 -0.1870
16232TIP3    H170111   0.075   0.387  15.338  0.4592 -0.0854 -0.3121
16232TIP3    H270112   0.095   0.269  15.245  1.7042  0.2924 -0.5441
16233TIP3   OH270113   3.245   3.707   5.618 -0.4701 -0.1930  0.2749
16233TIP3    H170114   3.292   3.713   5.534 -0.9306 -0.1587  0.0159
16233TIP3    H270115   3.159   3.745   5.600 -0.1218  1.0302  1.1197
16234TIP3   OH270116   3.370   4.898   4.603  0.6407  0.9497  0.0302
16234TIP3    H170117   3.309   4.825   4.593  0.6640  0.5979  1.9876
16234TIP3    H270118   3.450   4.868   4.560 -0.4086  1.3224 -2.3455
16235TIP3   OH270119   6.424   1.025  12.533 -0.5476  0.3384  0.1515
16235TIP3    H170120   6.332   1.036  12.508 -0.8675 -1.9052  0.1698
16235TIP3    H270121   6.434   0.931  12.548  1.2200  0.7942  2.3364
16236TIP3   OH270122   6.248   5.826   5.683 -0.0409 -0.1168 -0.1562
16236TIP3    H170123   6.248   5.806   5.589 -0.0490 -1.1182  0.0467
16236TIP3    H270124   6.165   5.791   5.715 -0.7097  1.5207 -0.0217
16237TIP3   OH270125   2.453   2.235   6.015 -0.0223 -0.0538  0.4642
16237TIP3    H170126   2.414   2.190   6.089  0.8107  0.8813  1.5007
16237TIP3    H270127   2.506   2.305   6.054  3.3181 -1.6908 -0.7861
16238TIP3   OH270128   5.114   4.516  13.050  0.1482  0.2398 -0.1752
16238TIP3    H170129   5.070   4.434  13.029 -0.9939  0.6865  0.4169
16238TIP3    H270130   5.088   4.535  13.140 -1.4079  2.3665 -1.0015
16239TIP3   OH270131   1.366   4.449   0.196  0.1369  0.3135  0.1764
16239TIP3    H170132   1.378   4.451   0.101  3.2418 -0.7090  0.4293
16239TIP3    H270133   1.288   4.395   0.209 -1.9007  2.5401 -1.7563
16240TIP3   OH270134   1.293   6.536  16.127  0.5653 -0.4016  0.0822
16240TIP3    H170135   1.366   6.509  16.071 -0.3738 -0.7640 -1.0079
16240TIP3    H270136   1.219   6.482  16.098 -0.7494  1.5630 -0.4487
16241TIP3   OH270137   2.638   3.100   2.335  0.3170 -0.2181 -0.0882
16241TIP3    H170138   2.678   3.015   2.321  0.9658 -0.3302  2.0658
16241TIP3    H270139   2.554   3.081   2.378  0.5820  0.2184  0.6382
16242TIP3   OH270140   3.921   5.755   1.969 -0.2255  0.3712  0.3444
16242TIP3    H170141   3.862   5.746   1.895 -0.9889 -1.3598  1.0974
16242TIP3    H270142   3.864   5.777   2.043  0.0627 -0.9010  0.9946
16243TIP3   OH270143   5.808   3.903  13.272 -0.1802 -0.7790  0.2225
16243TIP3    H170144   5.884   3.927  13.219 -1.0811  2.0181  0.0036
16243TIP3    H270145   5.811   3.808  13.278  2.2290 -0.8828 -1.4062
16244TIP3   OH270146   0.207   0.787  15.776  0.2132 -0.5843  0.1448
16244TIP3    H170147   0.282   0.796  15.835 -0.0358  0.6494  0.3164
16244TIP3    H270148   0.148   0.859  15.802  0.3016  0.3001 -1.9025
16245TIP3   OH270149   6.010   2.058   0.850 -0.6376 -0.1444 -0.6880
16245TIP3    H170150   5.929   2.063   0.799 -0.7259 -1.5984 -0.7260
16245TIP3    H270151   5.987   2.007   0.927 -0.4968  2.0220  0.8781
16246TIP3   OH270152   1.455   0.561   5.618 -0.2437  0.5689  0.1321
16246TIP3    H170153   1.441   0.504   5.694 -1.3808 -0.6248 -0.9144
16246TIP3    H270154   1.503   0.506   5.555 -0.7120  1.0031 -0.6224
16247TIP3   OH270155   2.569   2.854   5.162 -0.8406 -0.2757 -0.2277
16247TIP3    H170156   2.519   2.871   5.242 -0.7513  0.8455 -0.3932
16247TIP3    H270157   2.631   2.926   5.156 -0.9448 -0.2608 -1.3827
16248TIP3   OH270158   3.437   4.943  12.508 -0.4652  0.3942 -0.1032
16248TIP3    H170159   3.510   4.882  12.499 -1.2268 -0.3479 -1.6805
16248TIP3    H270160   3.359   4.889  12.498 -1.2093  1.3626  0.2523
16249TIP3   OH270161   0.505   0.068  13.239  0.4732 -0.2817 -0.1883
16249TIP3    H170162   0.515   0.006  13.311 -0.0154 -1.8013 -1.3890
16249TIP3    H270163   0.582   0.125  13.246  1.9070 -2.1204 -0.0608
16250TIP3   OH270164   0.308   0.432   2.572  0.0892 -0.3060 -0.7978
16250TIP3    H170165   0.226   0.384   2.578 -1.0219  1.7090  1.5509
16250TIP3    H270166   0.283   0.518   2.540  1.3042  0.3156 -0.1304
16251TIP3   OH270167   3.137   1.322  16.676  0.3734 -0.1221 -0.2807
16251TIP3    H170168   3.114   1.237  16.640 -0.0586  0.2058 -0.8042
16251TIP3    H270169   3.191   1.363  16.609 -0.4661  0.5086 -0.5868
16252TIP3   OH270170   0.657   4.514   5.425  0.0154 -0.4563  0.3190
16252TIP3    H170171   0.638   4.580   5.359 -1.0677 -0.9729  0.0923
16252TIP3    H270172   0.753   4.511   5.430  0.0840  0.4850 -0.3054
16253TIP3   OH270173   2.512   3.078   1.359 -0.1589  0.5020 -0.0232
16253TIP3    H170174   2.530   3.135   1.433 -1.0430 -2.6859  2.9375
16253TIP3    H270175   2.582   3.013   1.361  0.5638  1.0258 -2.9570
16254TIP3   OH270176   6.628   1.184  16.544  0.5154  0.6714  0.7318
16254TIP3    H170177   6.613   1.099  16.585  1.6934 -1.4168 -2.7254
16254TIP3    H270178   6.723   1.193  16.542  0.4656  1.1427 -0.5860
16255TIP3   OH270179   2.643   6.376  15.826  0.2306  0.4864  0.4200
16255TIP3    H170180   2.729   6.399  15.861 -0.1024  1.5127  0.5837
16255TIP3    H270181   2.638   6.420  15.741  0.2643 -0.4107 -0.0591
16256TIP3   OH270182   3.972   6.751  13.080 -0.3888  0.0458  0.5451
16256TIP3    H170183   3.947   6.796  13.000  0.6845 -0.4706 -0.1058
16256TIP3    H270184   3.958   6.815  13.150 -1.7170  0.3654  0.0072
16257TIP3   OH270185   1.772   2.175   3.634 -0.2225  0.3353 -0.4182
16257TIP3    H170186   1.738   2.233   3.703  0.3863  2.0744 -1.5234
16257TIP3    H270187   1.717   2.194   3.558 -1.2763 -2.0020 -0.3154
16258TIP3   OH270188   3.074   4.069  12.115  0.2504  0.1977 -0.0283
16258TIP3    H170189   3.085   4.154  12.158  2.3753 -0.3073  0.5622
16258TIP3    H270190   2.981   4.064  12.095 -0.1773  2.0344  1.2309
16259TIP3   OH270191   3.743   1.494  16.276  0.7565  0.2663  0.5002
16259TIP3    H170192   3.777   1.580  16.250  1.5749 -0.1090  0.2813
16259TIP3    H270193   3.773   1.435  16.206  1.7439 -0.5133  1.5477
16260TIP3   OH270194   1.869   6.434  11.273  0.6716  0.4903  0.1219
16260TIP3    H170195   1.865   6.339  11.262 -1.9545  0.4831  0.3220
16260TIP3    H270196   1.960   6.456  11.258  1.5298 -2.1440  0.7966
16261TIP3   OH270197   5.801   4.398   5.861 -0.2110  0.3620  0.0181
16261TIP3    H170198   5.728   4.416   5.921 -0.5154 -0.6321 -0.0426
16261TIP3    H270199   5.824   4.307   5.878  1.4302  0.8291  0.4758
16262TIP3   OH270200   1.040   1.203   5.749  0.0408  0.3528  0.3410
16262TIP3    H170201   1.002   1.212   5.837 -0.2656 -0.7059  0.3252
16262TIP3    H270202   1.039   1.292   5.714 -1.0389  0.5887  0.9172
16263TIP3   OH270203   2.597   2.829  13.335  0.5144  0.1354 -0.0978
16263TIP3    H170204   2.617   2.907  13.386  1.7579 -0.2599  0.0677
16263TIP3    H270205   2.574   2.862  13.248  0.6884  0.7005  0.0645
16264TIP3   OH270206   1.676   4.457   6.471  0.4075 -0.7496 -0.0147
16264TIP3    H170207   1.619   4.530   6.494  0.5252 -0.8016  0.4604
16264TIP3    H270208   1.624   4.379   6.491  0.2827 -0.8003 -0.5184
16265TIP3   OH270209   0.117   1.616   2.300  0.0623 -0.1683 -0.2509
16265TIP3    H170210   0.202   1.617   2.345 -0.5332  1.1199  0.9103
16265TIP3    H270211   0.101   1.523   2.281  1.9402 -0.3939 -0.9502
16266TIP3   OH270212   0.309   4.105  16.863 -0.1351  0.1150  0.1303
16266TIP3    H170213   0.301   4.115  16.958 -0.4731 -0.3731  0.1546
16266TIP3    H270214   0.219   4.099  16.832 -0.0586  1.1003 -0.3191
16267TIP3   OH270215   4.250   6.307   1.756  0.0251  0.0968  0.4213
16267TIP3    H170216   4.276   6.382   1.809 -0.0213  0.7723 -0.4840
16267TIP3    H270217   4.268   6.231   1.811  0.0655  0.7652  1.3590
16268TIP3   OH270218   0.984   6.413   3.117 -0.0503 -0.4265  0.0423
16268TIP3    H170219   1.025   6.499   3.106  1.4677 -0.9886  1.0178
16268TIP3    H270220   0.972   6.380   3.027 -2.2326  1.4474 -0.4595
16269TIP3   OH270221   1.016   5.307  16.223 -0.1604  0.5749 -0.0900
16269TIP3    H170222   0.920   5.309  16.231 -0.1966  1.1549 -0.6559
16269TIP3    H270223   1.047   5.325  16.312 -0.5738  1.1920 -0.0676
16270TIP3   OH270224   5.408   6.591  14.174  0.3322 -0.4945  0.4659
16270TIP3    H170225   5.445   6.516  14.220 -0.3658 -0.2762  1.4218
16270TIP3    H270226   5.459   6.666  14.203  2.8744 -0.8330 -2.5596
16271TIP3   OH270227   2.279   4.799   3.908 -0.0732 -0.6414  0.2371
16271TIP3    H170228   2.207   4.737   3.909 -1.7499  1.2160  0.6936
16271TIP3    H270229   2.273   4.842   3.823  0.3813 -0.3255  0.3582
16272TIP3   OH270230   4.015   2.372  13.402  0.0974  0.1121  0.2574
16272TIP3    H170231   3.922   2.361  13.421 -0.0467  1.3334  0.3381
16272TIP3    H270232   4.020   2.453  13.351  1.3238  1.5058  2.4016
16273TIP3   OH270233   3.819   3.047  15.108  0.5168  0.2184  0.1594
16273TIP3    H170234   3.866   3.017  15.186  0.7205  1.5530  0.5760
16273TIP3    H270235   3.797   2.966  15.060  3.3294 -0.4528 -0.1392
16274TIP3   OH270236   3.595   4.416  11.871 -0.2487  0.5350  0.1251
16274TIP3    H170237   3.508   4.454  11.861 -0.6446 -0.1261  0.9323
16274TIP3    H270238   3.653   4.491  11.878 -0.8011  0.9868 -0.0405
16275TIP3   OH270239   4.984   5.244   5.383 -0.5799 -0.5580  0.0808
16275TIP3    H170240   5.041   5.238   5.459 -1.5047 -0.4528  0.8072
16275TIP3    H270241   5.027   5.192   5.316 -0.0799 -1.2132  0.8917
16276TIP3   OH270242   6.398   2.320  11.822 -0.1841  0.9098  0.3448
16276TIP3    H170243   6.445   2.240  11.799  0.1639  1.2684 -0.1991
16276TIP3    H270244   6.314   2.289  11.856  0.0175  0.3069  0.3065
16277TIP3   OH270245   4.143   0.794   1.385 -0.2561 -0.2604  0.1042
16277TIP3    H170246   4.124   0.715   1.334 -0.4042  0.8887 -1.6975
16277TIP3    H270247   4.058   0.825   1.414 -0.2335 -0.4980  0.4369
16278TIP3   OH270248   1.365   5.677   0.005  0.2156 -0.1313 -0.1005
16278TIP3    H170249   1.405   5.732  -0.062 -0.1660  0.2561 -0.0173
16278TIP3    H270250   1.339   5.597  -0.040  1.4453 -0.5665 -0.0769
16279TIP3   OH270251   4.449   1.815  13.889  0.3506 -0.2817 -0.3068
16279TIP3    H170252   4.486   1.770  13.964 -1.7687  1.9822  2.3415
16279TIP3    H270253   4.502   1.894  13.879  0.3765 -0.3701 -0.9508
16280TIP3   OH270254   4.364   5.581  13.853 -0.1723 -0.1352 -0.1477
16280TIP3    H170255   4.337   5.506  13.906  1.4957  0.0682  1.0815
16280TIP3    H270256   4.356   5.550  13.762  0.6833 -1.8992  0.3278
16281TIP3   OH270257   0.342   4.627  15.037 -0.1604 -0.2215  0.3306
16281TIP3    H170258   0.357   4.538  15.004 -0.5598 -0.5248  0.9447
16281TIP3    H270259   0.427   4.670  15.031  0.0508 -0.6718  0.0992
16282TIP3   OH270260   5.327   6.264   5.101  0.5245 -0.1428 -0.6873
16282TIP3    H170261   5.339   6.253   5.006  1.2631  3.7434 -1.2077
16282TIP3    H270262   5.408   6.305   5.131 -0.3510  0.2478  1.3140
16283TIP3   OH270263   1.736   5.258  13.075  0.6338 -0.1721  0.6343
16283TIP3    H170264   1.768   5.334  13.124  0.0558  0.1114  0.5841
16283TIP3    H270265   1.704   5.198  13.143 -1.7563  0.9427  0.5843
16284TIP3   OH270266   6.622   3.754  15.841 -0.0830 -0.0484  0.7581
16284TIP3    H170267   6.675   3.825  15.804  0.4635  0.1752  1.9053
16284TIP3    H270268   6.543   3.798  15.873 -1.3001 -0.4578 -1.4533
16285TIP3   OH270269   3.388   3.552  15.590 -0.2949 -0.0510  0.2120
16285TIP3    H170270   3.387   3.503  15.508  1.2232  1.0265 -0.4894
16285TIP3    H270271   3.350   3.637  15.568  0.1113  0.2410  0.6306
16286TIP3   OH270272   0.905   4.416  12.065  0.0909 -0.7906  0.3827
16286TIP3    H170273   0.952   4.341  12.029  0.2417 -0.3089 -0.4391
16286TIP3    H270274   0.813   4.393  12.057  0.1027 -0.4942 -0.7713
16287TIP3   OH270275   4.669   5.887   4.424  0.4078  0.4503  0.2118
16287TIP3    H170276   4.723   5.878   4.345  2.7888  1.7298  1.5916
16287TIP3    H270277   4.643   5.979   4.424  0.3842  0.4445  0.9016
16288TIP3   OH270278   0.059   6.128  16.354 -0.2764 -0.4779  0.1060
16288TIP3    H170279   0.017   6.106  16.438  1.6891 -0.6743  1.0936
16288TIP3    H270280   0.007   6.201  16.321  0.3403  1.3120  2.7567
16289TIP3   OH270281   5.374   1.805   0.857 -0.4334  0.4528  0.5127
16289TIP3    H170282   5.381   1.857   0.937  0.3026  2.3119 -0.7134
16289TIP3    H270283   5.336   1.864   0.793 -0.0789 -0.6866 -0.7940
16290TIP3   OH270284   6.115   4.720   1.529  0.8960  0.0740  0.2449
16290TIP3    H170285   6.133   4.657   1.459 -1.1138 -0.5502  0.2463
16290TIP3    H270286   6.102   4.803   1.483  1.1258 -0.0033  0.0333
16291TIP3   OH270287   6.268   5.431   0.661  0.4551  0.1226  0.4224
16291TIP3    H170288   6.184   5.392   0.635 -0.7043  1.9822  1.0811
16291TIP3    H270289   6.291   5.386   0.743  0.5662 -0.9874 -0.2002
16292TIP3   OH270290   3.478   5.792   4.997 -0.1293  0.2781  0.1048
16292TIP3    H170291   3.450   5.751   5.079 -1.1627  0.8732  0.0566
16292TIP3    H270292   3.502   5.718   4.940 -0.8321 -0.2052  0.4271
16293TIP3   OH270293   6.205   0.116   2.548 -0.2572  0.3477 -0.4608
16293TIP3    H170294   6.143   0.124   2.620  0.6457  0.0547  0.3764
16293TIP3    H270295   6.287   0.151   2.584  0.5132 -0.9110 -0.9543
16294TIP3   OH270296   5.994   2.131  17.253  0.3062 -0.1143 -0.2775
16294TIP3    H170297   6.081   2.172  17.244 -0.1940  0.6330 -2.1741
16294TIP3    H270298   5.937   2.185  17.198 -1.0469 -1.5089 -0.2869
16295TIP3   OH270299   2.026   3.721  12.287 -0.2990  0.4058  0.1411
16295TIP3    H170300   1.967   3.730  12.362  1.4834 -0.1413  1.6981
16295TIP3    H270301   2.050   3.628  12.287  0.5540  0.6152 -0.4392
16296TIP3   OH270302   2.874   4.656   4.706  0.2214  0.7165  0.9669
16296TIP3    H170303   2.955   4.609   4.724  0.5692  0.8013 -0.2710
16296TIP3    H270304   2.888   4.696   4.620 -1.7864 -0.8000 -0.1617
16297TIP3   OH270305   6.755   1.799  12.220  0.3843  0.4532  0.1425
16297TIP3    H170306   6.739   1.743  12.144 -0.4081 -0.1951  0.7814
16297TIP3    H270307   6.699   1.764  12.289  2.3933 -0.1014  1.6036
16298TIP3   OH270308   0.499   4.966   4.721  0.3292  0.4383 -0.2673
16298TIP3    H170309   0.541   5.050   4.739 -0.5576  0.9068 -0.3528
16298TIP3    H270310   0.569   4.902   4.733  0.9266  1.1521  0.1671
16299TIP3   OH270311   3.639   3.296   0.875  0.0791 -0.0930 -1.1449
16299TIP3    H170312   3.680   3.209   0.879  1.2412  0.3173 -2.8190
16299TIP3    H270313   3.653   3.333   0.962 -0.8302 -1.7192 -0.2557
16300TIP3   OH270314   1.594   2.579  12.406  0.1278 -0.5238  0.1439
16300TIP3    H170315   1.623   2.632  12.480 -0.8785  3.2237 -1.8537
16300TIP3    H270316   1.672   2.572  12.350  0.2888 -1.3018  0.4581
16301TIP3   OH270317   1.646   1.601   2.296 -0.1125  0.4163  0.1696
16301TIP3    H170318   1.699   1.592   2.217 -0.5384 -0.5000 -0.0245
16301TIP3    H270319   1.584   1.671   2.275 -0.7271 -0.3337 -0.6132
16302TIP3   OH270320   0.309   0.765  11.846  0.1298  0.6231 -0.3506
16302TIP3    H170321   0.320   0.775  11.751  0.0366  0.1852 -0.4102
16302TIP3    H270322   0.397   0.775  11.881  0.1485  0.8982 -0.4721
16303TIP3   OH270323   5.154   0.977   0.802  0.3754 -0.0370  0.1941
16303TIP3    H170324   5.150   1.007   0.893 -0.8524  0.2163  0.0722
16303TIP3    H270325   5.238   1.009   0.769  0.8614 -0.1870  1.2493
16304TIP3   OH270326   6.698   4.689  11.904  0.4582  0.3857  0.3920
16304TIP3    H170327   6.605   4.710  11.903  0.4243  0.3034  1.3830
16304TIP3    H270328   6.723   4.689  11.811 -0.4727  0.6183  0.1288
16305TIP3   OH270329   4.551   2.942   3.390  0.0607  0.6096  0.2162
16305TIP3    H170330   4.469   2.990   3.375  1.2104  2.3325 -0.8617
16305TIP3    H270331   4.591   2.985   3.465  0.1832  0.0134  0.5050
16306TIP3   OH270332   1.328   3.020  15.471  0.0372 -0.4909  0.0237
16306TIP3    H170333   1.252   3.069  15.501  0.1505 -1.7677  2.6944
16306TIP3    H270334   1.292   2.937  15.440  0.2616 -0.7823  0.5349
16307TIP3   OH270335   4.186   1.917   2.438  0.2899 -0.2225 -0.1323
16307TIP3    H170336   4.167   1.837   2.487  0.0457  0.5067  1.0282
16307TIP3    H270337   4.100   1.945   2.405  0.2026  0.1215  0.3765
16308TIP3   OH270338   3.798   1.256  10.910 -0.2716  0.1028  0.3432
16308TIP3    H170339   3.811   1.305  10.992 -0.0907 -1.0275  1.0149
16308TIP3    H270340   3.742   1.183  10.935  1.6810 -1.6156  0.0197
16309TIP3   OH270341   3.561   3.547   0.794  0.1606 -0.3428 -0.6766
16309TIP3    H170342   3.614   3.481   0.837 -3.5007 -1.3761  2.8220
16309TIP3    H270343   3.477   3.504   0.778 -0.9298  2.2008 -2.4917
16310TIP3   OH270344   4.580   6.703   3.232 -0.7060  0.1875  0.1263
16310TIP3    H170345   4.663   6.694   3.186 -0.5330 -0.3065  0.5236
16310TIP3    H270346   4.606   6.728   3.321 -0.9577 -0.4623  0.3839
16311TIP3   OH270347   6.545   4.795  15.302  0.4690  0.0492 -0.0788
16311TIP3    H170348   6.548   4.739  15.224  2.0441  1.0680 -0.7974
16311TIP3    H270349   6.572   4.738  15.373  3.2513  0.0981 -0.9822
16312TIP3   OH270350   5.336   5.179  10.790 -0.6350  0.0267  0.5235
16312TIP3    H170351   5.408   5.193  10.729 -0.8189 -1.2589 -0.0170
16312TIP3    H270352   5.305   5.091  10.771 -2.6788  0.7203  0.3980
16313TIP3   OH270353   6.506   1.566  15.685  0.1317 -0.2445  0.5930
16313TIP3    H170354   6.496   1.595  15.776  0.5470 -0.0278  0.5702
16313TIP3    H270355   6.416   1.554  15.654 -0.0273  0.2961  0.8363
16314TIP3   OH270356   2.979   5.108   4.453 -0.9044 -0.8471 -0.4817
16314TIP3    H170357   3.065   5.091   4.415 -1.3217 -0.1113 -1.8265
16314TIP3    H270358   2.918   5.064   4.394 -1.7265  2.0793 -1.9825
16315TIP3   OH270359   3.514   1.630  12.638 -0.0149  0.1336 -0.1153
16315TIP3    H170360   3.497   1.669  12.552 -0.7775 -1.1404 -0.5551
16315TIP3    H270361   3.610   1.629  12.644  0.0620 -0.1452 -1.1291
16316TIP3   OH270362   0.967   0.006   2.284 -0.1247  0.6627 -0.5621
16316TIP3    H170363   0.959   0.095   2.319 -2.1300  0.1966  0.2746
16316TIP3    H270364   0.900   0.001   2.216  0.6364  0.0827 -1.2849
16317TIP3   OH270365   0.499   3.308   0.596  0.2708 -0.3459  0.1576
16317TIP3    H170366   0.437   3.274   0.661 -0.0046 -1.3615 -0.6115
16317TIP3    H270367   0.460   3.285   0.511  1.2723 -0.2345 -0.3465
16318TIP3   OH270368   2.355   3.105   5.046 -0.1376  0.2558  0.1768
16318TIP3    H170369   2.351   3.029   4.988  1.5053 -0.7401  1.2738
16318TIP3    H270370   2.431   3.155   5.015  0.3680  0.0481  1.0546
16319TIP3   OH270371   6.352   2.932   4.616  0.8484  0.3422  0.3968
16319TIP3    H170372   6.383   2.888   4.537 -1.9625 -0.8401 -0.1884
16319TIP3    H270373   6.353   2.864   4.683  1.4755  0.8534  0.9216
16320TIP3   OH270374   3.209   4.130   0.848  0.4728  0.5208 -0.1677
16320TIP3    H170375   3.237   4.200   0.908 -1.2656  1.9592 -0.9169
16320TIP3    H270376   3.268   4.057   0.866  0.9726  1.4215  2.2057
16321TIP3   OH270377   1.131   6.625   1.971  0.0005 -0.4128 -0.5521
16321TIP3    H170378   1.209   6.576   1.999 -0.6192 -1.8411 -1.2588
16321TIP3    H270379   1.076   6.627   2.049  0.0947 -0.7145 -0.4735
16322TIP3   OH270380   6.538   1.100   3.733 -0.0255 -0.4750  0.3217
16322TIP3    H170381   6.455   1.140   3.760 -2.0566 -3.6820 -0.4628
16322TIP3    H270382   6.597   1.173   3.717 -2.9699  2.0594  0.1348
16323TIP3   OH270383   3.863   2.137   5.255  0.7155 -0.0536 -0.1835
16323TIP3    H170384   3.783   2.146   5.306 -0.0166 -1.1246 -1.1011
16323TIP3    H270385   3.930   2.117   5.320 -0.3911 -2.4806  0.3300
16324TIP3   OH270386   0.263   1.249   0.180  0.0780  0.2513  0.9076
16324TIP3    H170387   0.199   1.292   0.237  0.4012 -0.3282  1.7344
16324TIP3    H270388   0.348   1.274   0.217  0.2739 -1.3452  1.6407
16325TIP3   OH270389   0.974   3.069   6.488  0.0117 -0.6224  0.7421
16325TIP3    H170390   1.045   3.018   6.526 -0.2423 -0.0355  2.0867
16325TIP3    H270391   1.005   3.159   6.490  1.0164 -0.7421 -2.8828
16326TIP3   OH270392   4.960   5.464  16.823  0.0527 -0.3763 -0.3949
16326TIP3    H170393   4.867   5.453  16.846  0.4620 -1.2878  0.9990
16326TIP3    H270394   4.981   5.553  16.850 -0.2192 -0.4556  0.1002
16327TIP3   OH270395   4.172   3.135  15.340 -0.2025 -0.0102  0.3786
16327TIP3    H170396   4.181   3.171  15.251  1.9032 -0.5874  0.3053
16327TIP3    H270397   4.159   3.212  15.395 -1.1330  0.3916 -0.3584
16328TIP3   OH270398   2.453   5.710  16.212 -0.3025  0.4661 -0.0869
16328TIP3    H170399   2.376   5.680  16.164 -1.0912 -0.7059  1.7766
16328TIP3    H270400   2.513   5.741  16.145  0.0288 -4.0047 -2.2484
16329TIP3   OH270401   6.185   5.948  16.894  0.5401 -0.2454  0.1301
16329TIP3    H170402   6.199   5.861  16.932  0.6449 -0.5844 -0.6736
16329TIP3    H270403   6.271   5.990  16.898  1.0773 -1.0768 -1.6822
16330TIP3   OH270404   4.651   2.135  17.016  0.1918 -0.4800  0.2066
16330TIP3    H170405   4.631   2.101  17.104  0.6657 -0.6171  0.2649
16330TIP3    H270406   4.601   2.217  17.010 -0.6370 -0.9713  0.2220
16331TIP3   OH270407   5.062   3.155   3.639  0.4782 -0.0047  0.0120
16331TIP3    H170408   5.004   3.105   3.581  0.8988  0.2015 -0.5935
16331TIP3    H270409   5.049   3.246   3.614 -0.4407  0.2438  1.2579
16332TIP3   OH270410   6.017   4.925   5.226 -0.2339  0.2496 -0.2434
16332TIP3    H170411   6.099   4.901   5.182  1.3308  1.6251  1.7562
16332TIP3    H270412   5.952   4.929   5.155  1.5126 -0.3443 -1.9671
16333TIP3   OH270413   5.374   1.633  12.902 -0.2488 -0.0310  0.5502
16333TIP3    H170414   5.424   1.711  12.875 -0.3014  0.9130  2.8485
16333TIP3    H270415   5.433   1.560  12.884  1.0513  0.8434  1.0446
16334TIP3   OH270416   2.899   0.978   1.065 -0.0071  0.0264  1.0503
16334TIP3    H170417   2.941   0.975   1.151 -0.1870 -2.7147  1.1594
16334TIP3    H270418   2.825   0.917   1.073  0.5910 -1.1421 -1.3043
16335TIP3   OH270419   4.464   0.457   2.366 -0.3496 -0.0503  0.0523
16335TIP3    H170420   4.375   0.422   2.370 -1.0817  1.8363  0.9832
16335TIP3    H270421   4.497   0.451   2.455 -0.8559  2.3965  0.4783
16336TIP3   OH270422   6.431   2.513   4.501  0.1994 -0.3884  0.0660
16336TIP3    H170423   6.353   2.458   4.507 -0.3508  0.4473  0.7759
16336TIP3    H270424   6.452   2.515   4.407  0.2821 -1.8559  0.0319
16337TIP3   OH270425   5.301   2.979   3.607 -0.2879  0.2798  0.5534
16337TIP3    H170426   5.217   3.019   3.632 -0.5644 -0.7187  1.2823
16337TIP3    H270427   5.303   2.896   3.654  0.6987 -0.1427 -0.1943
16338TIP3   OH270428   1.053   0.368  14.192  0.3447  0.0403 -0.3633
16338TIP3    H170429   0.995   0.391  14.119 -1.0569 -0.8817  0.4206
16338TIP3    H270430   1.120   0.312  14.152 -0.1078 -0.0351 -1.0335
16339TIP3   OH270431   4.367   3.966  17.298  0.7061 -0.8820 -0.2479
16339TIP3    H170432   4.325   3.887  17.331 -2.1047  0.8934  0.8437
16339TIP3    H270433   4.433   3.988  17.364 -1.1697 -0.3078  1.5572
16340TIP3   OH270434   0.918   4.587   3.155  0.1874  0.2800  0.0535
16340TIP3    H170435   0.985   4.527   3.122  0.0237  0.5861 -0.8654
16340TIP3    H270436   0.964   4.670   3.166  0.2211  0.2019  0.5409
16341TIP3   OH270437   1.583   0.894  15.482 -0.2684  0.6483  0.1537
16341TIP3    H170438   1.592   0.867  15.573  4.1329  0.0474 -0.2062
16341TIP3    H270439   1.526   0.971  15.485 -0.0227  0.8374  3.4489
16342TIP3   OH270440   1.253   3.609  16.579  0.0071 -0.0457 -0.0505
16342TIP3    H170441   1.300   3.656  16.648 -1.0099  0.7000  0.1709
16342TIP3    H270442   1.227   3.526  16.619 -0.4614  0.3282  0.4445
16343TIP3   OH270443   0.270   0.743  12.938  0.2052  0.2888 -0.2750
16343TIP3    H170444   0.334   0.729  13.008 -0.7003  0.2826  0.5752
16343TIP3    H270445   0.242   0.834  12.948 -0.9020 -0.0839  0.2384
16344TIP3   OH270446   6.046   5.245  13.363 -1.0353  0.3986 -0.0501
16344TIP3    H170447   5.969   5.284  13.404  0.5761  2.9994  0.7034
16344TIP3    H270448   6.120   5.287  13.405  0.8535 -1.7382 -1.0128
16345TIP3   OH270449   1.220   3.896   3.403 -0.2884 -0.3587 -0.1407
16345TIP3    H170450   1.203   3.903   3.309 -0.0372  0.4223 -0.1340
16345TIP3    H270451   1.309   3.929   3.414 -0.1657 -0.8310  0.3203
16346TIP3   OH270452   2.727   2.452   2.717 -0.7154 -0.4936 -0.5784
16346TIP3    H170453   2.751   2.466   2.625  0.4128  1.0707 -0.0831
16346TIP3    H270454   2.783   2.380   2.745 -1.4184 -1.3192 -1.2243
16347TIP3   OH270455   6.319   5.902   4.034 -0.0937 -0.0293  0.1021
16347TIP3    H170456   6.369   5.980   4.008  1.4863 -1.7390 -2.4162
16347TIP3    H270457   6.332   5.897   4.129  0.4216  2.2851  0.2312
16348TIP3   OH270458   4.212   3.368   3.103 -0.5410  0.1211 -0.1623
16348TIP3    H170459   4.298   3.330   3.121 -0.7091  0.6736  2.1709
16348TIP3    H270460   4.157   3.292   3.083  0.0751 -0.4313  0.1897
16349TIP3   OH270461   1.636   2.540  15.874 -0.4343 -0.3421  0.0356
16349TIP3    H170462   1.712   2.494  15.911 -0.2517 -0.0326  0.0484
16349TIP3    H270463   1.639   2.520  15.781  0.1698  0.3797 -0.1064
16350TIP3   OH270464   5.138   1.263  11.375 -0.0657 -0.0349  0.0049
16350TIP3    H170465   5.139   1.357  11.362 -0.9429  0.0363  0.3654
16350TIP3    H270466   5.130   1.251  11.470 -1.0564 -0.4496 -0.1187
16351TIP3   OH270467   3.449   5.081  16.395 -0.3883  0.0674  0.3890
16351TIP3    H170468   3.406   5.080  16.309  0.3863 -0.2440 -0.0083
16351TIP3    H270469   3.404   5.150  16.444 -2.3100 -1.1864  0.5064
16352TIP3   OH270470   6.218   1.827  13.946  0.5085 -0.0574 -0.2261
16352TIP3    H170471   6.230   1.819  13.851  0.1386  1.5088 -0.4373
16352TIP3    H270472   6.201   1.920  13.960  1.1012 -0.1617  1.4480
16353TIP3   OH270473   1.306   1.426  13.268  0.0965  0.3958 -0.7892
16353TIP3    H170474   1.336   1.350  13.317  1.8170  0.8475 -1.0830
16353TIP3    H270475   1.210   1.421  13.273  0.1840 -0.3402  1.3998
16354TIP3   OH270476   2.574   0.699  15.081  0.0954  0.0431  0.0340
16354TIP3    H170477   2.478   0.698  15.078 -0.0869  3.9164  0.2993
16354TIP3    H270478   2.600   0.754  15.007  2.1295 -0.4465  0.3251
16355TIP3   OH270479   2.832   0.189  16.558 -0.0300  0.1519  0.1468
16355TIP3    H170480   2.774   0.242  16.502 -0.3054 -1.0282 -0.7266
16355TIP3    H270481   2.907   0.169  16.502  0.1872 -0.1688  0.5491
16356TIP3   OH270482   6.652   3.031  14.044 -0.4176 -0.0120 -0.3487
16356TIP3    H170483   6.701   2.968  13.991 -0.6546 -1.3093  0.8856
16356TIP3    H270484   6.707   3.109  14.046  0.4855 -0.6145 -0.9112
16357TIP3   OH270485   6.586   1.569  13.426  0.3368 -0.1325 -0.6328
16357TIP3    H170486   6.584   1.664  13.423  0.7789 -0.1338 -1.1712
16357TIP3    H270487   6.598   1.548  13.519  0.0334  0.3249 -0.4846
16358TIP3   OH270488   4.589   4.045   1.221 -0.4702 -0.4040  0.3456
16358TIP3    H170489   4.620   4.021   1.134 -0.2145  1.5922 -0.1785
16358TIP3    H270490   4.643   4.121   1.245 -2.8007  1.2511  0.7098
16359TIP3   OH270491   0.336   5.298  12.224 -0.0833  0.0147  0.4463
16359TIP3    H170492   0.380   5.361  12.281 -2.1300  0.2676  1.8752
16359TIP3    H270493   0.316   5.347  12.145  1.7559  0.0027 -0.0672
16360TIP3   OH270494   4.894   2.769   3.313 -0.3163 -0.4771  0.0945
16360TIP3    H170495   4.837   2.813   3.251  0.5265 -0.0050 -0.3672
16360TIP3    H270496   4.860   2.679   3.318 -1.3272 -0.0954  0.1487
16361TIP3   OH270497   6.411   5.634  15.411  0.3314  0.3850  0.3428
16361TIP3    H170498   6.324   5.623  15.373  0.0145 -0.5031  1.2723
16361TIP3    H270499   6.471   5.607  15.341 -0.0130  2.4110 -0.8423
16362TIP3   OH270500   2.548   3.907  13.885  0.1182  0.0317  0.2268
16362TIP3    H170501   2.466   3.870  13.852  0.4003 -1.0660  0.7099
16362TIP3    H270502   2.573   3.849  13.957  0.5448  1.2210  1.0837
16363TIP3   OH270503   5.904   2.673  11.342 -0.1044 -0.6333  0.8130
16363TIP3    H170504   5.816   2.708  11.328  0.1231 -0.3666 -0.0082
16363TIP3    H270505   5.961   2.750  11.341  0.7578 -1.0438 -3.7528
16364TIP3   OH270506   3.664   5.279  16.563  0.2849 -0.6957  0.2300
16364TIP3    H170507   3.719   5.241  16.631 -0.3472 -1.2621  0.4373
16364TIP3    H270508   3.702   5.249  16.481 -0.0541 -1.5760  0.3867
16365TIP3   OH270509   2.630   6.713   4.562 -0.3596  0.0338  0.0002
16365TIP3    H170510   2.725   6.716   4.549 -0.3385  0.3403  0.2074
16365TIP3    H270511   2.617   6.645   4.628 -0.0565  1.6375  1.8184
16366TIP3   OH270512   6.406   0.172   5.255  0.2213 -0.2929  0.3622
16366TIP3    H170513   6.428   0.157   5.347 -0.3203  1.4077  0.8085
16366TIP3    H270514   6.354   0.252   5.255 -3.4834 -2.4519 -0.9569
16367TIP3   OH270515   3.390   0.772  12.995 -0.0942 -0.5636 -0.3028
16367TIP3    H170516   3.309   0.797  13.039  0.2077 -0.5653  0.2702
16367TIP3    H270517   3.390   0.676  12.999  0.0489 -0.5555 -0.0878
16368TIP3   OH270518   0.054   2.231  11.810 -0.0621  0.3645  0.2224
16368TIP3    H170519   0.081   2.158  11.753 -1.3950 -1.6707  2.0651
16368TIP3    H270520   0.001   2.287  11.752  0.6617 -0.3076 -1.1527
16369TIP3   OH270521   6.264   1.171   3.837 -0.3380 -0.2394 -0.7448
16369TIP3    H170522   6.236   1.152   3.927 -0.5737 -0.6989 -0.9140
16369TIP3    H270523   6.278   1.266   3.836  1.0245 -0.3915  0.1585
16370TIP3   OH270524   1.315   4.229  15.359  0.3339  0.1169  0.3511
16370TIP3    H170525   1.350   4.165  15.423 -1.3765 -1.3679 -0.1315
16370TIP3    H270526   1.393   4.275  15.328  1.7168 -1.9105  0.5470
16371TIP3   OH270527   2.251   4.007  11.380  0.7834  0.1927 -0.0899
16371TIP3    H170528   2.340   4.033  11.355  0.3053  0.4209 -1.6386
16371TIP3    H270529   2.200   4.088  11.375  0.2807 -0.1293 -0.1577
16372TIP3   OH270530   5.763   3.563  10.900 -0.4076 -0.2947  0.0789
16372TIP3    H170531   5.829   3.494  10.910  0.5790  0.5470 -0.4842
16372TIP3    H270532   5.685   3.516  10.868 -0.1252 -1.3062  0.8009
16373TIP3   OH270533   3.403   3.347  16.509 -0.2734  0.4907  0.2022
16373TIP3    H170534   3.375   3.260  16.538 -0.8908  1.0762  1.4400
16373TIP3    H270535   3.387   3.347  16.414 -0.5706 -0.6228  0.2400
16374TIP3   OH270536   0.800   5.328   5.766  0.1097  0.5714  0.2463
16374TIP3    H170537   0.790   5.413   5.722 -3.6903 -0.1311 -0.6164
16374TIP3    H270538   0.726   5.324   5.827 -0.2338 -2.3707 -0.2291
16375TIP3   OH270539   5.115   0.596   5.519 -0.2543  0.6714  0.1366
16375TIP3    H170540   5.089   0.686   5.542 -0.0064  1.4990 -2.4150
16375TIP3    H270541   5.202   0.607   5.478 -0.6099 -0.5748 -1.0112
16376TIP3   OH270542   2.638   3.567  13.996 -0.1324  0.1525  0.0987
16376TIP3    H170543   2.691   3.487  13.996 -0.2527  0.0614  1.0749
16376TIP3    H270544   2.691   3.631  13.949 -0.0095 -0.4821 -0.6476
16377TIP3   OH270545   2.740   0.512  16.635 -0.4326  0.0391  0.4615
16377TIP3    H170546   2.678   0.529  16.706  1.4427  0.9079  1.9843
16377TIP3    H270547   2.801   0.586  16.638  0.3158 -0.4581 -1.3867
16378TIP3   OH270548   4.821   1.882   1.686 -0.0155  0.3710 -0.0511
16378TIP3    H170549   4.863   1.814   1.740 -1.3792 -0.6104 -0.1451
16378TIP3    H270550   4.784   1.834   1.612 -1.3650  1.1396  0.0833
16379TIP3   OH270551   3.570   3.231   0.609 -0.1181 -0.5802  0.1950
16379TIP3    H170552   3.571   3.246   0.703 -0.6049 -0.6067  0.2056
16379TIP3    H270553   3.660   3.247   0.581  0.2929 -1.6495  0.8339
16380TIP3   OH270554   3.070   5.176   1.797  0.2174  0.3648  0.9800
16380TIP3    H170555   3.030   5.134   1.873  0.5440 -1.1405  0.3587
16380TIP3    H270556   3.099   5.103   1.742  1.2847  1.4156  0.0916
16381TIP3   OH270557   5.707   3.513   2.365 -0.1457  0.0833 -0.0915
16381TIP3    H170558   5.661   3.594   2.344  0.8995  0.5962 -0.4829
16381TIP3    H270559   5.684   3.495   2.456 -1.1516  0.2939 -0.3005
16382TIP3   OH270560   0.733   6.291   3.123  0.8228  0.2627 -0.1276
16382TIP3    H170561   0.698   6.379   3.110 -0.0047 -0.0892 -0.3698
16382TIP3    H270562   0.827   6.304   3.136  0.3034  1.4830  3.2089
16383TIP3   OH270563   2.341   1.707  14.062  0.1863  0.2701  0.5377
16383TIP3    H170564   2.357   1.649  14.136 -1.3019 -0.5404  0.2509
16383TIP3    H270565   2.415   1.768  14.064  0.7327 -0.3826  2.0408
16384TIP3   OH270566   1.038   2.810   5.504  0.5231  0.0181  0.0313
16384TIP3    H170567   1.133   2.809   5.490  0.6347  1.6199  0.4248
16384TIP3    H270568   1.026   2.766   5.588  0.9904  0.3464  0.2773
16385TIP3   OH270569   1.975   2.583   4.203  0.3742  0.2600  0.3378
16385TIP3    H170570   2.027   2.618   4.131 -1.2287  0.8465 -0.5890
16385TIP3    H270571   1.898   2.545   4.161 -0.4602  0.3534  1.7136
16386TIP3   OH270572   3.172   6.740  14.126  0.1006  0.0820  0.2983
16386TIP3    H170573   3.090   6.734  14.175  0.2470  4.3087  1.4199
16386TIP3    H270574   3.146   6.730  14.035 -1.4155  0.0142  0.7036
16387TIP3   OH270575   1.804   4.738  14.614 -0.1175 -0.9176  0.1970
16387TIP3    H170576   1.731   4.772  14.563  0.4196  0.4206  0.2735
16387TIP3    H270577   1.764   4.696  14.690 -0.8957 -2.2662 -0.9156
16388TIP3   OH270578   0.726   4.489  14.288 -0.2110  0.5089  0.4256
16388TIP3    H170579   0.633   4.503  14.276 -0.5068 -0.2503  1.6620
16388TIP3    H270580   0.755   4.447  14.207 -0.6569  1.8977 -0.4940
16389TIP3   OH270581   4.979   0.546   2.284  0.3542  0.1296  0.4738
16389TIP3    H170582   5.005   0.486   2.215  0.0112  0.1597  0.3183
16389TIP3    H270583   4.908   0.500   2.330  0.8844 -0.0890  1.0925
16390TIP3   OH270584   3.461   5.294   1.592 -0.2810  0.4934  0.4166
16390TIP3    H170585   3.421   5.299   1.679  0.0704  1.8471  0.5240
16390TIP3    H270586   3.479   5.201   1.579 -0.6280  0.2348  1.6566
16391TIP3   OH270587   6.422   6.127  16.847 -0.3362 -0.0575  0.6692
16391TIP3    H170588   6.380   6.208  16.819  0.8058 -0.3531 -2.2440
16391TIP3    H270589   6.513   6.151  16.863  0.0169 -0.7234 -0.2224
16392TIP3   OH270590   3.318   6.680  14.344  0.1808  0.4035 -0.2591
16392TIP3    H170591   3.257   6.713  14.278 -0.2235 -0.7648 -0.4884
16392TIP3    H270592   3.393   6.648  14.294  0.6942  1.2079 -0.0195
16393TIP3   OH270593   6.645   2.466  13.480  0.0506 -0.0239  0.7114
16393TIP3    H170594   6.593   2.460  13.560  0.4569  0.0068  0.9800
16393TIP3    H270595   6.633   2.382  13.436  0.1965 -0.2099  1.0321
16394TIP3   OH270596   4.448   4.986   0.005 -0.4614 -0.5473 -0.0503
16394TIP3    H170597   4.383   5.044  -0.036 -1.2696 -0.9763  0.5777
16394TIP3    H270598   4.510   5.046   0.047 -2.0048 -0.0716  1.7173
16395TIP3   OH270599   5.994   2.233   4.940  0.3247 -0.1210 -0.4437
16395TIP3    H170600   6.056   2.205   5.008 -1.2837 -0.8127  0.7910
16395TIP3    H270601   6.006   2.169   4.870  0.4171 -0.7609  0.1375
16396TIP3   OH270602   5.219   1.169   4.034  0.1517  0.2302 -0.1148
16396TIP3    H170603   5.218   1.263   4.017 -2.5954  0.3538  0.2533
16396TIP3    H270604   5.284   1.157   4.103  2.0376  1.4989 -1.5668
16397TIP3   OH270605   1.821   6.024  17.268  0.0454 -0.0951 -0.0166
16397TIP3    H170606   1.792   5.987  17.351  2.3220 -1.4437  0.2483
16397TIP3    H270607   1.853   6.112  17.290  0.7431 -0.4888  0.5812
16398TIP3   OH270608   6.649   3.336   2.449 -0.2460  0.3019 -0.8114
16398TIP3    H170609   6.664   3.342   2.543 -0.0131 -1.3562 -0.7179
16398TIP3    H270610   6.690   3.415   2.413 -0.1949  0.8708  0.4443
16399TIP3   OH270611   1.128   3.877  14.280  0.0600 -0.5121  0.2692
16399TIP3    H170612   1.110   3.836  14.365  2.1933  1.4043  1.7758
16399TIP3    H270613   1.170   3.961  14.303  2.9331 -0.9758 -2.6555
16400TIP3   OH270614   4.775   5.309  12.465 -0.1337 -0.3016 -0.2300
16400TIP3    H170615   4.834   5.320  12.390 -0.3823  1.3506 -0.2212
16400TIP3    H270616   4.818   5.356  12.536 -0.7454 -0.3751  0.1932
16401TIP3   OH270617   5.324   0.053   0.728 -0.0155  0.0056  0.4066
16401TIP3    H170618   5.393  -0.004   0.762  0.3431 -0.1275 -0.5299
16401TIP3    H270619   5.275  -0.002   0.667 -1.4434 -0.1344  1.6279
16402TIP3   OH270620   4.076   3.556   3.846 -0.0647 -0.5807  0.1142
16402TIP3    H170621   4.013   3.626   3.828 -0.0221 -0.4450  0.4790
16402TIP3    H270622   4.032   3.501   3.911  0.5460  0.0269  1.0640
16403TIP3   OH270623   3.038   1.515  16.873  0.2084  0.1358 -0.4193
16403TIP3    H170624   3.093   1.460  16.817  2.5130  0.5453  1.2793
16403TIP3    H270625   3.090   1.527  16.953 -2.6457  0.0637  1.6002
16404TIP3   OH270626   5.190   4.419   3.623 -0.0862 -0.1801  0.3351
16404TIP3    H170627   5.122   4.480   3.596 -0.5302 -0.2953  1.1688
16404TIP3    H270628   5.271   4.458   3.590 -0.6143 -0.4929 -1.4637
16405TIP3   OH270629   2.669   5.483  15.435 -0.7229  0.5472 -0.7165
16405TIP3    H170630   2.588   5.433  15.425 -0.6590 -0.3749  2.3840
16405TIP3    H270631   2.651   5.544  15.507  1.1473  0.7370 -0.3505
16406TIP3   OH270632   4.110   4.274  16.497  0.1310  0.4098 -0.3568
16406TIP3    H170633   4.140   4.345  16.440  2.6001  0.9270  1.3730
16406TIP3    H270634   4.070   4.319  16.572 -0.3915 -0.1273 -0.3095
16407TIP3   OH270635   1.257   4.822  16.804 -0.1277 -0.3564 -0.2271
16407TIP3    H170636   1.183   4.805  16.862 -0.5887  1.3744 -0.2304
16407TIP3    H270637   1.295   4.736  16.787  0.0256 -0.9576  2.6298
16408TIP3   OH270638   6.405   3.310  15.613  0.2491  0.6007 -0.0253
16408TIP3    H170639   6.419   3.288  15.705  0.1911  1.9015  0.3082
16408TIP3    H270640   6.400   3.405  15.611 -0.5954  0.5551 -1.2645
16409TIP3   OH270641   1.140   6.516   5.757 -0.4846 -0.5922 -0.2211
16409TIP3    H170642   1.076   6.586   5.746  0.3902  0.1879 -0.4197
16409TIP3    H270643   1.188   6.513   5.674  0.3440 -0.5443  0.2445
16410TIP3   OH270644   5.981   1.231  12.311  0.8836  0.0608  0.1992
16410TIP3    H170645   6.023   1.169  12.252  1.6778  1.0010 -0.2525
16410TIP3    H270646   5.986   1.315  12.266 -0.5569  0.3987  0.6060
16411TIP3   OH270647   5.873   0.663  16.007  0.4678 -0.2023 -0.4078
16411TIP3    H170648   5.815   0.653  16.082  1.8706  0.0813  0.7787
16411TIP3    H270649   5.837   0.606  15.939 -0.6757 -0.6879  0.5868
16412TIP3   OH270650   1.594   1.280   3.712  0.0602  0.1084  0.4731
16412TIP3    H170651   1.602   1.190   3.745  0.0435  0.4407  1.4020
16412TIP3    H270652   1.679   1.297   3.669 -0.8642 -1.2658 -2.1322
16413TIP3   OH270653   1.595   4.620   1.232  0.1115 -0.1594 -0.3702
16413TIP3    H170654   1.511   4.596   1.193 -1.5355  2.2656  1.3879
16413TIP3    H270655   1.625   4.696   1.182 -0.8088  1.4518  1.4012
16414TIP3   OH270656   5.247   6.510  15.267  0.4004 -0.1970 -0.2514
16414TIP3    H170657   5.255   6.556  15.350 -0.5108 -1.0752  0.3504
16414TIP3    H270658   5.275   6.420  15.286  1.9405 -0.0047 -1.3492
16415TIP3   OH270659   3.089   0.973  12.337 -0.0265  0.2905 -0.1688
16415TIP3    H170660   3.166   1.029  12.321  0.1046  0.4198  0.7952
16415TIP3    H270661   3.015   1.032  12.331  0.1124  0.6004  0.8523
16416TIP3   OH270662   6.443   6.162   2.811  0.0694  0.7233  0.2370
16416TIP3    H170663   6.510   6.169   2.879  0.1539  0.8237  0.1426
16416TIP3    H270664   6.390   6.242   2.821 -1.4581 -0.4049  1.8284
16417TIP3   OH270665   0.199   0.221   3.799 -0.2103 -0.3783 -0.1776
16417TIP3    H170666   0.156   0.299   3.763 -0.1961 -0.5457 -0.5641
16417TIP3    H270667   0.163   0.148   3.747 -0.2690 -0.6381  0.2168
16418TIP3   OH270668   3.592   5.984   0.481  0.2803  0.2606  0.2234
16418TIP3    H170669   3.563   5.918   0.418  0.3114 -0.8434  1.3301
16418TIP3    H270670   3.684   6.000   0.458  0.4718 -0.5917  0.3496
16419TIP3   OH270671   0.044   5.685   5.366 -0.3010  0.0903  0.2064
16419TIP3    H170672  -0.017   5.731   5.308 -0.7314 -1.5269 -0.7010
16419TIP3    H270673   0.047   5.739   5.445 -0.4085  1.8807 -0.9547
16420TIP3   OH270674   2.364   2.055   4.426  0.6653 -0.4271 -0.0491
16420TIP3    H170675   2.271   2.031   4.423  0.3657  0.4147  1.3533
16420TIP3    H270676   2.401   2.017   4.347 -1.1009  0.1639 -1.2382
16421TIP3   OH270677   5.538   1.433   2.578 -0.2902 -0.2721 -0.1752
16421TIP3    H170678   5.492   1.509   2.542  1.1583  0.4273 -0.6413
16421TIP3    H270679   5.630   1.449   2.556 -0.0047 -2.3953 -0.6797
16422TIP3   OH270680   3.011   4.284  14.037 -0.2429  0.1118  0.3687
16422TIP3    H170681   3.097   4.296  13.996  1.0804 -0.5260  2.7637
16422TIP3    H270682   2.952   4.338  13.984  1.6773  0.8653 -1.1492
16423TIP3   OH270683   0.184   0.648  15.140  0.2247 -0.4847  0.1088
16423TIP3    H170684   0.239   0.726  15.146 -0.8029  0.4437 -1.6278
16423TIP3    H270685   0.223   0.586  15.201  2.2560  0.6805  0.0676
16424TIP3   OH270686   1.071   6.388  16.033 -0.0739  0.0201  0.0972
16424TIP3    H170687   0.998   6.351  16.083  0.0989  0.1589  0.4481
16424TIP3    H270688   1.065   6.345  15.947 -0.8733  0.4061 -0.0467
16425TIP3   OH270689   4.016   6.584  14.015 -0.7319 -0.4601  0.0274
16425TIP3    H170690   4.087   6.639  13.982 -0.4955 -0.4235  0.5793
16425TIP3    H270691   4.061   6.515  14.063 -1.0709 -0.4325  0.3834
16426TIP3   OH270692   5.081   1.625  14.073  0.3850 -0.4371 -0.0279
16426TIP3    H170693   5.098   1.531  14.071  1.4401 -0.2531  0.0460
16426TIP3    H270694   5.167   1.665  14.082  0.1203  0.6042 -1.8117
16427TIP3   OH270695   5.282   4.498   4.103  0.1687 -0.2520  0.5383
16427TIP3    H170696   5.305   4.418   4.151 -0.8422  0.3401  2.0957
16427TIP3    H270697   5.218   4.468   4.038 -0.9867 -0.5939  1.7886
16428TIP3   OH270698   0.395   4.733   6.159 -0.4093  0.2246 -0.1825
16428TIP3    H170699   0.358   4.678   6.229 -1.1859  0.0737 -0.6967
16428TIP3    H270700   0.471   4.684   6.127 -0.1811  0.1892  0.3995
16429TIP3   OH270701   4.224   0.690   2.610 -0.4978  0.2173  0.6970
16429TIP3    H170702   4.307   0.664   2.570 -1.7259 -1.0531 -1.1809
16429TIP3    H270703   4.224   0.645   2.695  0.6261  0.0549  0.6380
16430TIP3   OH270704   5.734   0.574  11.404  0.1433 -0.3525 -0.2744
16430TIP3    H170705   5.751   0.629  11.327  0.7687 -0.6600 -0.3649
16430TIP3    H270706   5.729   0.485  11.369  2.1888 -0.7219  0.2167
16431TIP3   OH270707   5.922   1.623  16.919 -0.2018  0.5817  0.2755
16431TIP3    H170708   5.929   1.528  16.917 -0.6513  0.5618 -0.6452
16431TIP3    H270709   5.871   1.642  16.998 -0.2493  0.0570  0.3726
16432TIP3   OH270710   4.897   6.342   1.725  0.2211 -0.3303  0.4335
16432TIP3    H170711   4.989   6.363   1.710 -0.2951  1.4078 -0.6072
16432TIP3    H270712   4.886   6.348   1.819  1.1453 -0.4625  0.5603
16433TIP3   OH270713   6.276   6.236  16.409  0.8550 -0.8936  0.2086
16433TIP3    H170714   6.278   6.150  16.450  1.1015 -0.0592  2.0557
16433TIP3    H270715   6.229   6.291  16.472  3.2728  0.9964  0.5108
16434TIP3   OH270716   2.902   2.980  11.422 -0.4195 -0.8942 -0.1199
16434TIP3    H170717   2.982   2.934  11.395 -0.4176 -0.2378 -1.3096
16434TIP3    H270718   2.836   2.952  11.358 -0.4340  0.6646 -0.8208
16435TIP3   OH270719   4.470   2.334   2.983 -0.0514  0.4468 -0.2475
16435TIP3    H170720   4.431   2.259   2.939 -2.3172  0.2421  1.9178
16435TIP3    H270721   4.564   2.326   2.965 -0.0146 -3.5313  0.7489
16436TIP3   OH270722   1.882   6.579  14.467  0.3239  0.4452 -0.7685
16436TIP3    H170723   1.944   6.636  14.421  1.3590 -0.3084 -0.3462
16436TIP3    H270724   1.933   6.501  14.489 -1.1357 -0.8225 -1.6348
16437TIP3   OH270725   4.035   4.335   2.017  0.4395  0.5507 -0.2212
16437TIP3    H170726   4.001   4.327   2.106 -0.8868 -0.3884 -0.7730
16437TIP3    H270727   3.963   4.305   1.961  2.1622 -1.5280 -1.4824
16438TIP3   OH270728   3.073   3.512   0.354  0.5784  0.2483  0.4816
16438TIP3    H170729   3.093   3.484   0.444 -0.1371 -3.9864 -0.4530
16438TIP3    H270730   3.028   3.595   0.365  0.6122 -0.0217  4.0396
16439TIP3   OH270731   2.899   3.635   6.485 -0.5695 -0.3555 -0.0122
16439TIP3    H170732   2.868   3.719   6.518  0.4231  0.0887 -0.2044
16439TIP3    H270733   2.936   3.591   6.562  0.5811  0.1531 -0.2581
16440TIP3   OH270734   4.175   0.115   2.517  0.4444 -0.0372  0.6823
16440TIP3    H170735   4.084   0.103   2.543  0.0218  0.9981 -0.2113
16440TIP3    H270736   4.220   0.037   2.547 -0.6318 -0.3111  1.6297
16441TIP3   OH270737   5.351   3.494  14.787 -0.3831  0.2562  0.1636
16441TIP3    H170738   5.296   3.466  14.714  0.4021 -1.9909  0.3707
16441TIP3    H270739   5.318   3.581  14.810 -3.3833 -0.6953 -0.1701
16442TIP3   OH270740   3.092   3.734   3.640 -0.4959 -0.0268 -0.6987
16442TIP3    H170741   3.139   3.812   3.611 -2.4673  1.0647 -1.1456
16442TIP3    H270742   3.005   3.766   3.664 -0.6669 -1.7535  1.2754
16443TIP3   OH270743   1.127   4.234   3.536  0.4648 -0.3279 -0.1578
16443TIP3    H170744   1.053   4.188   3.496 -0.7895  0.9898  0.5819
16443TIP3    H270745   1.174   4.165   3.583 -0.7199 -1.0725 -0.0183
16444TIP3   OH270746   0.250   2.898  12.354 -0.2841 -0.0006  0.5998
16444TIP3    H170747   0.261   2.877  12.447 -0.2519  1.8280  1.0462
16444TIP3    H270748   0.163   2.863  12.332  0.5198 -2.2343  0.7384
16445TIP3   OH270749   5.993   2.121  15.824 -0.2209  0.1235 -0.2362
16445TIP3    H170750   5.955   2.035  15.842 -0.8424  0.9217  2.7484
16445TIP3    H270751   5.918   2.177  15.804  0.1213  0.1523 -1.5166
16446TIP3   OH270752   2.902   1.003   5.011  0.3271  0.5933 -0.4351
16446TIP3    H170753   2.901   1.099   5.012  0.8796  0.6103  1.1893
16446TIP3    H270754   2.810   0.979   5.022  0.2882  0.9558  0.1036
16447TIP3   OH270755   4.121   3.978  17.140  0.2288 -0.3298 -0.0497
16447TIP3    H170756   4.203   3.959  17.186  0.8276  0.4865 -0.7491
16447TIP3    H270757   4.053   3.964  17.206  0.7925 -2.4265  0.1711
16448TIP3   OH270758   6.531   0.875   0.917 -1.1988 -0.0752  0.2794
16448TIP3    H170759   6.521   0.857   1.010 -1.6773 -0.4466  0.1571
16448TIP3    H270760   6.450   0.844   0.877 -0.7885 -0.3800 -0.3295
16449TIP3   OH270761   0.933   2.683   5.098  0.3882 -0.0496 -0.7297
16449TIP3    H170762   1.016   2.730   5.090  0.1405  0.4217 -0.6050
16449TIP3    H270763   0.887   2.728   5.170  0.4012 -0.8787 -0.1939
16450TIP3   OH270764   6.158   1.644   0.026 -0.1840 -1.0757  0.0662
16450TIP3    H170765   6.131   1.735   0.038  1.5822 -0.7103  1.8220
16450TIP3    H270766   6.080   1.593   0.046 -1.1163  0.0132 -0.6368
16451TIP3   OH270767   5.217   2.508   2.994  0.2768 -0.3137  0.5337
16451TIP3    H170768   5.270   2.534   3.070  0.8502 -1.4730  0.5560
16451TIP3    H270769   5.150   2.451   3.031 -0.2216  0.1368  0.3297
16452TIP3   OH270770   3.116   6.129   5.165 -0.0969 -0.4763  0.3133
16452TIP3    H170771   3.059   6.167   5.232 -0.1401 -0.0072  0.0127
16452TIP3    H270772   3.105   6.034   5.175 -0.2874 -0.4036  0.8096
16453TIP3   OH270773   4.164   4.824  15.783  0.7341  0.1312 -0.0915
16453TIP3    H170774   4.187   4.803  15.874 -1.0841  1.9476  0.8765
16453TIP3    H270775   4.074   4.858  15.788  0.2669 -0.5036 -2.7043
16454TIP3   OH270776   5.418   3.786   3.023 -0.5029 -0.6442  0.2369
16454TIP3    H170777   5.465   3.854   3.070 -1.3752  0.2824 -0.1794
16454TIP3    H270778   5.368   3.740   3.090 -0.5815 -0.3032  0.4126
16455TIP3   OH270779   3.030   3.127  12.204  0.1305 -0.8697 -0.2287
16455TIP3    H170780   3.028   3.072  12.283 -0.7856 -1.9170 -0.9404
16455TIP3    H270781   2.997   3.070  12.135 -1.5750  0.8005 -0.8807
16456TIP3   OH270782   0.583   1.878   1.152 -0.8723  0.2099 -0.1239
16456TIP3    H170783   0.605   1.787   1.173 -0.2808  0.6365  1.2462
16456TIP3    H270784   0.542   1.911   1.232  0.6241  1.6754  0.0914
16457TIP3   OH270785   1.283   4.610   2.879 -0.4562  0.8938  0.0571
16457TIP3    H170786   1.272   4.519   2.907 -0.2432  0.8688  0.0618
16457TIP3    H270787   1.346   4.647   2.940  1.9912  0.1364 -1.8273
16458TIP3   OH270788   0.291   4.664   3.600  0.2350  0.2647  0.2630
16458TIP3    H170789   0.307   4.589   3.657 -2.4519 -0.2989  0.4134
16458TIP3    H270790   0.327   4.639   3.515 -0.0274 -0.9167  0.4852
16459TIP3   OH270791   4.516   3.731   5.079  0.2577  0.5347  0.2881
16459TIP3    H170792   4.581   3.662   5.089 -1.9380 -1.7554 -0.1092
16459TIP3    H270793   4.522   3.782   5.159  0.7877 -1.2495  1.4442
16460TIP3   OH270794   6.022   6.178   5.181 -0.5919 -0.2712 -0.2687
16460TIP3    H170795   6.019   6.225   5.265 -0.6944 -0.5006 -0.1434
16460TIP3    H270796   6.078   6.101   5.199  2.3747  1.4659 -1.3101
16461TIP3   OH270797   5.060   6.296   3.103  0.5119 -0.2124  0.4578
16461TIP3    H170798   5.003   6.354   3.153  2.5037  2.0957  0.2158
16461TIP3    H270799   5.086   6.347   3.027  1.1011 -2.0368 -0.6251
16462TIP3   OH270800   2.489   3.066   1.988 -0.4058 -0.1300 -0.7263
16462TIP3    H170801   2.501   2.987   2.040 -0.4826 -0.0433 -0.5766
16462TIP3    H270802   2.521   3.043   1.900  0.7433  0.0480 -0.3714
16463TIP3   OH270803   3.443   4.152  12.232 -0.2708 -0.1612  0.0886
16463TIP3    H170804   3.440   4.062  12.264 -1.8627  0.5593  2.1183
16463TIP3    H270805   3.409   4.205  12.303  1.0630  2.1508 -0.8691
16464TIP3   OH270806   2.902   4.416  15.547  0.4910 -0.2162 -0.2166
16464TIP3    H170807   2.848   4.453  15.477  0.6730  0.9105  0.2163
16464TIP3    H270808   2.892   4.321  15.538 -2.2604 -0.0581  0.3946
16465TIP3   OH270809   4.358   5.240  15.267  0.1086  0.4562 -0.2100
16465TIP3    H170810   4.267   5.237  15.237 -0.1882 -0.8805  0.7410
16465TIP3    H270811   4.397   5.314  15.219 -2.2794  3.1519  1.6383
16466TIP3   OH270812   2.074   5.102  16.469 -0.4887 -0.5706  0.1237
16466TIP3    H170813   2.071   5.009  16.447  0.1016 -0.5980  0.1480
16466TIP3    H270814   2.165   5.127  16.456 -0.3212 -0.3422  1.5222
16467TIP3   OH270815   4.202   4.762   2.912 -0.4217 -0.2298  0.1978
16467TIP3    H170816   4.288   4.793   2.882  0.8381 -0.7560  2.9449
16467TIP3    H270817   4.160   4.841   2.947 -0.3650 -0.2604  0.3361
16468TIP3   OH270818   6.652   6.281  12.888  0.1355 -0.1042  0.1211
16468TIP3    H170819   6.566   6.317  12.910 -0.3181 -0.9474 -0.2235
16468TIP3    H270820   6.707   6.301  12.964  0.0207  1.6466 -0.2272
16469TIP3   OH270821   3.991   3.964  10.494 -0.2107  0.3942 -0.3635
16469TIP3    H170822   4.059   3.908  10.455 -0.7676 -0.2838 -0.3684
16469TIP3    H270823   3.909   3.923  10.468 -0.6016 -0.0754  1.5282
16470TIP3   OH270824   3.361   4.606   2.306 -0.0493 -0.1916  0.0427
16470TIP3    H170825   3.339   4.650   2.388 -1.3783 -0.1248 -0.3155
16470TIP3    H270826   3.456   4.606   2.303  0.0793 -1.3699  2.2208
16471TIP3   OH270827   2.366   2.669  17.318 -0.5572  0.1136  0.3167
16471TIP3    H170828   2.347   2.678  17.412 -0.0907  0.3104  0.3946
16471TIP3    H270829   2.406   2.582  17.311  0.6152  0.6246  0.5029
16472TIP3   OH270830   5.541   1.318  16.023  0.9125  0.0055 -0.3135
16472TIP3    H170831   5.619   1.311  16.078  1.1656 -1.0790 -0.7823
16472TIP3    H270832   5.468   1.299  16.082  1.1183 -0.3899 -0.1836
16473TIP3   OH270833   5.434   5.493  17.129  0.5799  0.4058 -0.2488
16473TIP3    H170834   5.494   5.526  17.063  0.0059  0.2505 -0.8518
16473TIP3    H270835   5.383   5.569  17.156  1.4427  0.6737  0.7152
16474TIP3   OH270836   0.946   0.641  15.448 -0.2775  0.3844 -0.2746
16474TIP3    H170837   0.957   0.694  15.528  0.3156  0.9302 -0.7030
16474TIP3    H270838   0.874   0.582  15.468  1.7533 -1.6117  1.8254
16475TIP3   OH270839   0.203   1.854  12.045  0.3907 -0.6110  0.1854
16475TIP3    H170840   0.253   1.830  12.122  0.4018 -1.4945 -0.0891
16475TIP3    H270841   0.113   1.860  12.076 -0.0782 -3.7486 -0.2331
16476TIP3   OH270842   5.880   3.593  15.943  0.3172 -0.1790  0.5365
16476TIP3    H170843   5.932   3.671  15.929  1.9173 -1.2561  0.2184
16476TIP3    H270844   5.789   3.624  15.944  0.9596  1.8092  1.5912
16477TIP3   OH270845   0.236   4.305   3.048  0.0923 -0.4613 -0.6956
16477TIP3    H170846   0.189   4.288   3.130  0.3457  0.0576 -0.4406
16477TIP3    H270847   0.327   4.315   3.074 -0.1347  2.1549 -0.6847
16478TIP3   OH270848   6.723   1.873   1.629 -0.1700  0.2434  0.0255
16478TIP3    H170849   6.811   1.910   1.632 -0.5134  1.2615 -1.5038
16478TIP3    H270850   6.677   1.918   1.700 -0.4901  2.6670 -1.5832
16479TIP3   OH270851   0.811   2.424  11.168 -0.1833  0.3198 -0.0336
16479TIP3    H170852   0.891   2.402  11.121  0.1101  2.4398 -0.6501
16479TIP3    H270853   0.765   2.341  11.180  2.9354 -1.2845  2.0074
16480TIP3   OH270854   0.374   3.488  11.425  0.3654  0.4318  0.2676
16480TIP3    H170855   0.449   3.538  11.393  1.0521 -0.6709  0.1264
16480TIP3    H270856   0.381   3.403  11.382 -1.4700  0.5921 -0.4176
16481TIP3   OH270857   5.467   0.799  12.119  0.1810  0.3655 -0.3207
16481TIP3    H170858   5.403   0.864  12.090  0.5350  0.4982 -0.8046
16481TIP3    H270859   5.488   0.749  12.041 -1.2324 -1.3563  0.3282
16482TIP3   OH270860   2.725   0.640   3.333 -0.3120 -0.1876  0.1762
16482TIP3    H170861   2.632   0.625   3.344 -0.3169 -2.6221 -2.1841
16482TIP3    H270862   2.731   0.714   3.272 -0.7419 -0.7009 -0.4942
16483TIP3   OH270863   0.473   1.208  16.513 -0.3714 -0.5019 -0.4986
16483TIP3    H170864   0.434   1.123  16.535 -0.6031 -0.8169 -2.0344
16483TIP3    H270865   0.562   1.203  16.546 -0.3385 -1.4046 -0.7185
16484TIP3   OH270866   0.596   4.414  13.251 -0.2547  0.0728 -0.3566
16484TIP3    H170867   0.692   4.416  13.252 -0.2340 -0.7309  0.6642
16484TIP3    H270868   0.574   4.411  13.158  0.7073  0.3897 -0.6095
16485TIP3   OH270869   0.767   1.863  15.317  0.0740  0.1237  0.1874
16485TIP3    H170870   0.745   1.898  15.231 -0.7828 -1.0352 -0.0846
16485TIP3    H270871   0.851   1.818  15.304 -0.5253 -0.8750 -0.2811
16486TIP3   OH270872   2.798   2.219   2.899 -0.6432  0.7328  0.2628
16486TIP3    H170873   2.809   2.174   2.983 -1.9380  0.0618  0.1084
16486TIP3    H270874   2.703   2.221   2.886 -0.4551  0.6787 -1.2639
16487TIP3   OH270875   5.594   5.781   5.396  0.0230  0.4452 -0.6428
16487TIP3    H170876   5.504   5.790   5.429 -0.4755 -1.1815 -1.4313
16487TIP3    H270877   5.620   5.870   5.373 -1.4242  0.9359 -0.4981
16488TIP3   OH270878   5.156   4.327  15.177  0.2240 -0.3506 -0.1763
16488TIP3    H170879   5.213   4.317  15.253 -0.6254 -1.2313  0.3678
16488TIP3    H270880   5.215   4.320  15.102  1.0215  0.1848  0.3771
16489TIP3   OH270881   1.457   2.848   3.382 -0.1678 -0.1983  0.2280
16489TIP3    H170882   1.497   2.846   3.295  1.6237 -2.6281  1.0106
16489TIP3    H270883   1.431   2.757   3.399 -0.9620  0.3110  2.0468
16490TIP3   OH270884   5.789   2.455  15.176 -0.2150 -0.2648 -0.8162
16490TIP3    H170885   5.757   2.516  15.242 -0.0830 -0.3166 -0.7039
16490TIP3    H270886   5.834   2.387  15.226  1.9594  0.8978 -1.0782
16491TIP3   OH270887   3.040   2.618   1.122 -0.0406 -0.0342 -0.3231
16491TIP3    H170888   3.042   2.618   1.026  3.2201 -0.0738 -0.3648
16491TIP3    H270889   3.124   2.580   1.148 -0.5953  0.4840  2.5706
16492TIP3   OH270890   2.500   1.547  11.381  0.3141  0.3334  0.2754
16492TIP3    H170891   2.557   1.486  11.427  1.4599  1.5487  0.5425
16492TIP3    H270892   2.444   1.584  11.449 -0.5344 -0.5789  0.0769
16493TIP3   OH270893   4.207   4.333  14.605 -0.7063 -0.5543  0.1252
16493TIP3    H170894   4.191   4.427  14.600  0.3032 -0.4011 -0.7423
16493TIP3    H270895   4.241   4.310  14.519 -0.0748 -1.5413  0.6145
16494TIP3   OH270896   6.518   5.724   6.397  0.4341  0.0804  0.1261
16494TIP3    H170897   6.460   5.663   6.351 -0.3822  1.3089 -0.5410
16494TIP3    H270898   6.504   5.705   6.490 -1.8505  0.9774  0.0422
16495TIP3   OH270899   3.038   5.606  15.590 -0.7702 -0.3043 -0.0952
16495TIP3    H170900   3.051   5.589  15.496 -1.9383 -1.3448 -0.0893
16495TIP3    H270901   3.034   5.701  15.596 -0.1113 -0.1969 -1.0095
16496TIP3   OH270902   5.534   1.292   5.960 -0.3660  0.2917  0.9037
16496TIP3    H170903   5.615   1.253   5.996  1.3657  0.6092 -2.2902
16496TIP3    H270904   5.544   1.386   5.977  0.0872  0.3567  0.3260
16497TIP3   OH270905   6.133   1.085  12.533 -0.3007 -0.0402 -0.2687
16497TIP3    H170906   6.089   1.006  12.566  1.5421 -1.8664 -1.8723
16497TIP3    H270907   6.068   1.128  12.478 -1.9076  0.5957  1.9722
16498TIP3   OH270908   3.694   6.599   2.689  0.1614  0.1044 -0.0529
16498TIP3    H170909   3.673   6.623   2.599 -0.1431  0.9142  0.2132
16498TIP3    H270910   3.773   6.546   2.683 -0.9223 -1.5045 -0.9486
16499TIP3   OH270911   6.462   6.599  11.719  0.0962  0.8146  0.4036
16499TIP3    H170912   6.528   6.609  11.788 -0.2357 -1.0041  1.0428
16499TIP3    H270913   6.498   6.531  11.662 -0.0720  1.6323 -0.7110
16500TIP3   OH270914   5.100   6.170  13.507 -0.2750  0.1865  0.3599
16500TIP3    H170915   5.144   6.085  13.517 -0.3249  0.3166  2.1220
16500TIP3    H270916   5.164   6.226  13.464  0.0434 -0.5380 -0.1241
16501TIP3   OH270917   4.793   4.852   2.176  0.1380  0.3132 -0.3936
16501TIP3    H170918   4.882   4.863   2.144 -0.1233 -0.3941 -1.4104
16501TIP3    H270919   4.798   4.776   2.235  0.3972  0.9001  0.3460
16502TIP3   OH270920   4.704   4.762   5.633  0.2435 -0.0796  0.0164
16502TIP3    H170921   4.619   4.721   5.646 -0.6321  1.6487  0.0136
16502TIP3    H270922   4.719   4.811   5.714  1.1878 -0.2721 -0.0313
16503TIP3   OH270923   5.650   5.172  11.284  0.3650 -0.0466 -0.1906
16503TIP3    H170924   5.639   5.100  11.346 -1.5175 -0.8297 -1.3320
16503TIP3    H270925   5.743   5.195  11.289  0.4362 -0.5805  2.3124
16504TIP3   OH270926   5.645   2.556  15.785  0.8029  0.0166 -0.0570
16504TIP3    H170927   5.719   2.497  15.798 -0.0737 -1.1724 -0.2558
16504TIP3    H270928   5.576   2.500  15.749 -0.6201  0.8019  1.3365
16505TIP3   OH270929   3.886   3.547   3.508 -0.1555  0.2672 -0.2848
16505TIP3    H170930   3.894   3.633   3.467 -0.4456  0.0620 -0.7836
16505TIP3    H270931   3.969   3.503   3.490 -0.6613 -0.2066 -1.5723
16506TIP3   OH270932   5.821   4.515   3.795  0.0389  0.3040 -0.5283
16506TIP3    H170933   5.798   4.579   3.727 -1.7143  0.5891  0.2709
16506TIP3    H270934   5.892   4.557   3.844  2.3864 -0.5273 -2.9996
16507TIP3   OH270935   2.081   6.180   2.045  0.2643 -0.5178  0.2417
16507TIP3    H170936   2.109   6.120   2.114  1.4652 -0.3448 -0.0747
16507TIP3    H270937   2.149   6.246   2.041 -1.1028  0.9865  0.6775
16508TIP3   OH270938   0.752   4.108  13.568  1.2104 -0.7744 -0.0106
16508TIP3    H170939   0.720   4.080  13.654  2.3478 -2.7127 -0.1424
16508TIP3    H270940   0.675   4.105  13.512  0.5839 -0.1402  0.7822
16509TIP3   OH270941   0.395   0.766   5.611 -0.2520  0.4377 -0.5171
16509TIP3    H170942   0.431   0.721   5.534 -0.0592  3.0075 -2.0247
16509TIP3    H270943   0.318   0.812   5.579 -0.1885  1.5540  0.8253
16510TIP3   OH270944   0.694   6.564   1.873 -0.3134 -0.0858 -0.0828
16510TIP3    H170945   0.675   6.544   1.782  1.5406 -0.1888 -0.4759
16510TIP3    H270946   0.731   6.482   1.908 -0.7419  0.0410  0.6864
16511TIP3   OH270947   4.147   1.880  13.463  0.0585 -0.8132 -0.4756
16511TIP3    H170948   4.081   1.948  13.448  0.4695 -0.6328 -1.5157
16511TIP3    H270949   4.182   1.900  13.550  0.4264  0.5256 -0.9139
16512TIP3   OH270950   2.452   2.921   5.409 -0.1857  0.3269 -0.5710
16512TIP3    H170951   2.377   2.862   5.416  1.0090 -1.0665  1.7656
16512TIP3    H270952   2.452   2.971   5.491  0.5118  1.5243 -1.2531
16513TIP3   OH270953   2.396   3.591   4.307 -0.2077 -0.3245 -0.5994
16513TIP3    H170954   2.471   3.531   4.306 -0.5798 -0.8058  0.0961
16513TIP3    H270955   2.325   3.541   4.266 -0.0170  0.3297 -1.7851
16514TIP3   OH270956   3.302   3.720   2.728 -0.2064  0.5462 -0.7259
16514TIP3    H170957   3.226   3.739   2.783  0.3368 -0.6082  0.5049
16514TIP3    H270958   3.313   3.797   2.673 -0.3079  2.1089  1.3527
16515TIP3   OH270959   0.355   3.271   4.529  0.5494  0.2473  0.3943
16515TIP3    H170960   0.298   3.208   4.485 -0.4712 -0.5290  2.6483
16515TIP3    H270961   0.324   3.272   4.619  2.4804  1.7748  1.1209
16516TIP3   OH270962   1.987   4.405  14.617 -0.6792  0.5939 -0.8091
16516TIP3    H170963   1.976   4.326  14.670  0.7515 -0.3151 -1.7912
16516TIP3    H270964   1.936   4.472  14.663  0.2299 -0.2069  1.5109
16517TIP3   OH270965   1.941   2.169  12.514  0.3664  0.0952 -0.3550
16517TIP3    H170966   1.964   2.091  12.565 -0.8535 -0.6107 -0.8413
16517TIP3    H270967   1.985   2.157  12.430 -0.3583 -0.4310 -0.6767
16518TIP3   OH270968   0.507   6.578  11.711  0.1385 -0.8688 -0.1889
16518TIP3    H170969   0.469   6.511  11.767  1.8424 -1.8093 -0.0882
16518TIP3    H270970   0.542   6.643  11.773  0.4279 -1.0087 -0.2012
16519TIP3   OH270971   5.177   2.422   2.548 -0.0897 -0.3029  0.2954
16519TIP3    H170972   5.215   2.415   2.635 -0.8182  1.3323  0.7795
16519TIP3    H270973   5.128   2.504   2.549 -1.2729 -0.9317 -1.2090
16520TIP3   OH270974   2.927   5.428  15.344 -0.5530 -0.4157  0.4980
16520TIP3    H170975   2.934   5.475  15.261 -1.0341  1.5955  1.5530
16520TIP3    H270976   2.847   5.461  15.384 -0.1197 -1.0404  1.9551
16521TIP3   OH270977   4.120   6.248   5.682  0.3953 -0.1685 -0.1963
16521TIP3    H170978   4.033   6.281   5.660 -0.4004 -1.0304  1.5016
16521TIP3    H270979   4.179   6.318   5.654 -0.9263  0.9442 -0.3143
16522TIP3   OH270980   5.900   1.912  12.056 -0.3194  0.0758  0.2210
16522TIP3    H170981   5.918   1.879  11.968  2.0020  0.2474  0.5551
16522TIP3    H270982   5.829   1.857  12.089  0.8355 -2.0334 -0.6484
16523TIP3   OH270983   2.308   4.988  16.667 -0.4624 -0.7528  0.0723
16523TIP3    H170984   2.372   5.005  16.598  0.7154  0.8070  1.4918
16523TIP3    H270985   2.346   5.026  16.746 -3.2230  0.4782  0.9445
16524TIP3   OH270986   1.267   0.469  13.700 -0.6263  0.2589  0.4016
16524TIP3    H170987   1.245   0.376  13.703  1.5687 -0.3101  0.6566
16524TIP3    H270988   1.183   0.514  13.701 -1.7359 -1.7180  0.2658
16525TIP3   OH270989   2.880   1.145  16.398  0.0265  0.4518 -0.2151
16525TIP3    H170990   2.877   1.068  16.342 -3.4556  0.7342 -0.6064
16525TIP3    H270991   2.851   1.218  16.343 -0.8521  1.2483  1.2307
16526TIP3   OH270992   0.190   2.553   4.700  0.4696  0.6927 -0.0441
16526TIP3    H170993   0.150   2.487   4.645  0.9253  0.4240 -0.0580
16526TIP3    H270994   0.187   2.516   4.789 -0.3951  1.1847  0.1472
16527TIP3   OH270995   3.207   6.124  15.185 -0.0394  0.1166  0.3350
16527TIP3    H170996   3.265   6.200  15.182  0.1585 -0.0375  0.2689
16527TIP3    H270997   3.217   6.083  15.100 -0.5388  0.3084  0.1813
16528TIP3   OH270998   4.427   0.967  13.545 -0.0551 -0.0503  0.3324
16528TIP3    H170999   4.409   1.060  13.556  1.6959  0.8192 -2.7997
16528TIP3    H271000   4.406   0.950  13.453  1.6643 -2.1936  0.2540
16529TIP3   OH271001   0.060   4.130  10.997 -0.3950  0.3746 -0.0193
16529TIP3    H171002   0.032   4.057  10.941 -0.2531  0.8830 -0.7664
16529TIP3    H271003   0.051   4.208  10.942  0.0076  0.8579  0.5785
16530TIP3   OH271004   1.598   0.317   5.560 -0.2206 -0.1952  0.2088
16530TIP3    H171005   1.685   0.280   5.571 -0.0833 -0.6242 -1.8956
16530TIP3    H271006   1.568   0.285   5.475 -2.1345  0.5421  0.5373
16531TIP3   OH271007   1.646   5.419   2.216 -0.0303 -0.1093  0.2241
16531TIP3    H171008   1.611   5.373   2.292  1.2348 -2.9593 -0.7735
16531TIP3    H271009   1.597   5.384   2.141  0.1374  1.1079 -0.4837
16532TIP3   OH271010   4.334   3.056  16.381  0.1625  0.4015 -0.1908
16532TIP3    H171011   4.281   3.098  16.448  0.6133  0.5674  0.0646
16532TIP3    H271012   4.409   3.021  16.428 -0.8065 -1.8243 -0.1812
16533TIP3   OH271013   0.206   5.257   3.464 -0.2234 -0.1631  0.4812
16533TIP3    H171014   0.154   5.181   3.436  0.3142 -0.5338  0.4805
16533TIP3    H271015   0.241   5.293   3.383  0.3523 -0.5212  0.5682
16534TIP3   OH271016   5.438   4.603  16.994  0.5465  0.3472 -0.0163
16534TIP3    H171017   5.362   4.546  16.982  1.3280 -0.3117 -2.7102
16534TIP3    H271018   5.420   4.652  17.074 -1.0952 -2.2377  1.3502
16535TIP3   OH271019   5.690   1.615  16.633 -0.5780 -0.1026 -0.4487
16535TIP3    H171020   5.632   1.541  16.652 -0.3690 -0.4588 -1.1829
16535TIP3    H271021   5.759   1.578  16.578  0.5346  0.2464  0.6609
16536TIP3   OH271022   5.956   4.552   2.709  0.0713  0.1087 -0.0572
16536TIP3    H171023   5.874   4.569   2.755  0.2139  0.7000 -0.0102
16536TIP3    H271024   5.929   4.516   2.625 -0.2471  0.3591 -0.0666
16537TIP3   OH271025   3.997   3.054  16.661  0.0061 -0.2334 -0.7002
16537TIP3    H171026   3.921   3.009  16.699  1.0645 -1.7070 -0.2602
16537TIP3    H271027   4.034   3.104  16.734  0.6366 -1.1469 -0.3831
16538TIP3   OH271028   5.804   5.800  12.161 -0.0606 -0.2397  0.2542
16538TIP3    H171029   5.782   5.850  12.240 -2.4389 -1.8485  0.7432
16538TIP3    H271030   5.727   5.810  12.105  0.1998 -1.7838 -0.4273
16539TIP3   OH271031   0.422   6.396   6.131  0.0958 -0.6026  0.4207
16539TIP3    H171032   0.502   6.348   6.107  0.5162  0.3274 -0.1014
16539TIP3    H271033   0.411   6.379   6.225  0.9906 -0.6517  0.5261
16540TIP3   OH271034   4.230   2.312   1.168  0.3553  0.9982  0.3589
16540TIP3    H171035   4.305   2.278   1.119  0.8992  1.8819  0.5619
16540TIP3    H271036   4.238   2.272   1.255 -1.2184 -1.4551 -0.4961
16541TIP3   OH271037   6.290   5.933  14.886  0.1220  0.1283 -0.1835
16541TIP3    H171038   6.355   5.971  14.827 -0.9920 -0.8973 -2.1504
16541TIP3    H271039   6.340   5.874  14.942  1.2320  1.2636  0.0620
16542TIP3   OH271040   2.000   6.663  13.806 -0.3234 -0.0798  0.2424
16542TIP3    H171041   1.943   6.688  13.879 -1.1840  1.6634 -0.9538
16542TIP3    H271042   2.072   6.726  13.809 -0.6622  0.3734 -0.7135
16543TIP3   OH271043   1.139   4.364  10.987 -0.0341 -0.0180  0.2896
16543TIP3    H171044   1.195   4.382  10.912  0.3744  0.4430  0.7024
16543TIP3    H271045   1.119   4.270  10.979  0.8629 -0.2145  0.1769
16544TIP3   OH271046   3.524   2.953  17.088  0.2038  0.1397 -0.1268
16544TIP3    H171047   3.443   2.966  17.137 -0.7997 -0.7969 -1.4513
16544TIP3    H271048   3.593   2.983  17.147 -1.1271  1.3899  0.8742
16545TIP3   OH271049   6.682   1.225  13.950 -0.1392  0.3702  0.0488
16545TIP3    H171050   6.730   1.304  13.925 -0.1254  0.0124 -1.1187
16545TIP3    H271051   6.664   1.236  14.043  0.2933  1.5201  0.0083
16546TIP3   OH271052   1.489   0.139  15.389 -0.7178  0.3577  0.1932
16546TIP3    H171053   1.401   0.114  15.360 -0.7540  0.3404  0.3159
16546TIP3    H271054   1.506   0.222  15.344  0.6638 -1.3421 -2.7031
16547TIP3   OH271055   1.835   4.788  15.059 -0.4496  0.1144 -0.5575
16547TIP3    H171056   1.873   4.875  15.047 -1.1977  0.5004 -0.1903
16547TIP3    H271057   1.895   4.729  15.013  0.1670  0.7989 -0.6445
16548TIP3   OH271058   0.224   2.142   1.462  0.6493  0.3296 -0.4693
16548TIP3    H171059   0.283   2.070   1.439 -1.7253 -1.7383 -0.5322
16548TIP3    H271060   0.195   2.121   1.551 -2.2869 -0.5002 -1.5064
16549TIP3   OH271061   3.466   0.282  13.548  0.0112 -0.0447 -0.2900
16549TIP3    H171062   3.407   0.227  13.496  1.2629 -0.8736 -0.8713
16549TIP3    H271063   3.546   0.288  13.495  0.8121  0.2532  0.9140
16550TIP3   OH271064   1.015   0.462  17.234  0.5491 -0.2638 -0.2069
16550TIP3    H171065   0.971   0.413  17.303 -0.6339  0.0145 -0.7370
16550TIP3    H271066   0.964   0.542  17.224 -1.8414 -1.9389 -4.0210
16551TIP3   OH271067   0.906   1.044   3.677 -0.3012  0.0379 -0.2992
16551TIP3    H171068   0.819   1.052   3.716 -1.1810 -3.9037 -1.0420
16551TIP3    H271069   0.914   1.122   3.621 -2.7951  1.1540  0.7329
16552TIP3   OH271070   0.458   5.644   5.020  0.0812  0.0490  0.1213
16552TIP3    H171071   0.377   5.688   5.044 -1.9725 -1.7989 -2.7676
16552TIP3    H271072   0.456   5.642   4.924  4.0677  0.7084 -0.1433
16553TIP3   OH271073   2.553   2.481  13.160  0.3438 -0.2182 -0.1597
16553TIP3    H171074   2.545   2.554  13.099 -0.3488 -0.8780 -0.8870
16553TIP3    H271075   2.489   2.417  13.129  0.5482 -0.9069  0.7886
16554TIP3   OH271076   0.175   4.785   1.468 -0.2286 -0.0335 -0.5840
16554TIP3    H171077   0.165   4.704   1.418  0.5154  0.1478 -1.0553
16554TIP3    H271078   0.144   4.764   1.556 -0.4435 -0.7052 -0.8200
16555TIP3   OH271079   0.418   3.133  15.084 -0.3358  0.2754 -0.0004
16555TIP3    H171080   0.493   3.104  15.135 -0.9435 -0.2578  0.6072
16555TIP3    H271081   0.433   3.096  14.996  0.0546  0.0791  0.1484
16556TIP3   OH271082   6.206   5.822  12.611  0.0429  0.5983 -0.7401
16556TIP3    H171083   6.216   5.859  12.699 -0.4159  1.5816 -1.0876
16556TIP3    H271084   6.132   5.761  12.620  1.1386 -0.6807 -0.0441
16557TIP3   OH271085   2.796   0.679   4.966 -0.3823  0.2994  0.0266
16557TIP3    H171086   2.745   0.616   5.019  2.0115 -1.1876  0.7206
16557TIP3    H271087   2.766   0.765   4.997 -1.1910 -0.5138  1.6831
16558TIP3   OH271088   1.807   3.748  14.012  0.2515  0.0708 -0.1827
16558TIP3    H171089   1.858   3.728  14.091  1.0559 -1.1427 -0.9775
16558TIP3    H271090   1.821   3.842  13.998  1.6347 -0.0743  0.0692
16559TIP3   OH271091   0.637   4.801  15.634 -0.2734  0.4472  0.3311
16559TIP3    H171092   0.637   4.723  15.578 -1.2160  1.1026 -0.6123
16559TIP3    H271093   0.544   4.817  15.652 -0.0810  1.2752  0.6238
16560TIP3   OH271094   6.774   6.439   1.357  0.1389 -0.1642  0.0451
16560TIP3    H171095   6.680   6.449   1.375  0.2003  0.6920 -0.0869
16560TIP3    H271096   6.785   6.344   1.344 -0.4661 -0.4258  1.3222
16561TIP3   OH271097   6.558   2.768  10.653 -0.0654 -0.2602  0.0594
16561TIP3    H171098   6.517   2.687  10.683 -0.7437  0.8474  2.2990
16561TIP3    H271099   6.652   2.755  10.669 -0.1668 -0.6341  0.3536
16562TIP3   OH271100   3.432   2.438  16.805 -0.7202  0.0676  0.1081
16562TIP3    H171101   3.462   2.527  16.824  1.1950 -0.3438 -0.8030
16562TIP3    H271102   3.426   2.434  16.710  2.8632 -1.7838 -0.1944
16563TIP3   OH271103   3.245   1.591  12.368  0.2004 -0.3449 -0.1122
16563TIP3    H171104   3.199   1.604  12.285  1.5460 -1.2656 -1.0426
16563TIP3    H271105   3.242   1.677  12.411 -2.5397 -0.4261 -0.0052
16564TIP3   OH271106   2.944   6.470  12.847 -0.0942  0.1193 -0.3077
16564TIP3    H171107   2.908   6.558  12.843  0.5936  0.3977 -0.5016
16564TIP3    H271108   3.020   6.472  12.788 -1.9499 -1.4940 -3.0256
16565TIP3   OH271109   3.820   1.961  11.213 -0.5139  0.1456 -0.3072
16565TIP3    H171110   3.730   1.928  11.204 -0.0322 -1.9763  1.5947
16565TIP3    H271111   3.870   1.911  11.150 -0.6353  1.3653 -1.4018
16566TIP3   OH271112   1.185   1.071  14.193 -0.5574  0.3420 -0.6331
16566TIP3    H171113   1.130   0.995  14.213  0.5512 -0.2917  0.1004
16566TIP3    H271114   1.261   1.061  14.249  0.6873  0.7865 -2.1597
16567TIP3   OH271115   1.587   4.986   1.617 -0.8119 -0.3597  0.2149
16567TIP3    H171116   1.594   4.891   1.616 -0.3618 -0.3609  1.7968
16567TIP3    H271117   1.603   5.011   1.708  0.3581  1.3188 -0.3991
16568TIP3   OH271118   5.613   2.216  11.015  0.2480 -0.0477 -0.5508
16568TIP3    H171119   5.592   2.238  10.925  1.3413  1.4197 -0.4756
16568TIP3    H271120   5.637   2.123  11.012 -0.2087 -0.1478 -1.6618
16569TIP3   OH271121   1.278   0.875   3.391 -0.3670 -0.8079 -0.2046
16569TIP3    H171122   1.296   0.949   3.449  0.4205 -0.8928 -0.3335
16569TIP3    H271123   1.197   0.837   3.426  0.5981 -1.4526  1.4766
16570TIP3   OH271124   4.937   6.696  15.772 -0.0345  0.0633 -0.1626
16570TIP3    H171125   5.020   6.657  15.746 -0.4400 -1.5324  0.8154
16570TIP3    H271126   4.941   6.699  15.868 -1.2488 -0.3792 -0.0813
16571TIP3   OH271127   3.502   6.301  12.368 -0.1823 -0.1132 -0.3366
16571TIP3    H171128   3.525   6.219  12.410  0.2861 -0.5371 -1.4067
16571TIP3    H271129   3.427   6.334  12.419  0.1293 -0.7963  0.5746
16572TIP3   OH271130   6.529   1.164  13.398 -0.1754  0.5195 -0.4276
16572TIP3    H171131   6.457   1.187  13.456  0.0151  0.1681 -0.0509
16572TIP3    H271132   6.567   1.085  13.436 -0.5933 -0.2310 -1.4994
16573TIP3   OH271133   6.371   4.707  12.862  0.3625  0.6498 -0.1701
16573TIP3    H171134   6.446   4.659  12.828  1.6392  0.9971  1.9351
16573TIP3    H271135   6.407   4.762  12.932 -1.9364  0.4094  1.3277
16574TIP3   OH271136   3.117   6.533   6.407 -0.2168  0.1583 -0.5926
16574TIP3    H171137   3.146   6.616   6.368  1.7140  0.4891  1.3556
16574TIP3    H271138   3.101   6.554   6.499  1.3961 -1.8187  0.2212
16575TIP3   OH271139   0.591   5.573  16.467 -0.2404  0.1618  0.0918
16575TIP3    H171140   0.529   5.625  16.416 -0.7043  1.4684  1.9008
16575TIP3    H271141   0.677   5.596  16.431 -0.6060  0.3009 -0.7194
16576TIP3   OH271142   2.629   0.949  11.359  0.3453 -0.1069  0.1798
16576TIP3    H171143   2.595   0.862  11.384  1.3732 -0.9398 -1.1773
16576TIP3    H271144   2.695   0.930  11.292  1.0943  1.6934  0.3653
16577TIP3   OH271145   3.601   1.983  11.710  0.4629 -0.3205  0.4224
16577TIP3    H171146   3.618   2.049  11.777 -0.0045 -0.2151  0.4371
16577TIP3    H271147   3.686   1.971  11.667  0.8755 -0.7067  1.3144
16578TIP3   OH271148   0.883   5.055  16.092 -0.0267 -0.1126  0.2191
16578TIP3    H171149   0.959   5.088  16.140  0.5673 -2.7508  1.2705
16578TIP3    H271150   0.912   5.053  16.001  1.0901 -0.7903  0.5663
16579TIP3   OH271151   2.689   5.318   3.176  0.7169  0.6743 -0.3423
16579TIP3    H171152   2.635   5.328   3.098  1.2573  0.2912 -0.7675
16579TIP3    H271153   2.775   5.291   3.143  0.7821 -0.0825  0.4133
16580TIP3   OH271154   4.191   0.121   4.734  0.4785 -0.7175  0.3510
16580TIP3    H171155   4.274   0.089   4.698  0.2549  0.0161 -0.8694
16580TIP3    H271156   4.126   0.100   4.667 -0.2435 -0.8302  1.0764
16581TIP3   OH271157   1.171   3.833   4.889  0.0488 -0.1764 -0.5954
16581TIP3    H171158   1.091   3.817   4.939  1.3152 -0.1965  1.5241
16581TIP3    H271159   1.191   3.925   4.905  2.1517 -0.9383  1.6044
16582TIP3   OH271160   2.523   1.377  13.950  0.6087  0.0084 -0.2656
16582TIP3    H171161   2.597   1.394  14.007 -0.9971  0.5321  1.7569
16582TIP3    H271162   2.494   1.289  13.974 -1.0232  0.8244  0.8924
16583TIP3   OH271163   4.866   3.121  17.289  0.6659 -0.1227 -0.4220
16583TIP3    H171164   4.810   3.145  17.214 -0.6798  1.6507  1.0613
16583TIP3    H271165   4.810   3.066  17.344  1.9009 -2.0791 -1.0003
16584TIP3   OH271166   4.647   1.830  11.670  0.1038  0.1526 -0.5481
16584TIP3    H171167   4.644   1.875  11.586  2.5699 -0.2047 -0.9038
16584TIP3    H271168   4.580   1.874  11.723 -1.5378  0.3691 -2.6480
16585TIP3   OH271169   6.686   2.269   3.409  0.0424  0.6018 -0.0886
16585TIP3    H171170   6.687   2.302   3.319 -1.5134  3.0655  0.7094
16585TIP3    H271171   6.620   2.200   3.408  1.2738 -0.6328 -1.1589
16586TIP3   OH271172   3.078   5.040  11.030 -0.3700  0.7679  0.1254
16586TIP3    H171173   3.128   5.041  10.949  0.3248  0.4323  0.5307
16586TIP3    H271174   3.127   4.980  11.087 -0.4642  1.5047  1.0168
16587TIP3   OH271175   5.546   4.939  12.426  0.4485 -0.4628 -0.6902
16587TIP3    H171176   5.503   4.855  12.445 -0.8683  0.2974 -0.1497
16587TIP3    H271177   5.474   4.998  12.407  1.3619  0.5812 -0.9888
16588TIP3   OH271178   5.633   2.489   4.232 -0.1360  0.4564 -0.1544
16588TIP3    H171179   5.675   2.575   4.223 -0.3953  0.6623  0.4877
16588TIP3    H271180   5.543   2.504   4.204 -0.2333  0.4418  0.1508
16589TIP3   OH271181   4.422   2.916   1.112  0.9981 -0.5840  0.4627
16589TIP3    H171182   4.409   2.849   1.179 -0.1389 -0.3225  0.5192
16589TIP3    H271183   4.447   2.867   1.033  0.9104 -1.0130  0.6985
16590TIP3   OH271184   5.741   6.374   1.148 -0.3908 -0.6050  0.3730
16590TIP3    H171185   5.672   6.371   1.214  0.9704  0.8511  1.9457
16590TIP3    H271186   5.820   6.343   1.194  0.3707 -0.5555 -0.8561
16591TIP3   OH271187   3.909   5.098   3.356  0.2439  0.5840 -0.2021
16591TIP3    H171188   3.948   5.175   3.314 -0.6659  0.8185 -0.6306
16591TIP3    H271189   3.816   5.118   3.361 -0.0070 -0.5016 -0.3440
16592TIP3   OH271190   2.421   4.198   1.740  0.2383  0.4752  0.0110
16592TIP3    H171191   2.460   4.261   1.799  0.9588  3.1461 -3.0541
16592TIP3    H271192   2.495   4.159   1.693 -0.0495 -3.7287  2.5046
16593TIP3   OH271193   3.024   0.757  11.698 -0.3624  0.0335 -0.4672
16593TIP3    H171194   3.106   0.748  11.748  0.1857 -1.3126 -1.5293
16593TIP3    H271195   3.014   0.852  11.686  1.7580  0.2160 -1.3899
16594TIP3   OH271196   3.118   6.253  11.705  0.4684  0.0219  0.6340
16594TIP3    H171197   3.123   6.236  11.611 -1.0391 -1.5501  0.7954
16594TIP3    H271198   3.127   6.348  11.713 -0.4787  0.3036 -1.1996
16595TIP3   OH271199   5.689   6.325  11.294  0.1289  0.7943  0.1220
16595TIP3    H171200   5.714   6.233  11.307 -1.7269  0.1737 -0.4605
16595TIP3    H271201   5.770   6.374  11.311  1.3597 -0.9884 -0.3124
16596TIP3   OH271202   5.267   5.641   0.807 -0.6534  0.1597 -0.9979
16596TIP3    H171203   5.269   5.548   0.828  0.5400  0.1886 -0.9495
16596TIP3    H271204   5.193   5.675   0.858  0.5665 -0.2581  1.1775
16597TIP3   OH271205   1.146   2.175  15.861  0.2158  0.2697  0.0562
16597TIP3    H171206   1.074   2.197  15.801 -0.2616 -0.9744  0.1275
16597TIP3    H271207   1.158   2.253  15.914  0.1010  1.1155 -1.1243
16598TIP3   OH271208   1.870   2.357   2.782  0.1273 -0.2953 -0.0270
16598TIP3    H171209   1.843   2.411   2.708  3.4939  1.7077 -0.0150
16598TIP3    H271210   1.854   2.411   2.859  1.2296 -0.2707  0.2081
16599TIP3   OH271211   1.230   4.594   2.136  0.5413 -0.6619  0.3963
16599TIP3    H171212   1.142   4.573   2.103 -0.0781 -0.0298  1.5578
16599TIP3    H271213   1.289   4.538   2.086 -0.2666  0.5844 -2.1356
16600TIP3   OH271214   4.959   5.452   2.864 -0.0622  0.5140 -0.2777
16600TIP3    H171215   5.031   5.446   2.801 -0.3561 -0.9103 -0.5010
16600TIP3    H271216   4.993   5.509   2.933  0.3610  1.9074 -1.5731
16601TIP3   OH271217   5.887   3.851  12.197  0.0432  0.0282  0.2125
16601TIP3    H171218   5.909   3.769  12.152 -1.2752 -0.8498  1.1176
16601TIP3    H271219   5.868   3.912  12.126  2.8246  0.1342 -0.5436
16602TIP3   OH271220   2.956   2.488  15.487  0.2486 -0.2626 -0.3974
16602TIP3    H171221   2.931   2.502  15.396 -0.1948  0.0894 -0.2219
16602TIP3    H271222   3.049   2.511  15.490  0.2362 -0.1686 -0.7312
16603TIP3   OH271223   1.950   0.626  13.394  0.1183  0.3900 -0.4644
16603TIP3    H171224   1.912   0.569  13.328 -1.1768  2.1587 -1.3296
16603TIP3    H271225   2.045   0.613  13.385 -0.0831 -0.3632 -1.7842
16604TIP3   OH271226   3.019   2.345   4.226  0.3570  0.4958 -0.1368
16604TIP3    H171227   3.097   2.346   4.170  0.2280 -2.5665 -0.5029
16604TIP3    H271228   3.048   2.303   4.307 -0.4802  1.0583  0.4686
16605TIP3   OH271229   1.864   6.301   0.012  0.0745 -0.1307 -0.2620
16605TIP3    H171230   1.851   6.365  -0.058  0.6071  1.1923  0.7904
16605TIP3    H271231   1.872   6.354   0.092  2.5387 -1.3654  0.4185
16606TIP3   OH271232   1.566   1.907   0.036 -0.3806 -0.5540 -0.3856
16606TIP3    H171233   1.540   1.833   0.092 -1.1102  0.2525  0.3719
16606TIP3    H271234   1.491   1.922  -0.021 -0.6502  0.2246  0.1477
16607TIP3   OH271235   1.781   2.054  15.565 -0.1519 -0.8121 -0.1380
16607TIP3    H171236   1.781   2.132  15.621 -1.3240 -1.2051  0.4370
16607TIP3    H271237   1.843   1.994  15.606  1.7179  0.2480 -1.2646
16608TIP3   OH271238   6.756   5.498   1.206  0.0810  0.3943 -0.0411
16608TIP3    H171239   6.760   5.502   1.110 -1.0090  0.6660 -0.0844
16608TIP3    H271240   6.848   5.500   1.233  0.4114  0.2701 -1.0783
16609TIP3   OH271241   2.947   6.306  13.215 -0.5701  0.2815  0.2862
16609TIP3    H171242   2.970   6.214  13.218 -0.2670  0.3676  0.7789
16609TIP3    H271243   2.975   6.341  13.300 -0.4383  0.8835  0.0037
16610TIP3   OH271244   3.423   0.866   2.389 -0.0246 -0.1037  0.3544
16610TIP3    H171245   3.386   0.941   2.343  0.3476  0.0562  0.3132
16610TIP3    H271246   3.367   0.793   2.365 -1.1009  0.3715  1.3113
16611TIP3   OH271247   5.500   5.076  14.399 -0.3988  0.5327  0.8499
16611TIP3    H171248   5.592   5.056  14.418  0.4901  1.9371 -1.4679
16611TIP3    H271249   5.467   5.113  14.481  1.1754  0.2598  1.6675
16612TIP3   OH271250   5.301   6.762   1.127  0.1798 -0.1279  0.3985
16612TIP3    H171251   5.348   6.678   1.125 -0.7391 -0.6456 -0.6717
16612TIP3    H271252   5.282   6.776   1.220  3.2370  0.5961  1.0220
16613TIP3   OH271253   0.449   0.412  14.627 -0.3943  0.5229 -0.5729
16613TIP3    H171254   0.521   0.412  14.565 -1.0968  0.5649 -1.4136
16613TIP3    H271255   0.490   0.425  14.712  0.5654  0.7108 -1.0530
16614TIP3   OH271256   5.296   6.507   0.135  0.0794 -0.7712  0.4248
16614TIP3    H171257   5.274   6.461   0.054 -1.4440  0.1847  0.2451
16614TIP3    H271258   5.280   6.442   0.204  0.7903 -1.3982  0.0052
16615TIP3   OH271259   4.738   5.948   5.662 -0.1939  1.2887 -0.3794
16615TIP3    H171260   4.815   5.911   5.619  1.7069 -2.0635  4.9122
16615TIP3    H271261   4.769   6.031   5.699  0.3801  0.8553  0.1451
16616TIP3   OH271262   5.398   3.516  11.872  0.4990  0.4179  0.4105
16616TIP3    H171263   5.390   3.564  11.790 -1.6788 -0.4474  0.0339
16616TIP3    H271264   5.473   3.555  11.916  1.0755  1.6121 -1.5138
16617TIP3   OH271265   1.562   3.790   3.567  0.9269  0.7390  0.6362
16617TIP3    H171266   1.561   3.780   3.472  0.6922 -0.0202  0.7111
16617TIP3    H271267   1.469   3.799   3.591  0.8976 -0.1253  0.8855
16618TIP3   OH271268   5.595   4.487   0.684  0.2264  0.2033 -0.1602
16618TIP3    H171269   5.511   4.477   0.640  0.4386  0.4150 -0.6204
16618TIP3    H271270   5.625   4.397   0.700 -0.7672  0.1005  1.3545
16619TIP3   OH271271   3.559   4.809   2.925 -0.5910  0.8860  0.0427
16619TIP3    H171272   3.607   4.844   3.000  0.0703 -1.0454  0.5726
16619TIP3    H271273   3.622   4.814   2.852  0.6940 -1.9927  0.8171
16620TIP3   OH271274   3.820   6.629   4.550 -0.2992  0.0419  0.3374
16620TIP3    H171275   3.850   6.540   4.570 -0.3449 -0.0488  0.0107
16620TIP3    H271276   3.725   6.621   4.543 -0.4958  0.4700  2.1132
16621TIP3   OH271277   3.636   6.407  14.269  0.7644  0.5017 -0.5867
16621TIP3    H171278   3.682   6.324  14.261 -1.4958 -0.7795 -1.1643
16621TIP3    H271279   3.600   6.405  14.358  1.5247  1.3498 -0.2461
16622TIP3   OH271280   1.315   6.508   6.784  0.2430  0.7277 -0.2730
16622TIP3    H171281   1.246   6.544   6.839 -0.0889  0.6863 -0.6579
16622TIP3    H271282   1.300   6.546   6.698 -0.1996 -0.4174 -0.7237
16623TIP3   OH271283   3.920   0.654  14.974  0.8324  0.7460  0.4070
16623TIP3    H171284   3.864   0.728  14.997 -1.7697 -1.0164  0.0996
16623TIP3    H271285   3.879   0.578  15.016  0.4135 -1.3440 -3.3487
16624TIP3   OH271286   4.307   1.545  14.013  0.9792 -0.5964  0.3649
16624TIP3    H171287   4.399   1.541  13.987  0.9978  0.4877  0.2270
16624TIP3    H271288   4.260   1.570  13.934  0.8849  1.4125  1.0091
16625TIP3   OH271289   4.230   6.430  12.470  0.0521 -0.0646  0.5350
16625TIP3    H171290   4.234   6.345  12.514  0.0231 -1.2546 -1.6270
16625TIP3    H271291   4.289   6.486  12.520  0.3181 -1.4455  1.8338
16626TIP3   OH271292   3.423   5.795   2.651 -0.2602 -0.5244 -0.3412
16626TIP3    H171293   3.400   5.886   2.668 -2.9089 -1.5212  2.4816
16626TIP3    H271294   3.516   5.789   2.670 -0.0429  1.5765 -0.5594
16627TIP3   OH271295   2.241   5.051   0.347 -0.0390  0.1802 -0.1703
16627TIP3    H171296   2.201   5.085   0.427 -0.2941 -1.2087  0.3322
16627TIP3    H271297   2.333   5.037   0.371 -0.1187 -0.2504 -0.1160
16628TIP3   OH271298   5.983   6.382  11.815  0.5234 -0.5085  0.2662
16628TIP3    H171299   5.956   6.462  11.859 -1.6038 -0.2288 -1.3416
16628TIP3    H271300   5.963   6.312  11.877 -2.4244 -0.1332 -0.1208
16629TIP3   OH271301   1.483   2.647  11.581  0.3813 -0.6831 -0.6290
16629TIP3    H171302   1.494   2.659  11.675  2.2455  1.3592 -1.0227
16629TIP3    H271303   1.407   2.700  11.558 -0.0056 -1.0947 -0.3175
16630TIP3   OH271304   1.213   1.127  14.581 -0.3324 -0.4992 -0.2828
16630TIP3    H171305   1.291   1.092  14.537  0.7986  1.0533  0.3966
16630TIP3    H271306   1.161   1.049  14.603  0.7931 -1.5408 -1.1720
16631TIP3   OH271307   2.775   2.117  14.107 -0.0846 -0.1907 -0.4867
16631TIP3    H171308   2.820   2.192  14.148  0.6365 -1.0069  0.2756
16631TIP3    H271309   2.691   2.152  14.079 -0.1494  0.6880  0.7124
16632TIP3   OH271310   2.452   5.327  15.284  0.0954  0.0379 -0.7969
16632TIP3    H171311   2.404   5.251  15.316 -0.6861  1.8903  3.0083
16632TIP3    H271312   2.385   5.382  15.243 -0.7364  1.3506  2.0408
16633TIP3   OH271313   4.282   5.677  16.004 -0.0613 -0.0761 -0.2986
16633TIP3    H171314   4.202   5.637  16.038  0.6045 -0.8428  0.3840
16633TIP3    H271315   4.331   5.605  15.965  0.3423  0.3713 -0.6327
16634TIP3   OH271316   0.069   5.499  17.041  0.2617 -0.3634  0.1441
16634TIP3    H171317  -0.011   5.463  17.002  0.4356 -0.7012  0.0964
16634TIP3    H271318   0.138   5.478  16.977  0.5020 -0.6676  0.5048
16635TIP3   OH271319   4.449   4.230  13.300  0.7870 -0.1209  0.0255
16635TIP3    H171320   4.453   4.201  13.209  0.9767  2.1436 -0.7255
16635TIP3    H271321   4.410   4.155  13.346  0.9792 -1.4459 -1.8258
16636TIP3   OH271322   5.822   3.762  15.639  0.5045  0.3661 -0.2253
16636TIP3    H171323   5.773   3.680  15.646  0.5791  0.0918 -2.2576
16636TIP3    H271324   5.904   3.745  15.684  0.4328 -0.6087 -0.4406
16637TIP3   OH271325   4.366   5.619  13.267  0.6315 -0.1288  0.1999
16637TIP3    H171326   4.288   5.627  13.213  1.0222 -0.4705 -0.4329
16637TIP3    H271327   4.340   5.651  13.354  0.0284  0.5336 -0.2213
16638TIP3   OH271328   1.160   4.487  13.568  0.6524  0.3744 -0.0266
16638TIP3    H171329   1.180   4.409  13.517 -0.4737  0.8830 -1.3287
16638TIP3    H271330   1.067   4.477  13.591  0.2733  1.6536 -0.8824
16639TIP3   OH271331   1.798   2.396  16.080 -0.3254  0.0427 -0.4326
16639TIP3    H171332   1.816   2.378  16.172 -2.3077  0.5298  0.0947
16639TIP3    H271333   1.724   2.339  16.058 -0.0703  0.1407 -1.6419
16640TIP3   OH271334   1.538   3.657   5.753  0.2363 -0.4658  0.0528
16640TIP3    H171335   1.550   3.684   5.662  0.6676  0.3374  0.3352
16640TIP3    H271336   1.597   3.583   5.764  0.6462 -0.1714 -0.1542
16641TIP3   OH271337   5.166   2.774  16.734  0.2954  0.1873 -0.4056
16641TIP3    H171338   5.163   2.827  16.654  2.2517  0.3045 -0.4295
16641TIP3    H271339   5.258   2.769  16.757 -0.0316 -1.5421  0.7352
16642TIP3   OH271340   1.883   0.652   4.232  0.4198 -0.2957  0.2109
16642TIP3    H171341   1.848   0.725   4.181  0.3548  0.8860  1.8785
16642TIP3    H271342   1.947   0.692   4.291  0.8704 -1.6960  0.7220
16643TIP3   OH271343   4.116   5.205  12.909 -0.3893 -0.3206  0.0206
16643TIP3    H171344   4.033   5.216  12.862 -0.1384 -0.8757 -0.5616
16643TIP3    H271345   4.101   5.130  12.966  0.0641 -1.1456 -0.9123
16644TIP3   OH271346   4.326   5.663  14.727  0.2473  0.5620 -0.3849
16644TIP3    H171347   4.266   5.592  14.749  0.4546  0.3812 -0.4006
16644TIP3    H271348   4.276   5.719  14.666 -0.6144  1.4919  1.1060
16645TIP3   OH271349   5.588   2.985   2.070  0.8241 -0.0415  0.5535
16645TIP3    H171350   5.601   3.023   1.983  0.4146  0.0338  0.5235
16645TIP3    H271351   5.548   2.900   2.054 -1.4899  0.9429  0.7312
16646TIP3   OH271352   6.219   4.209  11.272 -0.3040  0.1786 -0.3240
16646TIP3    H171353   6.282   4.274  11.301  1.4511 -0.3836 -2.5795
16646TIP3    H271354   6.149   4.260  11.231 -0.6248  0.7424  0.8930
16647TIP3   OH271355   0.187   5.002   3.270 -0.3234 -0.2781  0.0727
16647TIP3    H171356   0.153   4.948   3.341 -1.4370  2.0792  1.4386
16647TIP3    H271357   0.110   5.035   3.225  0.3508 -0.6095 -1.3947
16648TIP3   OH271358   0.336   6.487  11.263 -0.0124  0.0899 -0.0369
16648TIP3    H171359   0.302   6.469  11.176 -1.3472 -1.0509  0.6801
16648TIP3    H271360   0.407   6.423  11.275 -1.4568 -1.4727  0.6016
16649TIP3   OH271361   2.631   1.785   3.038 -0.2114 -0.5747 -0.1954
16649TIP3    H171362   2.701   1.722   3.055 -1.8625 -2.2137  0.9397
16649TIP3    H271363   2.593   1.803   3.123  0.1101  1.9411 -0.5102
16650TIP3   OH271364   0.868   4.779  12.377  0.1203  0.3151  0.3831
16650TIP3    H171365   0.804   4.755  12.309  1.2634 -1.0737 -0.2660
16650TIP3    H271366   0.940   4.820  12.329 -0.5304  2.5030  1.1843
16651TIP3   OH271367   4.670   2.064   3.041  0.2214 -0.2789 -0.0439
16651TIP3    H171368   4.737   2.005   3.076  1.7621  0.8296 -1.0164
16651TIP3    H271369   4.632   2.017   2.967 -1.7267 -1.8424  1.8051
16652TIP3   OH271370   4.934   2.461   3.473  0.2771  0.0198 -0.5520
16652TIP3    H171371   5.026   2.437   3.464  0.7410  1.5341 -0.1098
16652TIP3    H271372   4.897   2.447   3.386  0.8724 -0.8102 -0.6781
16653TIP3   OH271373   4.874   0.707   1.977 -0.4014  0.0006 -0.0138
16653TIP3    H171374   4.805   0.659   2.024 -0.6293 -0.9808 -1.2780
16653TIP3    H271375   4.832   0.731   1.894  0.0911  1.3881  0.1278
16654TIP3   OH271376   0.458   3.000   0.047 -0.7994  0.0925 -0.2704
16654TIP3    H171377   0.426   3.077   0.094 -0.3847 -0.1331  0.4005
16654TIP3    H271378   0.551   3.018   0.033 -0.8467  0.0041 -0.7042
16655TIP3   OH271379   6.276   0.926  16.211 -0.0962  0.2488  0.4408
16655TIP3    H171380   6.297   0.969  16.129 -0.7644 -0.0059  0.1256
16655TIP3    H271381   6.199   0.872  16.191  0.3142 -0.5641  0.9948
16656TIP3   OH271382   4.800   0.698   6.465  1.0426  0.5225 -0.1192
16656TIP3    H171383   4.769   0.615   6.501  1.3004  0.6275  0.3458
16656TIP3    H271384   4.721   0.751   6.455  0.9501  0.4311  0.1265
16657TIP3   OH271385   0.707   5.113   1.977 -0.2166 -0.2132  0.1273
16657TIP3    H171386   0.739   5.088   1.891  0.6367  1.8733 -0.2096
16657TIP3    H271387   0.612   5.099   1.972  0.0398 -2.0515 -0.4199
16658TIP3   OH271388   2.775   3.638   3.914 -0.4222 -0.3587  0.3296
16658TIP3    H171389   2.843   3.596   3.861 -0.6257  1.3456 -1.4023
16658TIP3    H271390   2.697   3.637   3.859 -0.5612  1.7946  0.3748
16659TIP3   OH271391   1.785   1.041   3.290 -0.8704  0.3410 -0.4569
16659TIP3    H171392   1.813   0.986   3.363  1.2768  0.7670 -0.8953
16659TIP3    H271393   1.748   0.979   3.227  1.4243 -0.6784 -0.9131
16660TIP3   OH271394   4.671   3.628  10.557 -0.3523  0.0683  0.8080
16660TIP3    H171395   4.715   3.692  10.612 -1.0942  0.2522  1.1870
16660TIP3    H271396   4.580   3.628  10.586 -1.2360  1.5417 -1.6269
16661TIP3   OH271397   5.689   1.729  12.068 -0.0811 -0.2244  0.4533
16661TIP3    H171398   5.632   1.729  11.991 -0.6803  1.5520  0.8602
16661TIP3    H271399   5.686   1.638  12.100 -3.0208 -0.1389  0.6948
16662TIP3   OH271400   4.739   5.042  13.374 -0.0360  0.3154 -0.0637
16662TIP3    H171401   4.825   5.002  13.387  1.2748  2.4380 -1.5903
16662TIP3    H271402   4.703   4.998  13.298  0.4388  0.5226 -0.4126
16663TIP3   OH271403   0.244   3.053  11.636 -0.1852 -0.1371 -0.0569
16663TIP3    H171404   0.209   3.124  11.583  0.0573 -0.5794 -0.8185
16663TIP3    H271405   0.201   2.974  11.602 -0.3897 -0.3724  0.7207
16664TIP3   OH271406   5.234   6.547  13.445 -0.2532 -0.3315 -0.1652
16664TIP3    H171407   5.199   6.461  13.421 -0.0913 -0.0484 -1.5056
16664TIP3    H271408   5.160   6.607  13.434 -0.1506 -0.1791 -0.0366
16665TIP3   OH271409   5.966   0.914  12.682 -0.0153  0.1192  0.1796
16665TIP3    H171410   5.879   0.947  12.661  0.2300  0.9096  0.3915
16665TIP3    H271411   5.960   0.881  12.771  0.1640  1.1238  0.5681
16666TIP3   OH271412   6.390   2.022  15.646  0.0281 -0.3709  0.3014
16666TIP3    H171413   6.355   2.075  15.717 -1.5446  1.8181 -1.9417
16666TIP3    H271414   6.331   1.946  15.641  0.1011 -0.4976  1.2403
16667TIP3   OH271415   2.832   3.659   2.226 -0.5764 -0.0875 -0.1753
16667TIP3    H171416   2.789   3.647   2.142 -0.4474 -0.0754 -0.2435
16667TIP3    H271417   2.876   3.744   2.220 -1.1826  0.2568  0.1749
16668TIP3   OH271418   0.811   0.734   3.775  0.2346 -0.2725  0.0501
16668TIP3    H171419   0.808   0.814   3.721  2.1375  0.3393  0.7534
16668TIP3    H271420   0.781   0.763   3.861 -0.5712 -0.7112 -0.0732
16669TIP3   OH271421   5.070   0.084  13.838 -0.4964 -0.5786 -0.5538
16669TIP3    H171422   5.009   0.041  13.778  0.0537 -1.4023 -0.5383
16669TIP3    H271423   5.092   0.017  13.902  1.5005 -0.7484 -1.3520
16670TIP3   OH271424   1.562   4.067  15.400  0.1297 -0.5612 -0.2000
16670TIP3    H171425   1.547   3.997  15.464 -0.4092 -1.7045 -1.5173
16670TIP3    H271426   1.603   4.023  15.326  0.3779  0.6586 -0.8137
16671TIP3   OH271427   4.401   2.883   4.575  0.5207  0.2557  0.2437
16671TIP3    H171428   4.446   2.835   4.644 -0.7461 -0.0050  0.8964
16671TIP3    H271429   4.361   2.958   4.619  0.5232  0.6341 -0.3752
16672TIP3   OH271430   4.456   6.059   3.411  0.3263  0.2564  0.1106
16672TIP3    H171431   4.464   6.024   3.500  2.1294  1.0984  0.3297
16672TIP3    H271432   4.407   6.141   3.422 -0.6285 -0.3018  0.1171
16673TIP3   OH271433   1.230   4.426   1.546  0.6031  0.7420  0.5553
16673TIP3    H171434   1.193   4.459   1.464 -0.4866  2.3609  1.6299
16673TIP3    H271435   1.311   4.476   1.557  1.2620 -0.1712  0.0239
16674TIP3   OH271436   2.744   3.396  12.921  0.0590  0.0800  0.1407
16674TIP3    H171437   2.818   3.334  12.921  0.9121  1.0704 -0.3990
16674TIP3    H271438   2.754   3.445  12.839 -0.1752  1.4384  0.9093
16675TIP3   OH271439   0.956   3.948   6.001 -0.4303  0.0594 -0.2402
16675TIP3    H171440   0.904   4.029   6.006 -0.3098  0.2714 -1.8393
16675TIP3    H271441   0.923   3.894   6.073 -2.3921  0.4803 -0.7556
16676TIP3   OH271442   6.020   3.392  15.825 -0.2503  0.6290 -0.4012
16676TIP3    H171443   5.979   3.309  15.849  0.1324  0.2378 -1.0416
16676TIP3    H271444   5.969   3.459  15.869 -0.1129  0.0061  0.7222
16677TIP3   OH271445   4.623   3.894  11.521 -0.5513  0.2078 -0.1950
16677TIP3    H171446   4.570   3.954  11.573 -1.1054 -0.1109 -0.3893
16677TIP3    H271447   4.591   3.807  11.545  0.6795 -0.0713  0.5832
16678TIP3   OH271448   0.883   5.767  10.823 -0.4182  0.1490  0.0305
16678TIP3    H171449   0.817   5.823  10.865 -1.1345 -1.7087  1.5509
16678TIP3    H271450   0.854   5.678  10.843  1.6390 -0.7459 -0.7518
16679TIP3   OH271451   0.090   0.002   0.909 -0.4852  0.3114 -0.7767
16679TIP3    H171452   0.167   0.058   0.919  0.5819 -1.3203  0.6233
16679TIP3    H271453   0.023   0.042   0.965 -0.2113  0.9709 -0.9171
16680TIP3   OH271454   0.140   0.574   2.999  0.1017  0.2712 -0.4427
16680TIP3    H171455   0.162   0.585   2.907  1.2037 -0.1949 -0.2505
16680TIP3    H271456   0.194   0.501   3.028  1.8215  2.0627  1.2174
16681TIP3   OH271457   4.843   3.403   5.314  0.1607 -0.2651  1.0719
16681TIP3    H171458   4.778   3.342   5.350  1.0970 -0.9154  1.7143
16681TIP3    H271459   4.918   3.347   5.292  1.2051  0.7033  2.0810
16682TIP3   OH271460   3.235   2.102  11.260 -0.1130 -0.2135  0.2301
16682TIP3    H171461   3.209   2.010  11.261  0.3093 -0.3389 -0.0165
16682TIP3    H271462   3.153   2.151  11.271 -0.6356 -0.5654 -1.7397
16683TIP3   OH271463   0.355   2.313  14.926 -0.2894  0.2140 -0.7895
16683TIP3    H171464   0.312   2.281  14.847 -1.3705  1.9618 -0.9711
16683TIP3    H271465   0.413   2.383  14.894  0.1447  0.1501 -0.1540
16684TIP3   OH271466   5.485   0.942   4.060  0.0690 -0.0253  0.0760
16684TIP3    H171467   5.421   0.871   4.058  0.7609 -0.6629  0.3013
16684TIP3    H271468   5.443   1.011   4.112 -1.3736  0.5118 -1.6762
16685TIP3   OH271469   5.659   4.235  11.925 -0.0419  0.5879  0.1117
16685TIP3    H171470   5.643   4.324  11.894  1.0225  0.9620  0.5962
16685TIP3    H271471   5.630   4.180  11.852 -0.8858  1.3093 -0.1192
16686TIP3   OH271472   6.695   3.331  12.946  0.7581 -0.0412 -0.1783
16686TIP3    H171473   6.606   3.360  12.966  0.4407 -1.7572  1.1938
16686TIP3    H271474   6.686   3.283  12.863  0.8049  1.4103 -1.0559
16687TIP3   OH271475   3.804   1.862  12.063  0.0719  0.2844 -0.4085
16687TIP3    H171476   3.817   1.806  12.140 -1.1807  0.9160  0.3031
16687TIP3    H271477   3.845   1.945  12.087  0.8512  0.0732 -0.9739
16688TIP3   OH271478   1.018   5.581  13.631  0.0327 -0.1073 -0.0252
16688TIP3    H171479   1.057   5.661  13.667  1.0398 -1.1150  1.1906
16688TIP3    H271480   0.923   5.598  13.634  0.0681  0.0887  2.7229
16689TIP3   OH271481   6.710   2.986   1.219  0.5575  0.3562 -0.0736
16689TIP3    H171482   6.694   2.961   1.310  0.1056 -2.7907 -0.8847
16689TIP3    H271483   6.622   2.997   1.181  0.7471  2.5832  0.0360
16690TIP3   OH271484   5.845   2.768   3.771 -0.2691  0.0683  0.1124
16690TIP3    H171485   5.788   2.844   3.776 -0.3686 -0.0772  1.7256
16690TIP3    H271486   5.803   2.710   3.707  0.1492  1.5845 -1.6335
16691TIP3   OH271487   6.557   6.756   0.220 -0.8389 -0.0520  0.2988
16691TIP3    H171488   6.618   6.705   0.272  0.3696  0.5688 -0.4594
16691TIP3    H271489   6.531   6.829   0.277 -0.8575 -0.3018  0.6105
16692TIP3   OH271490   0.800   4.951   0.621  0.2036  0.6653 -0.6152
16692TIP3    H171491   0.823   5.027   0.673 -0.9039  1.6508 -1.5224
16692TIP3    H271492   0.836   4.970   0.534 -0.3015  0.2709 -0.9146
16693TIP3   OH271493   5.098   5.787   3.054  0.0942  0.2998  0.2330
16693TIP3    H171494   5.130   5.867   3.097 -0.8797  0.8296  0.0003
16693TIP3    H271495   5.120   5.799   2.962 -0.1699  0.3608  0.1775
16694TIP3   OH271496   1.939   1.115   0.172  0.1554  0.0498  0.0486
16694TIP3    H171497   1.949   1.060   0.094  0.9608 -0.7954  0.7213
16694TIP3    H271498   1.914   1.054   0.241  2.2705  0.2686  1.0975
16695TIP3   OH271499   6.037   4.246   4.056  0.0295  0.1425 -0.2861
16695TIP3    H171500   6.019   4.228   4.148 -0.5704  0.0564 -0.4166
16695TIP3    H271501   5.954   4.279   4.021  0.0482 -0.4821 -0.9520
16696TIP3   OH271502   6.186   5.089  11.028  0.3215  0.3347 -0.8247
16696TIP3    H171503   6.273   5.091  10.988  0.3452 -0.9880 -0.8777
16696TIP3    H271504   6.126   5.091  10.953  0.3643 -1.9201 -0.9887
16697TIP3   OH271505   5.588   5.386   4.254 -0.3341 -0.2542 -0.6988
16697TIP3    H171506   5.618   5.412   4.341  2.2775 -0.1976 -1.5415
16697TIP3    H271507   5.590   5.291   4.256 -0.1095 -0.2507 -0.7494
16698TIP3   OH271508   6.717   1.418  12.254 -0.1490 -0.6899  0.6585
16698TIP3    H171509   6.683   1.485  12.313  0.7146  1.2214 -0.9357
16698TIP3    H271510   6.811   1.416  12.271 -0.0365 -0.8259  0.0478
16699TIP3   OH271511   6.260   5.485  12.998  0.6339  0.2485 -0.0484
16699TIP3    H171512   6.212   5.433  13.063  0.7355  1.2138  0.8066
16699TIP3    H271513   6.191   5.535  12.953  0.6314  0.0406 -0.2827
16700TIP3   OH271514   6.249   2.269  13.330  0.0199 -0.6245  0.1350
16700TIP3    H171515   6.188   2.210  13.375  0.3134 -0.2637  1.0121
16700TIP3    H271516   6.336   2.239  13.357  0.1873 -0.1718  0.1090
16701TIP3   OH271517   6.533   4.041  10.960  0.2293  0.1096  0.0928
16701TIP3    H171518   6.442   4.071  10.954 -0.0319  0.3984  3.6026
16701TIP3    H271519   6.578   4.086  10.888 -2.1625  0.7900 -1.0719
16702TIP3   OH271520   6.248   5.042  15.943  0.0810  0.2526 -0.1572
16702TIP3    H171521   6.246   4.947  15.932 -0.6668  0.2254  0.1207
16702TIP3    H271522   6.232   5.055  16.037  0.6413  0.6386 -0.1135
16703TIP3   OH271523   1.297   1.780   4.637 -0.1946 -0.4373  0.4564
16703TIP3    H171524   1.369   1.799   4.697  1.2017 -1.6035 -0.7701
16703TIP3    H271525   1.226   1.837   4.666  1.0351  0.3757  2.0368
16704TIP3   OH271526   5.844   3.171   4.698 -0.3358  0.1363  0.1913
16704TIP3    H171527   5.804   3.094   4.657  0.2041  0.6826 -1.4063
16704TIP3    H271528   5.934   3.143   4.717 -0.3480  0.1449  0.2604
16705TIP3   OH271529   1.085   6.126  11.823  0.3101  0.8770  0.0459
16705TIP3    H171530   0.994   6.110  11.800  0.1344  0.4477  1.0087
16705TIP3    H271531   1.090   6.220  11.841 -0.3124  0.6252  1.5896
16706TIP3   OH271532   1.386   0.329  14.736  0.1959  0.0108  0.3054
16706TIP3    H171533   1.335   0.381  14.798  0.0366  0.5392 -0.2586
16706TIP3    H271534   1.325   0.263  14.703 -0.0103  0.3596 -0.0302
16707TIP3   OH271535   1.415   1.805  12.475  0.1627 -0.0691 -0.2847
16707TIP3    H171536   1.320   1.816  12.473  0.4045  2.6787 -1.7862
16707TIP3    H271537   1.441   1.841  12.560 -0.1597 -1.6840  0.5349
16708TIP3   OH271538   4.125   4.079   2.696  0.5019 -0.0922  0.5378
16708TIP3    H171539   4.104   4.006   2.753 -0.5276 -0.6992 -0.5657
16708TIP3    H271540   4.122   4.156   2.753  0.5462 -0.7846  1.4993
16709TIP3   OH271541   3.209   1.326   4.014  0.2363 -0.0932  0.4457
16709TIP3    H171542   3.233   1.385   3.942  2.4810  0.8746  1.8812
16709TIP3    H271543   3.125   1.360   4.046  0.1676  0.6372 -0.4532
16710TIP3   OH271544   3.521   0.687   3.544  0.7068  0.0381 -0.6294
16710TIP3    H171545   3.590   0.747   3.571  1.4019 -0.9199 -0.2053
16710TIP3    H271546   3.446   0.710   3.599  0.1380  2.1122 -2.1480
16711TIP3   OH271547   1.152   0.881  13.728 -0.1094  0.3230  0.4031
16711TIP3    H171548   1.200   0.818  13.674 -1.0413 -0.2387  0.2196
16711TIP3    H271549   1.071   0.898  13.679 -0.6110  0.4015  1.2517
16712TIP3   OH271550   2.566   1.432  15.653 -0.7379  0.0676 -0.5019
16712TIP3    H171551   2.491   1.454  15.598 -0.5456 -0.7618 -1.1266
16712TIP3    H271552   2.591   1.344  15.625 -0.5850 -0.3447  0.8891
16713TIP3   OH271553   3.005   4.392  13.506  0.1221 -0.1818  0.8270
16713TIP3    H171554   3.007   4.370  13.412 -1.7940 -0.8805  0.9153
16713TIP3    H271555   3.097   4.411  13.527  0.6832 -0.5169 -1.0619
16714TIP3   OH271556   4.468   5.879   1.887 -0.1072 -0.3017 -0.3310
16714TIP3    H171557   4.432   5.922   1.964 -0.2307  0.0466 -0.5780
16714TIP3    H271558   4.545   5.931   1.864  0.6795 -1.1519  0.3034
16715TIP3   OH271559   6.676   1.478  16.776 -0.3596 -0.3289 -0.3522
16715TIP3    H171560   6.762   1.439  16.757 -0.7247 -0.3113 -2.2296
16715TIP3    H271561   6.619   1.446  16.706 -1.5480  0.8005  0.0605
16716TIP3   OH271562   4.916   3.810   4.834  0.1220 -0.3418  0.9807
16716TIP3    H171563   4.842   3.855   4.794  0.5576 -1.5696 -1.3869
16716TIP3    H271564   4.941   3.865   4.909  0.0228  2.8196 -1.1181
16717TIP3   OH271565   0.909   1.044   1.992  0.2348 -0.1950  0.4085
16717TIP3    H171566   0.904   0.989   2.070  0.1433  0.8332  1.1507
16717TIP3    H271567   1.002   1.062   1.981  0.1603  0.4924  0.8844
16718TIP3   OH271568   3.970   6.642  14.711 -0.1356 -0.2773 -0.1511
16718TIP3    H171569   4.024   6.657  14.789 -1.8313 -1.2050  1.2675
16718TIP3    H271570   4.032   6.608  14.646  0.9404 -1.9726  1.6278
16719TIP3   OH271571   2.048   3.229  12.986  0.0947 -0.6481  0.2520
16719TIP3    H171572   2.050   3.253  12.893 -0.5422  0.9114  0.6097
16719TIP3    H271573   2.039   3.133  12.986 -1.0541 -0.5770 -1.3098
16720TIP3   OH271574   2.760   3.913   0.179  0.2667  0.1328  0.6651
16720TIP3    H171575   2.732   4.004   0.188 -0.0012  0.2423 -1.0150
16720TIP3    H271576   2.784   3.904   0.087  0.1666 -1.5295  0.7684
16721TIP3   OH271577   4.707   4.159  15.005  0.6978 -0.2926  0.0675
16721TIP3    H171578   4.751   4.122  14.929  3.3617  0.1461  1.2901
16721TIP3    H271579   4.745   4.247  15.015 -0.7567  0.2722  1.0108
16722TIP3   OH271580   0.126   0.909   0.580  1.0844  0.4065 -0.5953
16722TIP3    H171581   0.104   0.900   0.488  1.2496  0.8454 -0.6810
16722TIP3    H271582   0.179   0.831   0.600 -1.0824 -1.0353 -0.1984
16723TIP3   OH271583   3.111   1.397   3.188  0.0872 -0.1935  0.2670
16723TIP3    H171584   3.108   1.367   3.097  0.3124  2.6207 -0.7627
16723TIP3    H271585   3.204   1.399   3.210  0.0845 -0.1321  0.2741
16724TIP3   OH271586   5.509   1.759  12.690 -0.3575 -0.1012  0.0711
16724TIP3    H171587   5.547   1.825  12.748 -0.1441  1.3640 -1.6838
16724TIP3    H271588   5.575   1.689  12.688  1.1611  1.2938 -0.9533
16725TIP3   OH271589   3.180   2.826   5.003  0.4327 -0.0751  0.0419
16725TIP3    H171590   3.121   2.761   4.964  1.0898 -0.1645 -0.8254
16725TIP3    H271591   3.227   2.864   4.929  0.9137  0.5480  0.6516
16726TIP3   OH271592   4.331   5.678  16.291 -0.1217 -0.1355  0.6383
16726TIP3    H171593   4.285   5.728  16.223 -2.6346  1.4357  3.2772
16726TIP3    H271594   4.411   5.729  16.308  0.8822 -0.8956 -1.4642
16727TIP3   OH271595   1.648   2.791  13.146 -0.1316 -0.3196 -0.3885
16727TIP3    H171596   1.630   2.851  13.074  1.6898  0.9712  0.1586
16727TIP3    H271597   1.742   2.772  13.140 -0.1100 -0.8902  1.1086
16728TIP3   OH271598   6.334   0.322   5.804 -1.3670 -0.3061 -0.6468
16728TIP3    H171599   6.270   0.260   5.769 -1.7552  0.1276 -0.7175
16728TIP3    H271600   6.298   0.350   5.887 -1.8464  0.8106 -1.2140
16729TIP3   OH271601   1.180   3.876  13.358 -0.1157 -0.0757 -0.0241
16729TIP3    H171602   1.135   3.791  13.361 -1.4827  0.6384  2.8708
16729TIP3    H271603   1.160   3.917  13.442  2.8318  1.9810 -0.1899
16730TIP3   OH271604   4.828   1.931  12.529 -0.8700 -0.1726 -0.0543
16730TIP3    H171605   4.804   1.875  12.454  0.4187  0.0347 -0.6414
16730TIP3    H271606   4.827   2.020  12.494  2.5225 -0.2617 -0.6719
16731TIP3   OH271607   4.813   3.645   3.930 -0.0931 -0.2169 -0.3432
16731TIP3    H171608   4.740   3.701   3.955 -0.7259 -0.0837 -2.3762
16731TIP3    H271609   4.824   3.585   4.004 -0.7109  1.2645  0.9927
16732TIP3   OH271610   5.568   0.934   4.466 -0.1845 -0.2570  0.0855
16732TIP3    H171611   5.648   0.932   4.414 -0.7504  0.0022 -0.8138
16732TIP3    H271612   5.584   0.871   4.537  0.9089 -0.0115  0.0727
16733TIP3   OH271613   4.354   2.086   2.883  0.2134  0.0520  0.2109
16733TIP3    H171614   4.396   2.000   2.875 -0.0114 -0.2763  2.0905
16733TIP3    H271615   4.267   2.066   2.920  0.0691  1.0725  0.4368
16734TIP3   OH271616   2.631   3.649  11.789  0.1721  0.1066 -0.6870
16734TIP3    H171617   2.689   3.725  11.798 -0.7717  0.7580  0.1402
16734TIP3    H271618   2.581   3.648  11.871 -0.4644 -0.8740 -1.0798
16735TIP3   OH271619   4.461   1.477   5.781  0.6720 -0.2010 -0.2741
16735TIP3    H171620   4.494   1.405   5.834 -0.8866 -0.4830  0.3861
16735TIP3    H271621   4.392   1.517   5.834  1.4010  1.7262 -0.6725
16736TIP3   OH271622   0.544   4.173  13.373 -0.2022 -0.1863 -0.1422
16736TIP3    H171623   0.500   4.222  13.443 -0.2227 -0.0559 -0.2440
16736TIP3    H271624   0.583   4.241  13.318 -0.3402 -0.2785 -0.3570
16737TIP3   OH271625   2.482   2.093  14.228 -0.0960 -0.6647 -0.0862
16737TIP3    H171626   2.395   2.129  14.210  0.6489  0.7467 -1.0753
16737TIP3    H271627   2.481   2.075  14.322 -1.0445  0.5386  0.1604
16738TIP3   OH271628   2.510   4.123   3.973 -0.4947 -0.3099  0.2683
16738TIP3    H171629   2.529   4.140   4.065 -0.5501 -3.4706  0.9709
16738TIP3    H271630   2.568   4.051   3.949 -3.1196 -2.1539 -0.9874
16739TIP3   OH271631   0.850   3.439  12.156 -0.6347  0.4479  0.5453
16739TIP3    H171632   0.837   3.531  12.176  1.9310  0.9287  0.3750
16739TIP3    H271633   0.881   3.400  12.238  0.4650  0.2768  0.0736
16740TIP3   OH271634   6.305   2.704   3.051 -0.0748  0.0110  0.2734
16740TIP3    H171635   6.292   2.657   2.969  0.0875  1.4244 -0.6037
16740TIP3    H271636   6.364   2.648   3.101  1.4711  0.0199 -1.4164
16741TIP3   OH271637   6.253   4.389   6.332  0.3218  0.0085 -0.1330
16741TIP3    H171638   6.170   4.360   6.370  0.7712  0.1448  0.9881
16741TIP3    H271639   6.274   4.323   6.267  0.5976 -1.4450  1.3523
16742TIP3   OH271640   5.103   5.041   1.716 -1.0358  0.2762  0.1327
16742TIP3    H171641   5.091   4.964   1.661  1.4573 -1.1994  1.4387
16742TIP3    H271642   5.187   5.077   1.689  0.0693 -0.2515  2.5131
16743TIP3   OH271643   0.857   4.936   3.429 -0.0723 -0.5431  0.1251
16743TIP3    H171644   0.773   4.969   3.395 -0.8660 -0.7668  1.7411
16743TIP3    H271645   0.889   5.008   3.484  0.2990 -0.8415  0.2972
16744TIP3   OH271646   4.512   4.989  14.818 -0.1405  0.5430 -0.3953
16744TIP3    H171647   4.592   5.012  14.864 -0.5724  0.5131  0.3978
16744TIP3    H271648   4.442   5.016  14.877 -0.7348  1.0738 -1.3133
16745TIP3   OH271649   3.725   3.575   5.168 -0.2459 -0.3092  0.4139
16745TIP3    H171650   3.656   3.575   5.235  0.1774 -0.3647  0.8561
16745TIP3    H271651   3.716   3.490   5.125 -1.3064  0.2002 -0.4376
16746TIP3   OH271652   1.349   0.150   0.961 -0.0156 -0.3318  0.4226
16746TIP3    H171653   1.358   0.219   1.026  1.5923 -0.9103  0.8806
16746TIP3    H271654   1.265   0.108   0.980 -0.6775  1.0308  0.5730
16747TIP3   OH271655   6.233   4.217  11.717 -1.1372  0.0486  0.2261
16747TIP3    H171656   6.170   4.158  11.677 -2.7188  0.3553  2.0980
16747TIP3    H271657   6.220   4.205  11.811  1.9393 -0.1906  0.7369
16748TIP3   OH271658   1.204   4.095   4.416  0.0395  0.4976  0.4010
16748TIP3    H171659   1.253   4.147   4.480 -0.1525 -1.8370  2.5976
16748TIP3    H271660   1.117   4.085   4.455 -0.2731 -0.5404 -0.5195
16749TIP3   OH271661   5.028   2.668   2.837  0.3246 -0.5118  0.0883
16749TIP3    H171662   5.078   2.743   2.805 -0.0038  0.5268  1.8417
16749TIP3    H271663   5.093   2.613   2.881  0.1428  0.2220  1.3053
16750TIP3   OH271664   5.632   1.883  16.489 -0.6213  0.5514 -0.3446
16750TIP3    H171665   5.635   1.930  16.572  0.1241  0.1363 -0.1201
16750TIP3    H271666   5.583   1.803  16.508  0.3732 -0.0069 -0.0388
16751TIP3   OH271667   5.055   2.917   2.433 -0.4126 -0.0942  0.1893
16751TIP3    H171668   5.075   2.839   2.381  1.4084  0.7990 -0.5613
16751TIP3    H271669   5.092   2.989   2.381  0.4612  0.9490  2.1667
16752TIP3   OH271670   1.430   5.441  14.516  0.7496  0.1877 -0.0689
16752TIP3    H171671   1.490   5.477  14.582  0.2400  1.5255 -0.3256
16752TIP3    H271672   1.431   5.504  14.444  0.5947 -0.8013 -0.9755
16753TIP3   OH271673   4.366   3.530  14.403 -0.2198  0.4227 -0.4980
16753TIP3    H171674   4.422   3.454  14.389  1.0117  1.0422  0.8654
16753TIP3    H271675   4.368   3.577  14.319 -1.4576 -1.2758 -1.5506
16754TIP3   OH271676   4.817   1.678   4.393 -0.3721  0.1070  0.0018
16754TIP3    H171677   4.778   1.660   4.479  0.6354 -1.9083  0.1040
16754TIP3    H271678   4.908   1.647   4.401  0.3073  1.6331 -1.2284
16755TIP3   OH271679   5.028   0.018  16.200  0.1249 -0.3604  0.2363
16755TIP3    H171680   5.062   0.082  16.137  0.0254 -0.7176 -0.1875
16755TIP3    H271681   5.049   0.055  16.286  0.6665 -0.0801 -0.0110
16756TIP3   OH271682   3.456   4.563  13.381 -0.2661  0.0109  0.1762
16756TIP3    H171683   3.405   4.535  13.457  0.3137 -1.3985  0.0710
16756TIP3    H271684   3.401   4.630  13.339 -1.7053 -0.9505  0.4622
16757TIP3   OH271685   6.504   1.910  15.232  0.6989 -0.1777  0.2358
16757TIP3    H171686   6.458   1.990  15.257  2.8259  0.9723  0.7111
16757TIP3    H271687   6.515   1.862  15.314 -1.4445 -1.5270 -0.1860
16758TIP3   OH271688   3.662   3.866   3.922 -0.6562 -0.0187 -0.0112
16758TIP3    H171689   3.666   3.933   3.990  0.3896  0.6460 -0.6898
16758TIP3    H271690   3.707   3.906   3.847 -0.4618 -1.3015 -0.5979
16759TIP3   OH271691   5.721   4.991  16.916  0.4758 -0.2633  0.6054
16759TIP3    H171692   5.683   4.912  16.954 -1.7449  0.7099  0.5795
16759TIP3    H271693   5.744   5.046  16.991 -1.1801  0.4383  0.6449
16760TIP3   OH271694   1.205   1.946  16.009 -0.1325  0.0295 -0.2133
16760TIP3    H171695   1.189   2.022  15.954 -0.5270 -0.0886 -0.2662
16760TIP3    H271696   1.133   1.886  15.988 -0.1155 -0.1399  0.2102
16761TIP3   OH271697   5.659   3.577   4.177 -0.1988 -0.6359 -0.4339
16761TIP3    H171698   5.600   3.643   4.215  1.2432 -0.1900  1.1701
16761TIP3    H271699   5.603   3.501   4.160 -1.4167  0.1144  0.0777
16762TIP3   OH271700   2.497   1.084   3.007 -0.6143 -0.3937 -0.4317
16762TIP3    H171701   2.410   1.091   3.046 -1.1858 -0.6644 -1.6199
16762TIP3    H271702   2.497   1.150   2.938  1.4045  2.1882  1.7807
16763TIP3   OH271703   0.370   3.621  12.249  0.0510 -0.3227  0.2266
16763TIP3    H171704   0.323   3.546  12.284  0.9573  0.0795  2.4886
16763TIP3    H271705   0.456   3.617  12.290  0.2454  1.7514  0.1467
16764TIP3   OH271706   5.073   0.810  12.596  0.3173 -0.4794 -0.1927
16764TIP3    H171707   5.088   0.884  12.537  1.4529 -0.0796  0.5530
16764TIP3    H271708   4.984   0.823  12.629  0.8093  1.0714  0.6090
16765TIP3   OH271709   1.412   2.008   5.404 -0.2559  0.0186 -0.2071
16765TIP3    H171710   1.505   2.024   5.388 -0.2712 -0.0406 -0.3604
16765TIP3    H271711   1.384   1.954   5.330 -0.8651  1.6088 -1.1757
16766TIP3   OH271712   3.138   5.873  17.053  0.2802  0.7280 -0.1982
16766TIP3    H171713   3.081   5.856  17.128  1.7811  0.0729  0.8485
16766TIP3    H271714   3.079   5.897  16.983 -1.6891 -3.5372 -0.2768
16767TIP3   OH271715   5.086   2.057  16.731 -0.0247  0.0646  0.6543
16767TIP3    H171716   5.148   2.088  16.665  0.6197 -1.8909  0.2928
16767TIP3    H271717   5.004   2.101  16.709  1.0235  2.2126  0.7702
16768TIP3   OH271718   4.085   4.701   1.709  0.2135  0.4647  0.1871
16768TIP3    H171719   4.067   4.792   1.730 -1.6036 -0.3145  2.5024
16768TIP3    H271720   4.106   4.660   1.794  0.7806 -1.3043 -0.7486
16769TIP3   OH271721   4.514   3.414   3.055 -0.4491 -0.8178  0.0854
16769TIP3    H171722   4.501   3.340   2.996  0.7677 -1.4606  0.5925
16769TIP3    H271723   4.600   3.398   3.095 -0.1163  0.8969  0.1405
16770TIP3   OH271724   2.568   2.303   4.587 -0.2250 -0.0637  0.1575
16770TIP3    H171725   2.542   2.364   4.656 -0.8480 -0.4549  0.2792
16770TIP3    H271726   2.488   2.254   4.567  0.2774 -0.8840  0.1095
16771TIP3   OH271727   1.987   4.951   4.928 -0.0396  0.4272  0.3725
16771TIP3    H171728   1.950   4.863   4.920  2.0844 -0.5949  1.0185
16771TIP3    H271729   1.970   4.976   5.018 -1.0818  0.9248  0.0549
16772TIP3   OH271730   5.161   3.688  11.071  0.3817 -0.3269  0.6268
16772TIP3    H171731   5.127   3.635  10.999 -0.0170  1.0863 -0.2743
16772TIP3    H271732   5.087   3.697  11.131  0.2580 -0.2609  0.4650
16773TIP3   OH271733   1.319   3.862   2.930  0.1256 -0.4547  0.0595
16773TIP3    H171734   1.358   3.937   2.974  0.2834  1.0836 -2.4965
16773TIP3    H271735   1.245   3.837   2.985  0.7242  0.8685  1.5278
16774TIP3   OH271736   5.596   0.554  16.507  0.3836  0.7430 -0.1481
16774TIP3    H171737   5.691   0.550  16.507  0.4594  1.8681 -1.3135
16774TIP3    H271738   5.575   0.629  16.452 -1.1552  1.3367  1.1671
16775TIP3   OH271739   1.006   0.998   3.268 -0.2679  0.3184 -0.3082
16775TIP3    H171740   1.048   0.913   3.254 -1.4344 -0.3678  0.1719
16775TIP3    H271741   0.919   0.976   3.301 -0.4101  1.7163  0.3189
16776TIP3   OH271742   5.098   4.528   2.516  0.1467 -0.2688  0.0354
16776TIP3    H171743   5.077   4.598   2.456  1.3425 -0.3494 -0.5089
16776TIP3    H271744   5.127   4.572   2.596  0.7039 -0.1456 -0.2349
16777TIP3   OH271745   5.612   3.433   0.253  0.8659 -0.5058  0.5137
16777TIP3    H171746   5.606   3.397   0.342 -1.7996 -0.0323  0.6343
16777TIP3    H271747   5.578   3.522   0.262  2.5336  0.2943 -0.6639
16778TIP3   OH271748   4.716   4.767  14.967  0.1084 -0.5454 -0.2873
16778TIP3    H171749   4.695   4.733  14.880 -2.3718 -0.9792  0.3811
16778TIP3    H271750   4.632   4.799  15.001  1.4396  1.7189  1.0779
16779TIP3   OH271751   6.148   1.530  16.184 -0.5610 -0.1338 -0.6682
16779TIP3    H171752   6.238   1.498  16.191 -0.7293 -0.5735 -0.5205
16779TIP3    H271753   6.149   1.584  16.105 -0.2402 -0.3828 -0.8398
16780TIP3   OH271754   3.551   3.684   5.400  0.1613  0.1344  0.0918
16780TIP3    H171755   3.542   3.742   5.325 -0.9348  0.1590  0.2211
16780TIP3    H271756   3.645   3.676   5.414  0.3328  1.8522  0.0657
16781TIP3   OH271757   0.794   1.162  10.619  0.2748 -0.5738  0.3706
16781TIP3    H171758   0.864   1.228  10.616 -0.4916  0.3973  2.3826
16781TIP3    H271759   0.729   1.193  10.556 -0.1209  0.6723  1.3639
16782TIP3   OH271760   1.663   2.648   3.552 -0.4366 -0.2060 -0.2989
16782TIP3    H171761   1.700   2.717   3.498 -0.4415 -0.8005 -1.0824
16782TIP3    H271762   1.612   2.694   3.619  0.1092  0.5559 -0.3975
16783TIP3   OH271763   3.611   1.773   4.473  0.5238 -0.0045 -0.0517
16783TIP3    H171764   3.692   1.738   4.510  1.5192  0.6767 -1.5041
16783TIP3    H271765   3.600   1.726   4.391 -1.0831 -0.7457  0.5459
16784TIP3   OH271766   3.245   1.837  15.985 -0.8049  0.2606 -0.6432
16784TIP3    H171767   3.227   1.745  16.001  0.6559 -0.1425 -1.1061
16784TIP3    H271768   3.176   1.884  16.031 -1.7861 -1.0626 -0.7059
16785TIP3   OH271769   6.643   0.448  13.897 -1.1136  0.5627 -0.3161
16785TIP3    H171770   6.596   0.382  13.847  1.5875 -2.2511  0.5519
16785TIP3    H271771   6.680   0.507  13.831 -2.0295  0.1180 -1.2506
16786TIP3   OH271772   6.459   5.788  12.735 -0.2028 -0.2597  0.9398
16786TIP3    H171773   6.539   5.736  12.746 -0.5945 -0.5129  2.9283
16786TIP3    H271774   6.414   5.748  12.661  1.1105 -0.6209  0.3096
16787TIP3   OH271775   2.967   5.375  14.524  0.2366  0.3676 -0.1771
16787TIP3    H171776   3.025   5.437  14.568 -0.1582  0.6558 -0.0574
16787TIP3    H271777   2.895   5.428  14.491  0.3708  0.1040 -0.9080
16788TIP3   OH271778   4.015   2.458   4.305 -0.8814 -0.4359 -0.2518
16788TIP3    H171779   4.060   2.523   4.359  0.6669 -1.0295 -0.7898
16788TIP3    H271780   3.999   2.384   4.364 -1.1824 -0.2241 -0.0621
16789TIP3   OH271781   1.790   6.315   5.172  0.0530  0.2577  0.6356
16789TIP3    H171782   1.787   6.388   5.235 -2.7352  0.9094 -0.1001
16789TIP3    H271783   1.712   6.327   5.118 -0.0528 -2.8121 -0.0877
16790TIP3   OH271784   4.484   1.742  17.095 -0.6328  0.0219  0.4484
16790TIP3    H171785   4.499   1.737  17.189 -0.5622 -2.6653  0.3792
16790TIP3    H271786   4.570   1.726  17.056 -0.2136  3.2272 -0.1625
16791TIP3   OH271787   6.512   6.724   6.370  0.2236 -0.2871  0.0716
16791TIP3    H171788   6.520   6.820   6.373 -0.4927 -0.2398  1.5839
16791TIP3    H271789   6.521   6.697   6.461 -0.1932 -1.6158 -0.2660
16792TIP3   OH271790   2.295   6.585  13.202 -0.1590 -0.3155 -0.1447
16792TIP3    H171791   2.297   6.653  13.135  0.8461  0.5127  0.6903
16792TIP3    H271792   2.224   6.611  13.261 -1.1384 -1.1208 -0.9413
16793TIP3   OH271793   0.007   2.911   5.842 -0.3201  0.0292 -0.6134
16793TIP3    H171794  -0.040   2.959   5.910  2.7422  3.7969 -0.8336
16793TIP3    H271795   0.070   2.857   5.890  3.1393  4.0533 -0.0149
16794TIP3   OH271796   2.496   5.119  16.097 -0.1663  0.2940 -0.5528
16794TIP3    H171797   2.547   5.144  16.174  1.6344 -0.3792 -1.4620
16794TIP3    H271798   2.484   5.024  16.105 -1.6204  0.4852 -0.1835
16795TIP3   OH271799   4.712   6.248  14.776 -0.3103  1.0274 -0.0310
16795TIP3    H171800   4.705   6.270  14.869 -0.0573  1.2312 -0.0599
16795TIP3    H271801   4.794   6.288  14.748  1.6813 -2.3228  0.5588
16796TIP3   OH271802   6.398   6.484   0.861  0.6527  0.4194  0.0696
16796TIP3    H171803   6.388   6.411   0.801  1.0193  0.3545  0.0816
16796TIP3    H271804   6.480   6.525   0.835  0.9360  0.2502  0.6674
16797TIP3   OH271805   1.491   1.335   3.170  0.2862 -0.3307  0.5163
16797TIP3    H171806   1.509   1.257   3.222  0.4395  0.4921  1.7711
16797TIP3    H271807   1.498   1.307   3.079 -0.6522 -1.9837  0.9273
16798TIP3   OH271808   1.004   0.623   2.474 -0.2975  0.4923  0.5998
16798TIP3    H171809   0.970   0.645   2.387  3.2122  3.1223 -0.3479
16798TIP3    H271810   1.043   0.537   2.464  1.1042  1.2497 -0.8679
16799TIP3   OH271811   5.193   3.454   2.847  0.0334  0.3866 -0.1736
16799TIP3    H171812   5.219   3.460   2.755  2.3427  2.5897  0.5091
16799TIP3    H271813   5.270   3.419   2.892 -1.2341 -1.1794  0.9352
16800TIP3   OH271814   0.003   0.242  14.783  0.2517  0.1908 -0.2071
16800TIP3    H171815  -0.093   0.239  14.789  0.3076  1.1226  2.4734
16800TIP3    H271816   0.022   0.333  14.761  0.5411 -0.0016 -0.7711
16801TIP3   OH271817   1.976   1.970   5.492 -0.1168  0.5504 -0.0251
16801TIP3    H171818   1.962   2.022   5.571 -0.1944  1.6751 -0.7652
16801TIP3    H271819   1.901   1.911   5.488  0.0058  0.3211  0.8576
16802TIP3   OH271820   5.923   2.941  15.658 -0.0503 -0.0035  0.0248
16802TIP3    H171821   5.996   3.000  15.678  0.3754 -0.3236 -0.5603
16802TIP3    H271822   5.845   2.990  15.684  0.1790  1.4242 -1.7433
16803TIP3   OH271823   2.129   2.350  14.756  0.0231 -0.1457  0.1366
16803TIP3    H171824   2.216   2.317  14.779  0.4738  1.3728  0.7452
16803TIP3    H271825   2.104   2.404  14.831 -0.6075  1.0034 -0.8818
16804TIP3   OH271826   0.448   4.419   6.745  0.6940 -0.1964 -0.0732
16804TIP3    H171827   0.507   4.348   6.771 -0.0535 -0.7882  0.0260
16804TIP3    H271828   0.457   4.423   6.650  1.7329  0.4749  0.0293
16805TIP3   OH271829   6.468   0.513  16.218  0.1601 -0.5506  0.0956
16805TIP3    H171830   6.434   0.570  16.149 -0.3640 -0.9946 -0.0216
16805TIP3    H271831   6.520   0.447  16.173 -0.9680 -1.4122  0.0123
16806TIP3   OH271832   5.421   2.466   0.872  0.5125 -0.4136  0.1784
16806TIP3    H171833   5.512   2.496   0.871  0.6204 -0.7470  0.0978
16806TIP3    H271834   5.370   2.547   0.874  0.7633 -0.1705 -1.6704
16807TIP3   OH271835   3.688   2.996   4.720 -0.3060  0.6847 -0.6095
16807TIP3    H171836   3.701   3.026   4.631 -1.3047  0.9191 -0.6875
16807TIP3    H271837   3.777   2.984   4.755  0.0871  0.4321 -1.6746
16808TIP3   OH271838   0.013   4.125  14.157  0.2759  0.1411  0.0118
16808TIP3    H171839  -0.076   4.110  14.126 -0.7962 -0.4410  3.0905
16808TIP3    H271840   0.061   4.046  14.133 -0.4306 -0.1795 -0.3634
16809TIP3   OH271841   0.002   5.231  16.835  0.2393 -0.3151  0.6347
16809TIP3    H171842   0.067   5.161  16.834  0.2021 -0.3673 -1.2306
16809TIP3    H271843  -0.074   5.193  16.880  0.7729 -0.9266  1.0337
16810TIP3   OH271844   0.038   3.787  17.087  0.2915 -0.0096 -0.0564
16810TIP3    H171845   0.023   3.729  17.161 -1.3243  1.2013  0.6143
16810TIP3    H271846   0.124   3.762  17.054 -0.0847 -2.3677  0.5611
16811TIP3   OH271847   3.349   2.354   0.990  0.2022  0.4220  0.1402
16811TIP3    H171848   3.402   2.330   1.066 -0.1949 -0.8049  0.0518
16811TIP3    H271849   3.287   2.419   1.024  0.4111  0.3177  0.7295
16812TIP3   OH271850   5.669   0.901  14.699  0.1109 -0.5168 -0.4184
16812TIP3    H171851   5.592   0.916  14.645 -1.2867  0.9273  1.8249
16812TIP3    H271852   5.636   0.901  14.789  2.0995 -4.2148  0.5125
16813TIP3   OH271853   6.055   3.912   0.340 -0.1375  0.0035 -0.4440
16813TIP3    H171854   6.045   3.983   0.402  2.1854 -0.5074  0.6365
16813TIP3    H271855   6.134   3.935   0.290 -1.1226 -0.3143 -2.2488
16814TIP3   OH271856   1.740   3.493   0.410 -0.1694 -0.4800 -0.0618
16814TIP3    H171857   1.793   3.413   0.415 -0.2567 -0.5109  0.4769
16814TIP3    H271858   1.651   3.461   0.393  0.2729 -0.3316 -3.2703
16815TIP3   OH271859   4.587   5.884   2.937 -0.3650 -0.1108 -0.2276
16815TIP3    H171860   4.617   5.971   2.910 -1.5781  0.6615  0.8105
16815TIP3    H271861   4.666   5.829   2.933  0.8332  1.4461  0.8740
16816TIP3   OH271862   3.377   1.761  16.575 -0.0828  0.3889  0.2623
16816TIP3    H171863   3.439   1.807  16.518 -0.1684  2.8880  2.0320
16816TIP3    H271864   3.291   1.791  16.546 -0.2415  0.0298  0.3582
16817TIP3   OH271865   4.538   3.058   1.333  0.4005 -0.3906  0.2899
16817TIP3    H171866   4.628   3.026   1.329  0.5358  0.0628 -0.4658
16817TIP3    H271867   4.494   3.015   1.259 -0.6120 -2.3597  1.9169
16818TIP3   OH271868   6.644   1.946  11.792 -1.2023  0.1097  0.1311
16818TIP3    H171869   6.712   1.931  11.858 -0.1902  1.5855 -0.5165
16818TIP3    H271870   6.590   1.866  11.794  1.6979 -2.0529 -0.6990
16819TIP3   OH271871   2.620   2.974  12.702 -0.0232  0.4318  0.8426
16819TIP3    H171872   2.684   3.022  12.649 -0.7634  0.3018 -0.2234
16819TIP3    H271873   2.672   2.925  12.765  1.1215 -1.2332 -1.2601
16820TIP3   OH271874   5.621   3.501   5.762  0.6081 -0.1925 -0.4728
16820TIP3    H171875   5.562   3.529   5.692  1.2504  0.0849 -0.9139
16820TIP3    H271876   5.577   3.426   5.802 -0.7234  0.8796  0.1424
16821TIP3   OH271877   4.796   6.192   4.661 -0.1457 -0.0490  0.1557
16821TIP3    H171878   4.752   6.187   4.746  1.1060 -0.1760  0.8201
16821TIP3    H271879   4.867   6.128   4.667 -0.3838 -0.4771 -1.2108
16822TIP3   OH271880   5.771   5.097   0.970 -0.7442 -0.1909 -0.2753
16822TIP3    H171881   5.747   5.060   0.885  0.3522  0.9450 -1.1202
16822TIP3    H271882   5.798   5.021   1.022 -2.4812 -1.0302 -0.5362
16823TIP3   OH271883   2.771   0.675   0.354 -0.0646  0.1818  0.6208
16823TIP3    H171884   2.712   0.713   0.288  1.2742 -0.1277 -0.8167
16823TIP3    H271885   2.730   0.592   0.377  0.2644 -0.5287 -1.1432
16824TIP3   OH271886   0.191   1.287  12.944  0.3635 -0.2406  0.2696
16824TIP3    H171887   0.161   1.346  13.013  1.5053  0.5007  0.1723
16824TIP3    H271888   0.166   1.330  12.862  0.9841  0.0204  0.2040
16825TIP3   OH271889   0.259   4.732  14.767  0.4441 -0.2665 -0.1580
16825TIP3    H171890   0.244   4.678  14.845  1.2442  0.4711  0.5405
16825TIP3    H271891   0.261   4.670  14.695  0.4812 -1.0673  0.5126
16826TIP3   OH271892   4.424   0.328   5.476 -0.4986 -0.3260  0.0935
16826TIP3    H171893   4.464   0.362   5.556  0.8149 -2.6951  0.5371
16826TIP3    H271894   4.330   0.337   5.491 -0.2419  0.5550  1.3077
16827TIP3   OH271895   1.731   5.748  16.653  0.0919 -0.1674 -0.2882
16827TIP3    H171896   1.636   5.738  16.656  0.0086  0.2163 -1.2375
16827TIP3    H271897   1.751   5.813  16.720 -0.4340  0.4597 -0.7183
16828TIP3   OH271898   2.955   4.250  13.282  0.3909 -0.6309 -0.7290
16828TIP3    H171899   2.945   4.168  13.234 -0.2216  0.2029 -2.0777
16828TIP3    H271900   2.925   4.318  13.221 -1.1722  0.4234  1.0906
16829TIP3   OH271901   2.057   1.413   2.819  0.5476 -0.4392  0.4040
16829TIP3    H171902   2.048   1.321   2.845  2.1956 -0.6299  0.3950
16829TIP3    H271903   2.151   1.427   2.812  0.2836  0.7305 -1.5148
16830TIP3   OH271904   2.011   4.061   2.354  0.4354 -0.8978  0.2332
16830TIP3    H171905   1.983   4.117   2.282 -0.1732  0.8161  1.7215
16830TIP3    H271906   1.932   4.014   2.380 -0.1680  0.8572  1.7676
16831TIP3   OH271907   3.260   4.293  11.984  0.6214 -0.2105  0.2798
16831TIP3    H171908   3.176   4.277  11.939  1.0086 -1.2141 -0.1182
16831TIP3    H271909   3.293   4.205  12.004  1.8390  0.1617 -0.0520
16832TIP3   OH271910   3.203   0.276  16.991 -0.1250 -0.1292 -0.2378
16832TIP3    H171911   3.203   0.218  16.915  1.5105  0.6181 -0.8550
16832TIP3    H271912   3.295   0.300  17.003 -0.2782 -0.4969  2.2015
16833TIP3   OH271913   1.850   5.720  14.261 -0.5108 -0.0020  0.2746
16833TIP3    H171914   1.873   5.752  14.348 -3.2219  1.8297  0.4347
16833TIP3    H271915   1.802   5.639  14.277 -1.4761  0.6092  0.5782
16834TIP3   OH271916   5.685   4.580  12.120 -0.4441  0.4539  0.2664
16834TIP3    H171917   5.635   4.534  12.187  1.9445 -1.3709  0.9460
16834TIP3    H271918   5.774   4.583  12.154 -0.1101  4.4601 -0.4035
16835TIP3   OH271919   6.427   1.004  14.328 -0.1563 -0.2353 -0.5732
16835TIP3    H171920   6.439   1.008  14.423 -2.3098  0.1042 -0.2679
16835TIP3    H271921   6.388   0.918  14.312 -1.3034  0.3316 -0.9262
16836TIP3   OH271922   5.470   6.647  11.697 -0.3022 -0.0988 -0.4425
16836TIP3    H171923   5.522   6.612  11.624 -1.5956  0.1255 -1.5150
16836TIP3    H271924   5.466   6.741  11.681  1.1281  0.2535  1.0898
16837TIP3   OH271925   4.363   5.115   4.839 -0.1051 -0.1373 -0.1787
16837TIP3    H171926   4.284   5.160   4.869 -0.4546 -0.1253 -1.0768
16837TIP3    H271927   4.379   5.151   4.751  1.4423  0.5418  0.3572
16838TIP3   OH271928   5.655   6.575  11.463  0.7035 -0.0729  0.2188
16838TIP3    H171929   5.609   6.545  11.385  1.3790  1.6078 -0.8688
16838TIP3    H271930   5.742   6.536  11.456  0.5338 -0.5319  0.5544
16839TIP3   OH271931   6.697   3.451  14.287 -0.2672  0.1183 -0.2536
16839TIP3    H171932   6.781   3.412  14.313  0.6104  1.5764 -0.7913
16839TIP3    H271933   6.654   3.472  14.370 -0.4284 -1.2604  0.0390
16840TIP3   OH271934   6.624   5.316   4.802  0.4955 -0.0250  0.4983
16840TIP3    H171935   6.626   5.408   4.825 -0.6681 -0.0225  0.6654
16840TIP3    H271936   6.559   5.278   4.861 -0.6157 -0.5252 -0.9741
16841TIP3   OH271937   3.513   4.719  16.663  0.4946 -0.7142 -0.4646
16841TIP3    H171938   3.530   4.657  16.592 -0.3686 -1.0306 -0.4017
16841TIP3    H271939   3.552   4.679  16.740 -1.7348 -2.1718 -0.0081
16842TIP3   OH271940   3.438   2.122   3.772 -0.3619 -0.4077 -0.2273
16842TIP3    H171941   3.364   2.123   3.711 -1.5422 -0.5708  1.1561
16842TIP3    H271942   3.410   2.179   3.844  0.7278 -0.7434  0.4798
16843TIP3   OH271943   5.004   3.947  13.961 -0.0897 -0.1533  0.8788
16843TIP3    H171944   4.991   3.883  13.891  0.3205 -0.6717  1.2702
16843TIP3    H271945   4.915   3.972  13.988 -0.2705  1.0043 -0.6635
16844TIP3   OH271946   4.916   1.076  13.131 -0.2005  0.0933 -0.3125
16844TIP3    H171947   4.835   1.093  13.180 -0.6074  1.3665 -1.4010
16844TIP3    H271948   4.905   0.987  13.097  0.8546 -1.6168  3.2990
16845TIP3   OH271949   1.729   3.011  10.884 -0.3632 -0.3548  0.1771
16845TIP3    H171950   1.659   3.027  10.821  0.8036  0.0185 -1.0995
16845TIP3    H271951   1.808   3.045  10.841  0.5936 -0.6746  1.5859
16846TIP3   OH271952   4.448   6.097  16.485 -0.3158 -0.2180 -0.0927
16846TIP3    H171953   4.421   6.070  16.573  0.8113 -1.6818 -0.1635
16846TIP3    H271954   4.378   6.157  16.457 -1.9620 -1.5809  0.8427
16847TIP3   OH271955   5.354   5.685   6.318  0.3462 -0.1549 -0.1993
16847TIP3    H171956   5.264   5.695   6.286  0.6058  0.4602 -0.7556
16847TIP3    H271957   5.406   5.743   6.263  1.5793 -2.6447 -1.8574
16848TIP3   OH271958   3.767   0.313  12.010 -0.0366  0.1431 -0.7846
16848TIP3    H171959   3.810   0.337  11.928  2.6213  0.1986  0.5151
16848TIP3    H271960   3.763   0.395  12.060 -0.4938 -0.1209 -0.3766
16849TIP3   OH271961   0.721   4.597  16.527 -1.0586 -0.1458 -0.6484
16849TIP3    H171962   0.816   4.603  16.539 -1.2294  0.5480  0.5773
16849TIP3    H271963   0.701   4.505  16.540 -0.4868 -0.4056 -1.5394
16850TIP3   OH271964   1.907   6.243   3.837  0.1716 -0.4272  0.0575
16850TIP3    H171965   1.895   6.310   3.904  2.0464  0.8281 -0.7597
16850TIP3    H271966   1.962   6.176   3.879  2.1319  0.8044 -0.4091
16851TIP3   OH271967   5.175   4.760  16.237  0.0428  0.5379 -0.3879
16851TIP3    H171968   5.114   4.692  16.210  1.4904 -0.3635 -1.5969
16851TIP3    H271969   5.164   4.768  16.331  0.5969 -2.2170 -0.0114
16852TIP3   OH271970   4.423   3.584  15.330  0.5332 -0.2304  0.2089
16852TIP3    H171971   4.500   3.601  15.385 -0.6603 -0.7373  2.1648
16852TIP3    H271972   4.430   3.647  15.259  0.8349  2.3832  2.3698
16853TIP3   OH271973   1.678   0.089   2.570  0.1486 -0.5785  0.3316
16853TIP3    H171974   1.704   0.160   2.512 -0.4948 -0.2827  0.3998
16853TIP3    H271975   1.586   0.074   2.551  0.5349 -2.1700 -0.4855
16854TIP3   OH271976   2.934   0.862   3.800 -0.8077 -0.4738  0.3654
16854TIP3    H171977   2.978   0.852   3.885  1.9650  0.3236 -0.8723
16854TIP3    H271978   2.904   0.774   3.778  1.8717 -1.5036  0.4919
16855TIP3   OH271979   3.411   6.328  16.854 -0.0633 -0.0595 -0.8202
16855TIP3    H171980   3.411   6.237  16.885  2.7457  0.2874  0.5271
16855TIP3    H271981   3.421   6.380  16.933  2.8012  1.1153 -1.8187
16856TIP3   OH271982   3.774   3.560   6.753 -0.2042 -0.7290 -0.4281
16856TIP3    H171983   3.750   3.582   6.842  1.3456  0.1403 -0.1959
16856TIP3    H271984   3.824   3.635   6.721  1.9329 -2.2560 -0.9368
16857TIP3   OH271985   6.583   1.078  11.724  0.1532 -0.0515  0.5119
16857TIP3    H171986   6.549   1.165  11.701  2.0327  1.4560  2.9032
16857TIP3    H271987   6.613   1.041  11.641 -0.2817  1.7893 -0.5256
16858TIP3   OH271988   6.188   1.160  16.291 -0.0939 -0.3661 -0.5522
16858TIP3    H171989   6.219   1.079  16.251 -1.8250 -3.0004  2.8919
16858TIP3    H271990   6.262   1.189  16.345  0.3958  0.1524 -1.4902
16859TIP3   OH271991   1.387   1.322   6.733 -0.6856  0.0679 -0.3349
16859TIP3    H171992   1.347   1.383   6.671  1.2890  0.3965 -1.3786
16859TIP3    H271993   1.475   1.307   6.698 -0.7956 -2.7062  0.3863
16860TIP3   OH271994   5.623   2.267   5.539  0.3014  0.2941 -0.3718
16860TIP3    H171995   5.651   2.254   5.629 -2.5063 -1.8188  0.2963
16860TIP3    H271996   5.610   2.362   5.531 -0.9982  0.3711  1.9802
16861TIP3   OH271997   5.375   1.555  10.501 -0.0375 -0.5297  0.6969
16861TIP3    H171998   5.328   1.637  10.483  0.3891 -0.2762  0.7257
16861TIP3    H271999   5.411   1.530  10.416 -0.3203 -0.7880  0.6512
16862TIP3   OH272000   2.227   6.216  11.087 -0.0154  0.4011  0.0592
16862TIP3    H172001   2.297   6.212  11.021  0.3578 -0.8703  0.5096
16862TIP3    H272002   2.149   6.183  11.042 -0.3596  1.8290 -0.4460
16863TIP3   OH272003   5.231   3.460  11.425 -0.8748 -0.3687  0.3009
16863TIP3    H172004   5.253   3.388  11.484  0.2246  0.1259  0.5138
16863TIP3    H272005   5.168   3.513  11.475  0.2426  0.1917  1.1667
16864TIP3   OH272006   6.214   3.648  15.349 -0.2035  0.3442 -0.8782
16864TIP3    H172007   6.283   3.648  15.414  0.6418  1.2691 -1.7431
16864TIP3    H272008   6.202   3.556  15.326 -0.8970 -0.0657  0.9317
16865TIP3   OH272009   6.542   6.257  14.789  0.2696 -0.4963 -0.7350
16865TIP3    H172010   6.539   6.342  14.834  0.0656 -0.7238 -0.3117
16865TIP3    H272011   6.617   6.263  14.731 -0.2179  0.2707 -1.2962
16866TIP3   OH272012   4.608   1.580  15.624  0.4047 -0.3552 -0.2154
16866TIP3    H172013   4.698   1.602  15.650 -0.2734  2.2818  0.2065
16866TIP3    H272014   4.609   1.581  15.529  0.9280 -0.9419 -0.2245
16867TIP3   OH272015   0.356   5.520   4.798 -0.4452  0.2059  0.0903
16867TIP3    H172016   0.278   5.468   4.778 -0.5143 -0.0381  0.9757
16867TIP3    H272017   0.428   5.457   4.798  0.0532  0.6562 -2.3175
16868TIP3   OH272018   6.439   0.781   2.037  0.3250 -0.2376  0.4591
16868TIP3    H172019   6.354   0.780   1.992  1.0069 -0.3678 -0.8586
16868TIP3    H272020   6.440   0.864   2.084 -0.3384 -0.0068  0.0837
16869TIP3   OH272021   3.045   0.686  15.239 -0.0896 -0.5256 -0.3705
16869TIP3    H172022   2.957   0.657  15.265  0.6088 -1.0081  1.5786
16869TIP3    H272023   3.080   0.613  15.188 -0.7740 -0.3428 -1.1416
16870TIP3   OH272024   1.728   6.624   2.701  0.3973  0.0596  0.1125
16870TIP3    H172025   1.688   6.711   2.701  0.2416 -0.0004  1.0438
16870TIP3    H272026   1.735   6.601   2.608  0.2564  0.9751 -0.1363
16871TIP3   OH272027   3.069   3.423  14.193  0.1330  0.4767  0.2112
16871TIP3    H172028   3.048   3.354  14.130  1.5903 -0.2261  0.4731
16871TIP3    H272029   2.986   3.469  14.206 -0.2149  0.6410 -2.1970
16872TIP3   OH272030   1.124   4.062  14.514 -0.2138 -0.4025 -0.0485
16872TIP3    H172031   1.037   4.101  14.524  0.0267  0.4015 -0.9190
16872TIP3    H272032   1.110   3.969  14.529 -1.1815 -0.2503  0.0801
16873TIP3   OH272033   6.618   1.892  16.702 -0.2596 -0.0038 -0.1771
16873TIP3    H172034   6.654   1.871  16.616  0.3497 -1.7552  0.4694
16873TIP3    H272035   6.556   1.963  16.685 -0.5832 -0.6869 -2.1476
16874TIP3   OH272036   3.801   5.232  11.508  0.4827 -0.2731 -0.1888
16874TIP3    H172037   3.883   5.262  11.469  1.6440 -1.0244  1.5484
16874TIP3    H272038   3.768   5.167  11.447  1.7420 -0.7152 -0.4345
16875TIP3   OH272039   3.836   2.667  12.809 -0.5468 -0.0859  0.2390
16875TIP3    H172040   3.746   2.683  12.782 -1.1435  1.5585  2.8008
16875TIP3    H272041   3.831   2.656  12.904  2.0623  1.4497  0.6605
16876TIP3   OH272042   6.192   2.508   2.534 -0.7496  0.0929 -0.1813
16876TIP3    H172043   6.274   2.479   2.575 -0.3846 -0.6778 -1.4249
16876TIP3    H272044   6.136   2.430   2.535 -0.0190 -0.5426 -2.9050
16877TIP3   OH272045   1.013   1.761  11.009  0.3818 -0.1131 -0.2086
16877TIP3    H172046   1.108   1.766  11.010  0.4512 -0.0582 -2.2114
16877TIP3    H272047   0.985   1.846  10.976 -0.4476  0.2676  1.3957
16878TIP3   OH272048   1.316   0.826  13.014 -0.3347 -0.7133 -0.1053
16878TIP3    H172049   1.238   0.793  12.970 -0.4415 -0.7287  0.0974
16878TIP3    H272050   1.369   0.748  13.032 -0.5581 -0.7700  0.3166
16879TIP3   OH272051   4.964   2.386  16.492  0.0632  0.5139 -0.3187
16879TIP3    H172052   5.034   2.416  16.551 -0.1041 -0.1309  0.2229
16879TIP3    H272053   4.894   2.358  16.551 -0.8495  1.5932 -0.8578
16880TIP3   OH272054   5.769   0.083  15.722 -0.5131  0.1105  0.4654
16880TIP3    H172055   5.796   0.020  15.655 -0.7192  0.3077  0.1971
16880TIP3    H272056   5.698   0.132  15.682 -0.3355  0.5373  0.6657
16881TIP3   OH272057   3.380   4.890   4.243 -0.1745 -0.3157 -0.7184
16881TIP3    H172058   3.438   4.814   4.240 -0.6077 -0.7077  0.2876
16881TIP3    H272059   3.295   4.856   4.216 -0.0643  0.1488 -1.7054
16882TIP3   OH272060   2.446   0.312  11.655  0.1889  0.1258 -0.4885
16882TIP3    H172061   2.360   0.275  11.632 -1.2855  2.4670  0.8415
16882TIP3    H272062   2.476   0.259  11.729 -0.1767 -0.5976 -0.8457
16883TIP3   OH272063   0.568   4.335   0.870 -0.8455 -0.4176 -0.0949
16883TIP3    H172064   0.643   4.390   0.889 -2.0029  0.9003  0.9176
16883TIP3    H272065   0.565   4.329   0.775 -1.3818  2.3930 -0.3351
16884TIP3   OH272066   5.817   5.509   4.169  0.3695 -0.2438  0.0298
16884TIP3    H172067   5.723   5.496   4.169  0.4576 -1.0152 -1.1782
16884TIP3    H272068   5.828   5.603   4.184 -0.6427  0.0486 -0.8964
16885TIP3   OH272069   3.474   2.519   5.654  0.2843 -0.3975  0.0774
16885TIP3    H172070   3.558   2.563   5.665 -0.0025  0.4734 -0.9690
16885TIP3    H272071   3.410   2.579   5.693  0.0203 -0.4135 -0.3183
16886TIP3   OH272072   3.740   5.785  13.063 -0.1320 -0.4582  0.1184
16886TIP3    H172073   3.796   5.861  13.048  0.9280 -1.2943 -0.3098
16886TIP3    H272074   3.734   5.778  13.158 -0.8793  0.6100  0.1587
16887TIP3   OH272075   3.672   4.721  13.392  0.3040  0.9282  0.5659
16887TIP3    H172076   3.619   4.799  13.413 -0.7799  0.0277  1.3025
16887TIP3    H272077   3.609   4.649  13.393  1.7473 -0.4121  2.9707
16888TIP3   OH272078   4.434   2.202  11.667  0.2538  0.0188  0.7612
16888TIP3    H172079   4.433   2.123  11.722  0.0114 -0.1912  0.4632
16888TIP3    H272080   4.488   2.177  11.592  0.8575  0.4129  1.0562
16889TIP3   OH272081   0.256   6.096  13.838 -0.3949 -0.3920 -0.1274
16889TIP3    H172082   0.183   6.038  13.818 -1.1279  0.2620  0.5311
16889TIP3    H272083   0.317   6.042  13.888 -1.1030 -0.5964  0.5449
16890TIP3   OH272084   4.516   1.178   6.719 -0.0307  0.0634 -0.1303
16890TIP3    H172085   4.537   1.232   6.643  0.2170 -1.1382 -0.9462
16890TIP3    H272086   4.556   1.224   6.793  3.6188 -0.9264 -1.2821
16891TIP3   OH272087   1.249   4.446   5.438  0.2224 -0.1018 -0.0151
16891TIP3    H172088   1.277   4.516   5.497 -1.9030  0.2455  0.6686
16891TIP3    H272089   1.323   4.434   5.378  3.5030 -1.9656  3.8923
16892TIP3   OH272090   1.625   0.784   1.723  0.1748 -0.3847  0.5504
16892TIP3    H172091   1.569   0.733   1.781  0.3282 -0.6210  0.4915
16892TIP3    H272092   1.710   0.741   1.728  0.2279 -0.3139  0.2681
16893TIP3   OH272093   3.443   4.075  14.392  0.4778 -0.0432 -0.7981
16893TIP3    H172094   3.472   4.125  14.316  0.5360  1.6492  0.2736
16893TIP3    H272095   3.523   4.047  14.435  0.4630 -0.0641 -0.7834
16894TIP3   OH272096   5.242   0.174   0.947  0.1426 -0.1083 -0.1167
16894TIP3    H172097   5.258   0.123   0.867 -1.2152 -1.0279  0.1740
16894TIP3    H272098   5.295   0.130   1.014 -0.4648 -0.7229 -0.0271
16895TIP3   OH272099   3.200   4.657   4.851 -0.3865  0.5583  1.1775
16895TIP3    H172100   3.177   4.644   4.759 -0.3537  1.9524  0.9453
16895TIP3    H272101   3.295   4.661   4.852 -0.3560 -0.1099  1.3785
16896TIP3   OH272102   0.849   4.183  15.802  0.1868  0.2122  0.1910
16896TIP3    H172103   0.811   4.270  15.788 -0.3783 -0.0270  0.2114
16896TIP3    H272104   0.941   4.200  15.821  0.3384  0.7422 -0.9099
16897TIP3   OH272105   4.125   1.794  16.725 -0.3222  0.4169  0.1279
16897TIP3    H172106   4.107   1.842  16.806  0.9809 -0.8127  1.2054
16897TIP3    H272107   4.216   1.766  16.733 -0.9217 -2.0009 -0.5175
16898TIP3   OH272108   0.550   6.087  15.862 -0.0977 -0.1833  0.2647
16898TIP3    H172109   0.555   6.131  15.777  1.7837 -1.6397 -0.4440
16898TIP3    H272110   0.484   6.019  15.850  1.0182 -1.1674 -0.4529
16899TIP3   OH272111   1.021   0.690   3.310 -0.7982 -0.0953 -0.1804
16899TIP3    H172112   1.052   0.629   3.244  0.3326 -0.9643  1.1008
16899TIP3    H272113   1.058   0.658   3.392  0.5407  2.7668  0.4667
16900TIP3   OH272114   4.020   6.429   5.144 -0.5058 -0.4019  0.8572
16900TIP3    H172115   4.076   6.494   5.101  0.4437 -1.2023  0.8420
16900TIP3    H272116   3.978   6.382   5.073 -1.4765  0.4208  0.8734
16901TIP3   OH272117   4.209   2.579   1.222  0.3895  0.3350  0.5351
16901TIP3    H172118   4.208   2.614   1.133 -0.5800 -0.3973  0.2317
16901TIP3    H272119   4.213   2.484   1.210 -2.9280 -0.0081  1.1236
16902TIP3   OH272120   5.286   3.430   0.857  0.2761 -0.6350  0.0612
16902TIP3    H172121   5.221   3.471   0.914  1.2353  0.4323  0.4185
16902TIP3    H272122   5.238   3.360   0.812 -1.0233 -0.0952  0.5696
16903TIP3   OH272123   1.710   6.774   0.963 -0.6516  0.1993 -0.3395
16903TIP3    H172124   1.712   6.868   0.944 -1.2178 -0.1895 -2.6403
16903TIP3    H272125   1.801   6.747   0.956 -0.4194  0.6317  0.7987
16904TIP3   OH272126   5.241   4.592  11.358  0.1319  0.4060 -0.0073
16904TIP3    H172127   5.150   4.618  11.367  0.1495  0.8145 -0.9787
16904TIP3    H272128   5.291   4.670  11.382  0.2065  0.5650 -0.6624
16905TIP3   OH272129   1.510   1.993   4.013 -0.2841 -0.3116 -0.2658
16905TIP3    H172130   1.483   1.910   3.973 -2.0630 -0.0349  0.2697
16905TIP3    H272131   1.478   1.987   4.102  2.4625 -0.3639  0.8214
16906TIP3   OH272132   1.939   4.020   2.683  0.0616  0.5835  0.6252
16906TIP3    H172133   1.890   4.012   2.601  2.2772  1.3728 -0.8598
16906TIP3    H272134   1.974   3.932   2.698  0.3347  0.6300  0.2722
16907TIP3   OH272135   5.147   2.883  14.500  0.9027 -0.5346 -0.0221
16907TIP3    H172136   5.139   2.864  14.594  1.3477 -1.6388 -0.1917
16907TIP3    H272137   5.060   2.915  14.475  0.7888 -0.1824  0.7658
16908TIP3   OH272138   1.017   0.835   1.506  0.1543 -0.3142 -0.1752
16908TIP3    H172139   1.009   0.842   1.601 -0.3983 -0.0358 -0.2364
16908TIP3    H272140   0.933   0.797   1.478  1.3589 -3.1389 -0.2989
16909TIP3   OH272141   4.308   1.247   2.171 -0.2182 -0.5984 -0.1814
16909TIP3    H172142   4.290   1.190   2.245 -0.6764  0.8965  0.8965
16909TIP3    H272143   4.400   1.229   2.149  0.9911  1.1652  2.8434
16910TIP3   OH272144   1.850   6.505  11.912  0.3141 -0.0550 -0.3903
16910TIP3    H172145   1.792   6.462  11.850  0.0251  0.6951 -0.6577
16910TIP3    H272146   1.791   6.554  11.969  0.6942  1.1222 -0.9794
16911TIP3   OH272147   1.012   4.720  15.890 -0.3443 -0.2234  0.6939
16911TIP3    H172148   0.993   4.669  15.811  1.3964 -0.8652  0.6544
16911TIP3    H272149   1.078   4.669  15.936  1.0305  1.7091  0.9631
16912TIP3   OH272150   6.151   2.953  12.296  0.0936 -1.0700  0.4266
16912TIP3    H172151   6.196   3.030  12.261  0.3637 -1.7650 -0.8068
16912TIP3    H272152   6.060   2.964  12.268  0.0499 -1.0098  0.5905
16913TIP3   OH272153   3.413   6.329   6.604 -0.0440 -0.2477  0.4606
16913TIP3    H172154   3.377   6.416   6.624  1.2294  0.1913  0.9984
16913TIP3    H272155   3.469   6.309   6.679  0.7238 -0.9389 -0.2726
16914TIP3   OH272156   2.540   3.393  15.467 -0.5559 -0.1321 -0.4274
16914TIP3    H172157   2.591   3.365  15.392  0.6957 -0.4296  0.4980
16914TIP3    H272158   2.605   3.423  15.531 -1.4633 -1.1264  1.0505
16915TIP3   OH272159   2.104   5.579  16.647  0.1387  0.6409  0.1676
16915TIP3    H172160   2.120   5.638  16.721  0.1021  0.1902  0.5369
16915TIP3    H272161   2.022   5.535  16.669  0.0224  0.6486 -0.2387
16916TIP3   OH272162   5.444   6.144   1.082 -0.4180  0.3107 -0.1499
16916TIP3    H172163   5.491   6.185   1.009  0.2661  0.3352  0.2896
16916TIP3    H272164   5.488   6.060   1.095 -2.2212 -0.9217 -1.4676
16917TIP3   OH272165   1.676   4.233  12.291  0.1293 -0.0369  0.0950
16917TIP3    H172166   1.613   4.298  12.258  1.3734  1.6300  0.8488
16917TIP3    H272167   1.657   4.227  12.385  2.8427  2.7404  0.9875
16918TIP3   OH272168   5.262   3.779   4.968 -0.1664 -0.0384 -0.5403
16918TIP3    H172169   5.184   3.776   5.025 -1.0298 -0.7431 -1.7153
16918TIP3    H272170   5.246   3.713   4.901  1.7181 -0.5700 -0.5128
16919TIP3   OH272171   4.612   5.726  13.842  0.4694  0.3744  0.1188
16919TIP3    H172172   4.653   5.681  13.916  0.0139 -1.2302 -0.5621
16919TIP3    H272173   4.539   5.669  13.816 -0.9284  2.1362 -0.0169
16920TIP3   OH272174   3.533   1.907  12.010 -0.2702  0.7365 -0.3591
16920TIP3    H172175   3.615   1.870  12.040 -0.0348  0.8422 -0.8540
16920TIP3    H272176   3.555   1.997  11.984 -0.2798  0.3906 -1.6215
16921TIP3   OH272177   5.235   5.282   1.587  0.3807  0.1604 -0.3373
16921TIP3    H172178   5.178   5.318   1.520  0.1322  0.7286  0.1609
16921TIP3    H272179   5.199   5.316   1.670 -0.1071 -1.5829  0.1991
16922TIP3   OH272180   4.546   4.283   1.336  0.1479 -0.4814  0.0553
16922TIP3    H172181   4.521   4.341   1.408 -0.3066 -3.1212  2.1889
16922TIP3    H272182   4.562   4.342   1.262  0.5357  2.3888  2.2395
16923TIP3   OH272183   2.234   3.111   5.278 -0.0687  0.5008 -0.1401
16923TIP3    H172184   2.266   3.091   5.190 -0.3482  0.7537 -0.3009
16923TIP3    H272185   2.301   3.076   5.336  0.2720  0.6104 -0.4626
16924TIP3   OH272186   2.837   2.367  11.709  0.1168  0.0762 -0.2449
16924TIP3    H172187   2.837   2.330  11.620 -0.0616  0.0780 -0.2459
16924TIP3    H272188   2.876   2.454  11.698 -2.0888  1.0775 -0.7547
16925TIP3   OH272189   2.270   2.661   2.834 -0.0449 -0.1601 -0.3191
16925TIP3    H172190   2.219   2.741   2.845  1.2237  1.2657 -3.5142
16925TIP3    H272191   2.356   2.682   2.871  0.3209  0.0393 -1.2530
16926TIP3   OH272192   0.110   3.623  13.352 -0.0045 -0.4057  0.1287
16926TIP3    H172193   0.091   3.572  13.274  0.3510  0.3235 -0.4492
16926TIP3    H272194   0.031   3.615  13.407  0.0740 -1.6036  0.0819
16927TIP3   OH272195   5.928   5.937   4.933 -0.0379  0.1048  0.3382
16927TIP3    H172196   5.852   5.962   4.880 -0.1032 -1.1938 -0.2338
16927TIP3    H272197   5.897   5.943   5.023 -0.0731  1.8908  0.2303
16928TIP3   OH272198   5.453   1.331   0.883 -0.6231  0.2713 -0.2164
16928TIP3    H172199   5.361   1.355   0.880 -0.1109  2.7667  1.5385
16928TIP3    H272200   5.472   1.317   0.975  1.1945  1.8889 -0.2746
16929TIP3   OH272201   6.744   1.048  12.108  1.6334  0.2554  0.6007
16929TIP3    H172202   6.735   1.142  12.098  1.5472  0.2715  0.8255
16929TIP3    H272203   6.834   1.035  12.139  1.2212  0.3683  1.8944
16930TIP3   OH272204   6.449   1.889  16.931 -0.1549  0.0023 -0.1381
16930TIP3    H172205   6.405   1.810  16.961  1.4462 -1.5661 -1.7125
16930TIP3    H272206   6.510   1.859  16.863  2.3540  2.2090  0.9518
16931TIP3   OH272207   0.415   4.062   4.881  0.6884  0.0499 -0.8780
16931TIP3    H172208   0.451   4.048   4.969  2.4574  2.7147 -1.0588
16931TIP3    H272209   0.323   4.083   4.897  1.0457  0.7773  0.4238
16932TIP3   OH272210   1.483   6.202   2.564 -0.2037 -0.1143 -0.7687
16932TIP3    H172211   1.574   6.211   2.591 -0.7235  2.2981  0.5164
16932TIP3    H272212   1.452   6.124   2.608  0.4408  0.7891  1.3995
16933TIP3   OH272213   5.663   0.280   0.346  0.1727  0.6605  0.1136
16933TIP3    H172214   5.592   0.230   0.384 -1.0068  1.0515 -1.4799
16933TIP3    H272215   5.743   0.239   0.379 -0.7733 -1.1421  0.2352
16934TIP3   OH272216   6.038   3.990  17.167 -0.0214 -0.0782  0.3335
16934TIP3    H172217   5.984   3.915  17.190 -0.8553  0.6036  0.7036
16934TIP3    H272218   6.124   3.971  17.204 -0.8573  0.2013  2.5547
16935TIP3   OH272219   5.316   5.407   2.818  0.0132  0.2890  0.1876
16935TIP3    H172220   5.315   5.398   2.723  0.8442 -2.0056  0.3325
16935TIP3    H272221   5.409   5.405   2.842 -0.1906  0.7171  1.0653
16936TIP3   OH272222   3.254   6.613  13.272  1.1189 -0.6898 -0.5933
16936TIP3    H172223   3.204   6.579  13.198  1.1685 -0.4547 -0.7377
16936TIP3    H272224   3.335   6.563  13.272  1.1626 -0.6204 -0.7634
16937TIP3   OH272225   3.082   0.958   1.302  0.1346  0.7790  0.2633
16937TIP3    H172226   3.143   0.957   1.228 -0.7521  2.5014 -0.5524
16937TIP3    H272227   3.138   0.970   1.379  1.2437 -2.6908  0.1735
16938TIP3   OH272228   5.529   4.506   3.823 -0.1056 -0.1730 -0.4776
16938TIP3    H172229   5.506   4.593   3.856 -0.4970  0.6931 -2.8161
16938TIP3    H272230   5.625   4.503   3.827 -0.1163  0.1180  0.1512
16939TIP3   OH272231   3.126   6.109   5.485 -0.1294 -0.2127 -0.5685
16939TIP3    H172232   3.069   6.041   5.449 -1.0093 -1.1656  2.3959
16939TIP3    H272233   3.208   6.064   5.503 -0.1003 -0.0292 -0.2478
16940TIP3   OH272234   0.520   0.935   6.248  0.5577  0.5495 -0.2876
16940TIP3    H172235   0.613   0.954   6.235  0.5172  0.6420 -0.4468
16940TIP3    H272236   0.485   0.924   6.160  1.1384 -3.0960 -0.2002
16941TIP3   OH272237   6.036   6.110  13.822  0.2543  0.4529  0.2963
16941TIP3    H172238   5.966   6.139  13.881 -0.0311  1.3430 -0.4616
16941TIP3    H272239   6.049   6.018  13.844 -1.1184  0.2867  0.4919
16942TIP3   OH272240   6.632   3.317   3.067  0.2546 -0.8705 -0.3294
16942TIP3    H172241   6.595   3.404   3.049 -1.2284 -1.6102 -1.0186
16942TIP3    H272242   6.645   3.315   3.161 -0.9874 -0.3802 -0.1315
16943TIP3   OH272243   6.580   5.728  12.367 -0.2628 -0.6037 -0.2580
16943TIP3    H172244   6.648   5.712  12.432  0.7292 -0.6071 -1.2594
16943TIP3    H272245   6.574   5.824  12.362  0.0480 -0.5970 -0.5421
16944TIP3   OH272246   1.400   3.600  11.989  0.0560  0.4848  0.0362
16944TIP3    H172247   1.427   3.509  11.995 -0.7819  0.2733  0.6593
16944TIP3    H272248   1.346   3.604  11.910  1.1141  0.7280 -0.7121
16945TIP3   OH272249   5.737   1.706  13.559 -0.5835 -0.5271 -0.2565
16945TIP3    H172250   5.776   1.666  13.482  1.8301  1.6087 -0.2845
16945TIP3    H272251   5.784   1.668  13.633  3.0880  3.1181 -0.3453
16946TIP3   OH272252   1.610   5.946   5.669  0.2015 -0.1871 -0.1154
16946TIP3    H172253   1.564   5.991   5.739 -1.6041 -1.1577 -0.6109
16946TIP3    H272254   1.639   6.015   5.610 -0.2276  0.4758  0.4487
16947TIP3   OH272255   6.132   2.892   0.095  0.6835 -1.3774  0.7612
16947TIP3    H172256   6.154   2.851   0.011 -1.9838 -0.3653 -0.5390
16947TIP3    H272257   6.203   2.865   0.154  2.5341 -2.3116 -1.7199
16948TIP3   OH272258   1.914   4.277   6.462  0.2586 -0.3225 -0.5887
16948TIP3    H172259   1.954   4.358   6.492 -0.0097  0.2889 -1.8485
16948TIP3    H272260   1.820   4.290   6.475  0.2579 -0.7481 -0.0823
16949TIP3   OH272261   5.756   5.214   5.830 -0.4546 -0.2363 -0.1433
16949TIP3    H172262   5.845   5.211   5.794 -1.5079 -1.3872 -2.9085
16949TIP3    H272263   5.756   5.292   5.887  1.7688  0.9286 -1.5891
16950TIP3   OH272264   6.477   1.111   3.382  0.2966 -0.0563  0.1122
16950TIP3    H172265   6.412   1.171   3.419 -0.1007 -0.2556 -0.2534
16950TIP3    H272266   6.515   1.067   3.459  1.3450  1.3902  0.4710
16951TIP3   OH272267   6.118   4.287   0.183 -0.0382  0.4962 -0.1406
16951TIP3    H172268   6.181   4.285   0.112 -0.5209  1.0985 -0.6088
16951TIP3    H272269   6.140   4.366   0.233  1.1142 -0.6025  1.1781
16952TIP3   OH272270   2.028   0.685   0.599 -0.0264  0.4082 -0.1457
16952TIP3    H172271   2.050   0.683   0.506 -0.1476 -1.0745 -0.1710
16952TIP3    H272272   1.982   0.602   0.614  2.4339 -0.7425  1.7849
16953TIP3   OH272273   0.679   1.459   3.613  0.0652 -0.3979  0.1428
16953TIP3    H172274   0.613   1.521   3.581  0.4486 -0.2332 -0.3379
16953TIP3    H272275   0.763   1.501   3.593  0.3306 -1.1858 -0.4232
16954TIP3   OH272276   4.991   1.110   4.879 -0.0427 -0.2614  0.0613
16954TIP3    H172277   5.061   1.171   4.900 -1.4671  0.9844  1.4074
16954TIP3    H272278   4.946   1.148   4.804 -1.1122  0.5584  1.0811
16955TIP3   OH272279   0.110   3.980   0.759  0.2123  0.4000 -0.0990
16955TIP3    H172280   0.127   3.908   0.819  1.5339  0.0398 -0.8734
16955TIP3    H272281   0.147   4.057   0.801  0.7733  0.2203 -0.2577
16956TIP3   OH272282   2.045   5.815   2.628 -0.4872 -0.0248 -0.0710
16956TIP3    H172283   2.107   5.782   2.563  0.8790  1.5370  0.3771
16956TIP3    H272284   2.093   5.811   2.711 -0.6654  1.9196  0.1740
16957TIP3   OH272285   4.202   3.339  16.050  0.4111 -1.0902  0.4330
16957TIP3    H172286   4.142   3.325  16.123 -1.0248 -0.6096 -0.6197
16957TIP3    H272287   4.238   3.253  16.031  1.2825 -1.1285  2.0800
16958TIP3   OH272288   4.189   3.037  15.826 -0.1651 -0.0895  0.0550
16958TIP3    H172289   4.133   3.105  15.787 -0.3679 -0.3277 -0.0687
16958TIP3    H272290   4.139   3.005  15.901 -0.0762 -0.1170  0.1018
16959TIP3   OH272291   5.489   0.639   3.177  0.6275 -0.2342 -0.2196
16959TIP3    H172292   5.583   0.659   3.184  1.0340 -2.4246  2.1701
16959TIP3    H272293   5.486   0.553   3.136 -0.2626 -0.4714  0.3128
16960TIP3   OH272294   6.394   4.260  16.549 -0.6291 -0.3463  0.4152
16960TIP3    H172295   6.323   4.315  16.583 -1.8515 -1.1689 -0.6770
16960TIP3    H272296   6.415   4.201  16.620  0.9447  1.6797  1.7430
16961TIP3   OH272297   5.787   5.432   1.234 -0.3158  0.7917  0.3852
16961TIP3    H172298   5.693   5.439   1.221 -0.1853  1.7138 -0.1502
16961TIP3    H272299   5.805   5.482   1.313 -0.5124 -1.0960  1.7134
16962TIP3   OH272300   2.627   0.860  12.820 -0.0954 -0.9198 -0.7488
16962TIP3    H172301   2.551   0.913  12.844  0.4525 -1.4771  2.5755
16962TIP3    H272302   2.600   0.815  12.740 -1.9192  1.5152 -1.6486
16963TIP3   OH272303   5.943   2.318  14.291  0.0908 -0.2592  0.3466
16963TIP3    H172304   5.861   2.320  14.243  1.2122 -0.9936 -1.6880
16963TIP3    H272305   5.964   2.410  14.307  0.1214  0.0520 -1.3674
16964TIP3   OH272306   0.859   4.369   3.573  0.1328 -0.1361 -0.2635
16964TIP3    H172307   0.941   4.413   3.555  0.3595 -0.6414 -0.4868
16964TIP3    H272308   0.877   4.316   3.651 -0.0142 -0.1559 -0.2427
16965TIP3   OH272309   0.689   0.849   4.073 -0.3880  0.3563  0.4134
16965TIP3    H172310   0.760   0.875   4.132 -0.5226 -0.6571  1.0401
16965TIP3    H272311   0.626   0.921   4.079 -0.5627  0.1215  1.7934
16966TIP3   OH272312   5.693   2.300   4.805 -0.1242  0.3477  0.0845
16966TIP3    H172313   5.713   2.383   4.762 -0.2603 -0.5129 -1.7087
16966TIP3    H272314   5.777   2.271   4.840 -0.4234  2.2134  2.6631
16967TIP3   OH272315   1.888   6.435   1.497  0.3237  0.0977  0.0393
16967TIP3    H172316   1.801   6.433   1.459 -0.4950  0.0212  1.8460
16967TIP3    H272317   1.919   6.525   1.481  0.5734 -0.2710 -1.8896
16968TIP3   OH272318   0.049   0.184   4.860  0.0805  0.1340 -0.8774
16968TIP3    H172319   0.034   0.114   4.796 -0.0988 -1.3572  0.7032
16968TIP3    H272320  -0.027   0.178   4.919  1.0830  0.2813  0.4776
16969TIP3   OH272321   3.696   2.343  13.770  0.6860 -0.2121 -0.3441
16969TIP3    H172322   3.628   2.411  13.771  0.6102 -0.2798 -0.7474
16969TIP3    H272323   3.749   2.362  13.847 -0.5430 -0.9431  0.7196
16970TIP3   OH272324   2.523   4.377   5.598  0.0960  0.3710 -0.8361
16970TIP3    H172325   2.432   4.348   5.596  0.0655  0.4511 -0.5585
16970TIP3    H272326   2.574   4.301   5.568 -0.1365  0.6139 -1.8798
16971TIP3   OH272327   2.774   1.090  14.128 -0.0132 -0.2503 -0.3694
16971TIP3    H172328   2.770   0.996  14.109 -1.1123 -0.7329  1.8590
16971TIP3    H272329   2.867   1.111  14.125  0.4908 -1.9587  1.1925
16972TIP3   OH272330   4.974   6.504  16.622  0.1432 -0.3010 -0.3886
16972TIP3    H172331   5.019   6.510  16.706 -0.4282  1.5584 -0.1710
16972TIP3    H272332   5.037   6.537  16.558 -0.3565  0.8834 -0.2895
16973TIP3   OH272333   6.430   2.904  12.311  0.4317  0.5036 -0.0055
16973TIP3    H172334   6.486   2.827  12.328 -0.0207  0.2230  0.2368
16973TIP3    H272335   6.343   2.867  12.297  0.4114  0.8909 -0.9864
16974TIP3   OH272336   2.531   4.553  11.518 -0.4270 -0.2801 -0.3485
16974TIP3    H172337   2.553   4.467  11.553 -0.8403 -0.2965 -0.1230
16974TIP3    H272338   2.482   4.535  11.438 -1.2957 -0.2735  0.1679
16975TIP3   OH272339   2.122   3.013   0.143 -0.7793 -0.6341 -0.0611
16975TIP3    H172340   2.070   2.958   0.202 -1.1166 -0.3648 -0.1018
16975TIP3    H272341   2.174   3.068   0.200 -1.1474 -0.3342 -0.0088
16976TIP3   OH272342   4.139   3.991  16.536 -0.6019  0.3997  0.0514
16976TIP3    H172343   4.173   3.976  16.625 -0.2483  0.3368 -0.0914
16976TIP3    H272344   4.120   4.085  16.533  1.3663  0.8380 -0.4668
16977TIP3   OH272345   1.925   6.736  11.580  0.2372  0.2393  0.2860
16977TIP3    H172346   1.976   6.756  11.501  1.3104 -0.4286  0.7827
16977TIP3    H272347   1.897   6.645  11.567 -0.9041  0.6174 -0.0059
16978TIP3   OH272348   5.611   5.322  10.917 -0.3876 -0.3445 -0.1003
16978TIP3    H172349   5.516   5.322  10.933 -0.7592  0.5713 -2.0780
16978TIP3    H272350   5.648   5.359  10.997 -1.5983 -1.4248  1.0319
16979TIP3   OH272351   3.097   1.809   1.140  0.2319  0.2181  0.0101
16979TIP3    H172352   3.088   1.822   1.234  1.0567 -0.8929  0.2646
16979TIP3    H272353   3.015   1.768   1.113  0.6143 -0.9425  0.5524
16980TIP3   OH272354   3.169   2.092  15.585  0.1046  0.2784 -0.3234
16980TIP3    H172355   3.228   2.034  15.633 -0.7477 -0.2440  0.1209
16980TIP3    H272356   3.142   2.158  15.650 -3.7121 -2.3155  1.1039
16981TIP3   OH272357   1.919   4.869   5.683 -0.0282 -0.0473  0.0628
16981TIP3    H172358   1.998   4.883   5.630 -0.5124 -0.1020 -0.6865
16981TIP3    H272359   1.925   4.778   5.711 -0.6813 -0.5906 -1.4677
16982TIP3   OH272360   4.555   5.698   3.946  0.1719 -0.0401  0.1490
16982TIP3    H172361   4.640   5.740   3.929 -0.5202  0.5684 -2.2400
16982TIP3    H272362   4.505   5.763   3.994  0.3362  0.4871 -0.3778
16983TIP3   OH272363   5.983   1.866  11.784  0.2526 -0.2604  0.1984
16983TIP3    H172364   5.985   1.960  11.766 -0.9892 -0.5046 -1.3795
16983TIP3    H272365   6.063   1.832  11.744 -0.0928 -0.0918 -0.6509
16984TIP3   OH272366   4.406   4.737   5.218  0.3770 -0.6797  0.2829
16984TIP3    H172367   4.435   4.762   5.130 -2.0399 -0.5689 -0.5492
16984TIP3    H272368   4.422   4.815   5.272 -1.4350  0.6011 -0.9169
16985TIP3   OH272369   3.530   6.734  11.012  0.0269 -0.3853  0.3404
16985TIP3    H172370   3.481   6.810  10.983 -0.9021 -1.1908 -0.2708
16985TIP3    H272371   3.535   6.677  10.935 -1.8702 -2.2519  1.4847
16986TIP3   OH272372   2.100   4.222   2.741 -0.0826  0.0334  0.0305
16986TIP3    H172373   2.042   4.146   2.732 -0.3308  0.3238 -0.8785
16986TIP3    H272374   2.091   4.269   2.659 -2.4973  2.8642  1.6946
16987TIP3   OH272375   1.189   2.493  17.095 -0.2720  0.2916  0.0872
16987TIP3    H172376   1.277   2.465  17.121 -0.6401  0.6467  1.8661
16987TIP3    H272377   1.185   2.477  17.001  0.4170 -3.3142  0.5014
16988TIP3   OH272378   2.061   4.066   5.782 -0.2260 -0.7801 -0.3048
16988TIP3    H172379   2.094   4.092   5.868 -0.6241 -0.0824 -0.3622
16988TIP3    H272380   2.001   3.993   5.801  1.5640 -2.3226 -0.2274
16989TIP3   OH272381   4.608   5.214  15.520  0.2690 -0.1169 -0.8138
16989TIP3    H172382   4.676   5.152  15.498 -0.3951 -1.3636  0.4723
16989TIP3    H272383   4.641   5.260  15.598 -0.4359 -0.9331 -0.0041
16990TIP3   OH272384   3.173   0.036   1.291  0.4754  0.4717 -0.6677
16990TIP3    H172385   3.200  -0.028   1.357  1.0589  0.7096 -0.6720
16990TIP3    H272386   3.156  -0.016   1.212  0.1314  0.2301 -0.4374
16991TIP3   OH272387   3.289   2.097  12.218  0.4977 -0.2303 -0.7795
16991TIP3    H172388   3.284   2.135  12.130 -0.4405  2.6541  0.4106
16991TIP3    H272389   3.243   2.013  12.210 -0.7081  0.5454 -2.7479
16992TIP3   OH272390   1.907   5.143  15.409 -0.2777 -0.2460  0.0396
16992TIP3    H172391   1.886   5.064  15.458  0.3332 -1.2664 -1.2708
16992TIP3    H272392   1.920   5.210  15.476 -1.9851 -0.9293  1.1336
16993TIP3   OH272393   5.070   2.670   1.409  0.2373 -0.3746  0.1908
16993TIP3    H172394   4.993   2.616   1.427  0.7975 -1.4601 -0.5718
16993TIP3    H272395   5.136   2.640   1.471  0.6428 -0.7949 -0.4304
16994TIP3   OH272396   1.111   5.209   1.468  0.6459 -0.0121  0.3507
16994TIP3    H172397   1.048   5.251   1.411 -0.3390 -0.3446  1.1546
16994TIP3    H272398   1.089   5.116   1.464  1.3940 -0.1885  0.2643
16995TIP3   OH272399   3.946   6.235   4.972 -0.0656  0.0069  0.5743
16995TIP3    H172400   3.858   6.272   4.962  0.1749  0.5533  0.4301
16995TIP3    H272401   3.972   6.213   4.882 -0.4064 -1.0116  0.7049
16996TIP3   OH272402   0.890   0.248  11.577  0.1071 -0.2111 -0.1490
16996TIP3    H172403   0.799   0.221  11.583  0.2398 -0.8411 -0.8762
16996TIP3    H272404   0.940   0.168  11.594  0.5132 -0.2195 -1.3266
16997TIP3   OH272405   4.001   1.320   0.359 -0.2888 -0.7539  0.7379
16997TIP3    H172406   3.971   1.230   0.365 -0.3476 -0.7288  0.8295
16997TIP3    H272407   3.963   1.353   0.277  2.0073 -1.6508 -0.7827
16998TIP3   OH272408   6.257   1.616   5.539 -0.1264 -0.6322 -0.4800
16998TIP3    H172409   6.177   1.668   5.534 -0.7433 -1.4535  0.5059
16998TIP3    H272410   6.302   1.649   5.617 -0.0279 -0.8826 -0.4300
16999TIP3   OH272411   3.844   1.580  15.857 -0.5152 -0.3925 -0.5891
16999TIP3    H172412   3.876   1.535  15.936  0.4316 -0.6154 -1.0914
16999TIP3    H272413   3.917   1.577  15.796 -0.3595  1.9520 -0.6181
17000TIP3   OH272414   0.275   2.689  11.853 -0.6916  0.1942  0.2568
17000TIP3    H172415   0.338   2.759  11.835 -0.2971 -0.4421 -1.0074
17000TIP3    H272416   0.250   2.701  11.944 -0.4061  1.7934  0.1491
17001TIP3   OH272417   5.223   2.834  13.041  0.3467  0.6961  0.0870
17001TIP3    H172418   5.228   2.926  13.066  2.1378  0.4689  0.7543
17001TIP3    H272419   5.134   2.807  13.063  0.2233  1.9049  1.1667
17002TIP3   OH272420   6.319   5.282   6.496 -0.1466  0.1085  0.4449
17002TIP3    H172421   6.404   5.310   6.531 -0.0879  1.1943 -0.5171
17002TIP3    H272422   6.302   5.341   6.423 -1.3548 -0.6252  0.0976
17003TIP3   OH272423   1.720   4.774   2.232 -0.0417 -0.7832 -0.1225
17003TIP3    H172424   1.815   4.777   2.231 -0.0395 -0.8528 -0.1395
17003TIP3    H272425   1.696   4.777   2.325 -0.0147 -0.9935 -0.1082
17004TIP3   OH272426   5.801   4.795  17.105 -0.2243 -0.0636 -0.2726
17004TIP3    H172427   5.846   4.865  17.153  0.9662 -0.5165 -0.6752
17004TIP3    H272428   5.866   4.765  17.042 -0.9409 -1.1103 -0.5301
17005TIP3   OH272429   3.849   2.309   6.211 -0.5704  0.1728 -0.0509
17005TIP3    H172430   3.883   2.382   6.261 -0.2008  1.1223 -1.6378
17005TIP3    H272431   3.921   2.246   6.208 -0.0121  0.8308 -0.7691
17006TIP3   OH272432   1.108   1.927  12.812  0.1145  0.8726 -0.2185
17006TIP3    H172433   1.019   1.894  12.804 -0.2027  1.8982 -1.2461
17006TIP3    H272434   1.163   1.849  12.816 -0.9267  0.1796  2.3941
17007TIP3   OH272435   0.101   4.844  14.496 -0.2221  0.1655  0.4269
17007TIP3    H172436   0.038   4.880  14.559  0.5805  2.2064  0.1270
17007TIP3    H272437   0.186   4.876  14.525  0.2323  0.6927 -1.3613
17008TIP3   OH272438   0.475   5.738   3.533 -0.1911 -0.0979  0.0212
17008TIP3    H172439   0.391   5.783   3.541 -0.6176 -0.8646 -0.0417
17008TIP3    H272440   0.520   5.757   3.615 -0.8222 -0.4608  0.4631
17009TIP3   OH272441   3.165   6.572  15.945 -0.1729  0.0960  0.5505
17009TIP3    H172442   3.171   6.623  16.026 -1.0570 -0.2606  0.8482
17009TIP3    H272443   3.181   6.636  15.875  0.3353  0.4553  0.9946
17010TIP3   OH272444   1.188   5.567  16.747  0.5437 -0.5741  0.3507
17010TIP3    H172445   1.142   5.553  16.829  0.0357 -1.0716 -0.0118
17010TIP3    H272446   1.163   5.656  16.720 -0.1267 -0.8008  0.2118
17011TIP3   OH272447   0.522   1.907   0.137  0.7467 -0.3412  0.2038
17011TIP3    H172448   0.518   1.904   0.041  0.5109  0.3751  0.1838
17011TIP3    H272449   0.594   1.847   0.160  1.8359  0.6404 -0.5113
17012TIP3   OH272450   1.571   6.479  12.451 -0.1658  0.4164 -0.3529
17012TIP3    H172451   1.540   6.551  12.396  0.7408  0.3324 -0.9901
17012TIP3    H272452   1.496   6.419  12.455 -1.1684  1.6597  0.7291
17013TIP3   OH272453   0.706   4.436   3.289 -0.2879 -0.1223  0.3346
17013TIP3    H172454   0.747   4.453   3.205 -0.1426  0.0776  0.4467
17013TIP3    H272455   0.779   4.427   3.350 -0.3135 -1.6886  0.1888
17014TIP3   OH272456   3.839   2.359   3.976  0.2157 -0.0328  0.0162
17014TIP3    H172457   3.774   2.413   3.932  1.4011 -0.0127 -1.8024
17014TIP3    H272458   3.920   2.410   3.969  0.7609 -0.7718  0.8233
17015TIP3   OH272459   6.473   2.646   1.972  0.6758  0.2023  0.3781
17015TIP3    H172460   6.483   2.551   1.981  0.1543  0.0176 -0.7386
17015TIP3    H272461   6.380   2.662   1.990  0.1662  0.1313 -1.8942
17016TIP3   OH272462   4.284   2.354  13.310  0.3585  0.4669  0.1170
17016TIP3    H172463   4.192   2.350  13.336 -0.0726 -0.9848 -1.4711
17016TIP3    H272464   4.318   2.266  13.324  1.3366  0.8099  0.0470
17017TIP3   OH272465   1.494   1.930  12.728 -0.2635  0.0767  0.2474
17017TIP3    H172466   1.439   2.006  12.706  1.1550  0.8423 -0.8440
17017TIP3    H272467   1.551   1.961  12.798 -0.8661 -0.5658  1.0428
17018TIP3   OH272468   5.150   4.092   3.015  0.2546 -0.3061 -0.1155
17018TIP3    H172469   5.208   4.147   3.067 -0.6524  1.0278 -0.4620
17018TIP3    H272470   5.195   4.081   2.931 -0.5290  1.8541 -0.8835
17019TIP3   OH272471   1.760   2.690  16.829 -0.0619  0.9510 -0.6612
17019TIP3    H172472   1.856   2.691  16.834  0.0225  2.8812 -1.6626
17019TIP3    H272473   1.741   2.640  16.750  0.2117  1.7963 -1.2793
17020TIP3   OH272474   2.232   6.744  16.721 -0.1045  0.0932  0.0243
17020TIP3    H172475   2.309   6.795  16.694  0.1587 -0.9848 -1.3796
17020TIP3    H272476   2.261   6.697  16.800 -0.5666  2.5390  1.7570
17021TIP3   OH272477   3.290   1.515  17.028 -1.2583  0.3999 -0.7130
17021TIP3    H172478   3.246   1.599  17.036 -0.9315  0.5221 -0.1722
17021TIP3    H272479   3.379   1.530  17.060 -1.5411 -0.4310  0.5388
17022TIP3   OH272480   3.931   2.254  17.251  0.3483  0.2064 -0.0898
17022TIP3    H172481   3.932   2.270  17.345 -1.4794  2.2181 -0.3344
17022TIP3    H272482   3.907   2.338  17.212  0.6845 -0.6581 -2.3409
17023TIP3   OH272483   5.154   6.774   5.344 -0.5699  0.2734  0.3357
17023TIP3    H172484   5.180   6.859   5.309 -2.0457  0.3368 -0.7047
17023TIP3    H272485   5.067   6.758   5.307 -0.5448 -1.4612  0.9155
17024TIP3   OH272486   0.164   3.691  10.757  0.0116  0.4597  0.0805
17024TIP3    H172487   0.110   3.664  10.683  1.4437  0.1440 -0.8892
17024TIP3    H272488   0.123   3.650  10.833 -0.8430 -0.1415 -0.6781
17025TIP3   OH272489   2.569   5.935  16.382  0.1462 -0.1421  0.5495
17025TIP3    H172490   2.543   6.006  16.324  0.9814  1.0390  1.5641
17025TIP3    H272491   2.501   5.868  16.370  1.1189 -0.7379 -3.0280
17026TIP3   OH272492   3.212   3.295   6.715  0.1017  0.0458  0.2639
17026TIP3    H172493   3.134   3.263   6.670 -0.0689 -1.6416  1.6337
17026TIP3    H272494   3.280   3.231   6.691  0.7589  0.8289  0.0210
17027TIP3   OH272495   1.017   2.611  11.609 -0.6019 -0.5394  0.2441
17027TIP3    H172496   1.106   2.584  11.587  0.1305 -0.3975  2.6894
17027TIP3    H272497   0.966   2.594  11.530  1.5874 -0.5934 -1.2469
17028TIP3   OH272498   4.582   0.136   4.554 -0.5103  0.3899  0.0370
17028TIP3    H172499   4.536   0.208   4.597  0.2629 -0.7055  2.9100
17028TIP3    H272500   4.538   0.057   4.584  0.5653 -0.4817 -0.5932
17029TIP3   OH272501   6.340   4.932  10.797  0.5311  0.0905  0.3046
17029TIP3    H172502   6.264   4.914  10.742  0.3295 -0.5433  0.7817
17029TIP3    H272503   6.398   4.857  10.784  0.4810 -0.0705  0.9410
17030TIP3   OH272504   1.149   5.043  15.198  0.6180 -0.1337  0.4155
17030TIP3    H172505   1.157   5.085  15.112 -1.0936 -0.4964  0.0498
17030TIP3    H272506   1.234   5.058  15.239  1.1179  0.9691 -0.9201
17031TIP3   OH272507   1.172   6.000   4.531 -0.1665 -0.0038 -0.4773
17031TIP3    H172508   1.104   6.005   4.464  0.4537  0.5301 -1.0850
17031TIP3    H272509   1.126   5.978   4.612 -1.4952  3.2132 -0.2264
17032TIP3   OH272510   4.705   0.135   2.320 -0.4075 -0.4181 -0.1475
17032TIP3    H172511   4.676   0.223   2.342 -0.4561 -0.3418 -0.5205
17032TIP3    H272512   4.800   0.141   2.319 -0.3293 -0.7661  1.4988
17033TIP3   OH272513   2.935   6.521   0.218 -0.1569  0.4185 -0.1535
17033TIP3    H172514   2.983   6.571   0.283 -1.4008  0.1507  1.0299
17033TIP3    H272515   2.923   6.581   0.145 -2.3794  2.2483  1.5775
17034TIP3   OH272516   3.319   3.363   6.270 -0.3544 -0.0315 -0.8211
17034TIP3    H172517   3.243   3.420   6.287 -2.1057 -2.5513  0.5560
17034TIP3    H272518   3.282   3.289   6.220  0.9384 -1.8200  0.7437
17035TIP3   OH272519   6.023   5.639  13.822 -0.2570  0.4682 -0.0121
17035TIP3    H172520   6.072   5.568  13.865  0.4452  1.6373  1.1795
17035TIP3    H272521   5.963   5.593  13.763 -0.2309 -1.1619  1.1371
17036TIP3   OH272522   6.270   5.114  15.446  0.8771 -0.0632  0.2851
17036TIP3    H172523   6.224   5.191  15.411 -0.1562 -0.7567  0.0682
17036TIP3    H272524   6.209   5.077  15.510  0.5352 -1.7478 -0.9475
17037TIP3   OH272525   4.899   0.067  11.099  0.0674  0.0389 -0.4727
17037TIP3    H172526   4.911   0.023  11.183  1.5517 -0.0862 -0.7221
17037TIP3    H272527   4.816   0.114  11.108  0.4914  0.5342  1.2902
17038TIP3   OH272528   1.254   5.361  15.188  0.0395 -0.1654 -0.0706
17038TIP3    H172529   1.173   5.363  15.138 -0.1118 -1.1414  0.1155
17038TIP3    H272530   1.293   5.275  15.169  0.2239 -0.3539  1.0731
17039TIP3   OH272531   5.316   1.700  10.978  0.0757 -0.2899  0.4103
17039TIP3    H172532   5.222   1.706  10.965  0.2483  0.4164 -0.6203
17039TIP3    H272533   5.354   1.716  10.892  1.1465 -0.4321  0.8349
17040TIP3   OH272534   1.004   4.650   3.447 -0.3936 -0.3946 -0.0818
17040TIP3    H172535   1.012   4.724   3.386 -0.3130  1.2419  1.7965
17040TIP3    H272536   0.911   4.648   3.470 -0.4767 -1.1910 -0.4550
17041TIP3   OH272537   1.103   0.844   3.732  0.3841 -0.1802  0.4033
17041TIP3    H172538   1.060   0.847   3.818  1.0967 -0.7601  0.7930
17041TIP3    H272539   1.053   0.906   3.678 -0.2574 -0.0293  1.1466
17042TIP3   OH272540   6.335   2.825  11.073  0.4260 -0.4169  0.5254
17042TIP3    H172541   6.430   2.820  11.059  0.3870  0.9328 -0.4157
17042TIP3    H272542   6.300   2.752  11.022  0.9603 -1.1868  1.2186
17043TIP3   OH272543   3.943   0.235  14.180  0.4627 -0.0994  0.3765
17043TIP3    H172544   3.937   0.139  14.183  0.6771 -0.1019  1.0325
17043TIP3    H272545   3.855   0.264  14.159  0.7662 -0.4914 -1.5848
17044TIP3   OH272546   2.315   6.473   4.560  0.4240  0.0724 -0.0649
17044TIP3    H172547   2.270   6.452   4.643  0.5052  0.6087  0.1153
17044TIP3    H272548   2.273   6.416   4.496  1.0697 -1.1274  0.5324
17045TIP3   OH272549   6.108   0.638   2.061  0.3722  0.1773  0.4701
17045TIP3    H172550   6.023   0.631   2.106 -0.8318  0.7119 -1.5863
17045TIP3    H272551   6.144   0.721   2.090 -0.1142  0.2501  0.8850
17046TIP3   OH272552   5.843   1.113  14.730  0.1250 -0.0765 -0.4970
17046TIP3    H172553   5.846   1.101  14.635 -0.9504  2.0597 -0.8579
17046TIP3    H272554   5.785   1.044  14.761 -1.1040  0.3896 -1.6706
17047TIP3   OH272555   1.731   0.792  10.422 -0.2968  0.2619 -0.1359
17047TIP3    H172556   1.815   0.782  10.378 -0.8322 -0.5404 -1.0216
17047TIP3    H272557   1.686   0.708  10.409 -1.5722  0.9535 -0.4247
17048TIP3   OH272558   5.744   1.615  15.769 -0.5055 -0.1067 -0.6828
17048TIP3    H172559   5.793   1.575  15.840  0.3096 -1.0933 -1.7645
17048TIP3    H272560   5.664   1.563  15.762  0.2586 -1.1951 -1.6637
17049TIP3   OH272561   5.166   3.462  13.850 -0.6763  0.5094  0.1177
17049TIP3    H172562   5.193   3.453  13.941 -0.8882  1.2822  0.2662
17049TIP3    H272563   5.233   3.516  13.810 -0.4469 -0.0417 -0.2591
17050TIP3   OH272564   6.229   5.272  14.548 -0.1652  0.4753 -0.1012
17050TIP3    H172565   6.142   5.305  14.523 -0.7085 -0.3550  0.6022
17050TIP3    H272566   6.290   5.321  14.493 -0.9527  2.2230  0.4773
17051TIP3   OH272567   2.665   5.819   6.050  0.6177  0.4982 -0.4754
17051TIP3    H172568   2.734   5.752   6.057  1.8200  1.3279 -3.0468
17051TIP3    H272569   2.709   5.901   6.076 -0.0820  0.6929  0.1128
17052TIP3   OH272570   2.351   6.345  12.105 -0.3602  0.5755 -0.7792
17052TIP3    H172571   2.381   6.254  12.112 -2.0177  0.1115  2.4117
17052TIP3    H272572   2.296   6.346  12.027 -2.2812 -1.9286  0.3881
17053TIP3   OH272573   5.750   4.137   4.450 -0.6857 -0.9545  0.0250
17053TIP3    H172574   5.749   4.067   4.384 -1.0022 -1.5136  0.6166
17053TIP3    H272575   5.802   4.101   4.522  2.7891  0.9153 -1.2525
17054TIP3   OH272576   5.013   0.368   5.344  0.1772 -0.0165 -0.5318
17054TIP3    H172577   5.094   0.323   5.321  0.0167 -0.2461 -0.6510
17054TIP3    H272578   5.037   0.423   5.418  0.0662 -1.2986  0.4843
17055TIP3   OH272579   3.609   0.450  16.198 -0.5461  0.2484 -0.0599
17055TIP3    H172580   3.514   0.442  16.208 -0.8172 -0.3891 -2.5191
17055TIP3    H272581   3.632   0.382  16.135  1.3684  1.2530 -0.5124
17056TIP3   OH272582   6.485   5.757  14.996  0.0272  0.3377  0.2093
17056TIP3    H172583   6.566   5.741  14.947  1.0821 -0.0424  2.0061
17056TIP3    H272584   6.513   5.806  15.073 -1.4763  0.2748  0.8222
17057TIP3   OH272585   0.117   2.404   2.479 -0.6781 -0.0492  0.3052
17057TIP3    H172586   0.096   2.490   2.513 -0.2400  1.1021 -2.0912
17057TIP3    H272587   0.177   2.366   2.543  1.0705  2.4337  0.2728
17058TIP3   OH272588   2.695   2.716   5.655  0.3882 -0.0126 -0.1439
17058TIP3    H172589   2.647   2.678   5.581  2.0780 -0.6421 -0.9677
17058TIP3    H272590   2.760   2.774   5.615 -0.3175  1.6360  0.9888
17059TIP3   OH272591   3.519   4.618   6.692 -0.4483 -0.0449  0.1768
17059TIP3    H172592   3.581   4.557   6.651 -1.7838 -0.5823 -1.1347
17059TIP3    H272593   3.452   4.562   6.730  0.8459  0.4238  3.4639
17060TIP3   OH272594   3.271   6.035  15.718  0.7038 -0.5653  0.6660
17060TIP3    H172595   3.329   6.016  15.644 -0.2654 -2.1370  0.2465
17060TIP3    H272596   3.268   6.130  15.722  1.4636 -0.4429 -0.7730
17061TIP3   OH272597   3.458   3.071   4.834 -0.1723  0.1760  0.2071
17061TIP3    H172598   3.453   3.122   4.915  0.8517 -2.2011  1.9056
17061TIP3    H272599   3.551   3.069   4.812 -0.0176 -1.6958  0.7988
17062TIP3   OH272600   2.387   2.873   6.373 -0.1539 -0.2369 -0.0509
17062TIP3    H172601   2.445   2.916   6.436 -0.3074  1.4988 -1.0218
17062TIP3    H272602   2.439   2.802   6.336  0.7663  0.2347  0.3112
17063TIP3   OH272603   2.230   6.554   5.081  0.5153  0.3264 -0.4196
17063TIP3    H172604   2.156   6.601   5.041  1.7892  0.4531 -2.8296
17063TIP3    H272605   2.198   6.465   5.091  0.2966  0.1222 -2.4118
17064TIP3   OH272606   2.146   3.262  16.621  0.1859 -0.0374  0.3075
17064TIP3    H172607   2.124   3.355  16.616  1.2813  0.1852 -0.9313
17064TIP3    H272608   2.220   3.258  16.681 -0.0454 -0.1518  0.5872
17065TIP3   OH272609   1.221   0.704   2.036 -0.6436  0.1328  0.1751
17065TIP3    H172610   1.130   0.697   2.006 -0.3371 -0.4372 -0.6645
17065TIP3    H272611   1.270   0.728   1.957 -0.0389  0.2778  0.5880
17066TIP3   OH272612   4.890   6.246   4.391  0.1048  0.2340 -1.1132
17066TIP3    H172613   4.900   6.340   4.404  0.2132  0.1051 -0.2339
17066TIP3    H272614   4.825   6.219   4.456 -0.0230 -0.2767 -1.4457
17067TIP3   OH272615   0.571   2.013  14.877 -0.1229 -0.0248 -0.3269
17067TIP3    H172616   0.619   1.946  14.828  1.5382  1.5285 -0.9545
17067TIP3    H272617   0.562   2.086  14.815 -2.7205  0.0513  0.0279
17068TIP3   OH272618   4.695   1.361  11.463 -0.8519  0.6833 -0.0986
17068TIP3    H172619   4.712   1.362  11.368 -0.6128 -0.4331 -0.0887
17068TIP3    H272620   4.755   1.294  11.496 -1.5836  0.4220  0.7124
17069TIP3   OH272621   0.084   1.783  15.502 -0.1063  0.2192  0.0774
17069TIP3    H172622   0.041   1.751  15.423 -2.0158  1.0923  0.7032
17069TIP3    H272623   0.026   1.755  15.573  1.5957 -0.5892  1.2110
17070TIP3   OH272624   2.449   1.442   2.321  1.0522  0.1601 -0.6914
17070TIP3    H172625   2.369   1.473   2.363  1.3722 -1.0676  0.9179
17070TIP3    H272626   2.443   1.476   2.232 -2.0927 -1.2471 -1.1718
17071TIP3   OH272627   2.729   0.245  15.969  0.1396 -0.0259 -0.0594
17071TIP3    H172628   2.793   0.180  15.939  1.0102  0.9383 -0.3512
17071TIP3    H272629   2.659   0.242  15.904  0.4120 -0.3037 -0.3439
17072TIP3   OH272630   6.690   2.682  16.934 -0.3752 -0.1866  0.1901
17072TIP3    H172631   6.701   2.588  16.922 -1.1588 -0.0966 -1.5597
17072TIP3    H272632   6.777   2.715  16.954  0.1141 -1.1335 -0.3471
17073TIP3   OH272633   1.784   2.065   4.565 -0.1714 -0.0298 -0.3713
17073TIP3    H172634   1.844   2.004   4.608  1.3986  1.9696  0.4566
17073TIP3    H272635   1.700   2.019   4.562  0.8931 -2.1277  0.3377
17074TIP3   OH272636   5.038   4.302   5.256 -0.2693 -0.0750 -0.0511
17074TIP3    H172637   5.069   4.213   5.240  0.8898  0.7155 -2.9045
17074TIP3    H272638   5.045   4.345   5.171 -0.6818  2.7910  1.2499
17075TIP3   OH272639   4.878   5.115  13.922 -0.1064  0.2968 -0.6152
17075TIP3    H172640   4.815   5.183  13.946 -0.9740  0.1303 -2.2860
17075TIP3    H272641   4.930   5.102  14.001 -0.4633  2.2970  0.0188
17076TIP3   OH272642   4.028   6.442  16.050  0.0427 -0.6974 -0.4045
17076TIP3    H172643   4.120   6.448  16.025  0.4179 -0.2407  0.9663
17076TIP3    H272644   3.995   6.532  16.039 -0.7051 -1.1515 -2.4050
17077TIP3   OH272645   5.225   1.851  16.849 -0.0652  0.0881 -0.3652
17077TIP3    H172646   5.264   1.819  16.767 -0.9906 -1.6498 -0.1751
17077TIP3    H272647   5.149   1.901  16.821  0.4327  0.7251 -0.6076
17078TIP3   OH272648   0.388   5.723  16.335  0.4258  0.0342  0.3692
17078TIP3    H172649   0.366   5.782  16.407  0.8216  1.2195 -0.4562
17078TIP3    H272650   0.331   5.647  16.349  0.6879  0.1043  2.0737
17079TIP3   OH272651   1.371   3.739  16.154  0.2423  0.1372 -0.1565
17079TIP3    H172652   1.296   3.785  16.191 -0.0400 -2.0159  2.2421
17079TIP3    H272653   1.335   3.686  16.083 -0.1963  0.3266 -0.0774
17080TIP3   OH272654   3.990   3.755  11.267  0.1858  0.0813  0.1866
17080TIP3    H172655   3.986   3.659  11.265 -0.2824  0.1064 -1.5947
17080TIP3    H272656   3.949   3.779  11.350  0.7878 -1.2687  0.9046
17081TIP3   OH272657   1.963   2.560  14.613 -0.0973  0.3029 -0.0774
17081TIP3    H172658   1.988   2.519  14.695  0.2583 -0.2562 -0.4601
17081TIP3    H272659   2.033   2.622  14.594  1.7581 -2.1225 -1.7710
17082TIP3   OH272660   0.874   6.327   0.329  0.6745 -0.1947  0.3069
17082TIP3    H172661   0.925   6.345   0.251  0.7775 -0.5345  0.2950
17082TIP3    H272662   0.914   6.249   0.367  1.0965  0.3937  1.1080
17083TIP3   OH272663   2.388   2.887  17.136  0.1389 -0.5660 -0.0984
17083TIP3    H172664   2.304   2.930  17.153 -0.7613 -2.8203  1.6042
17083TIP3    H272665   2.403   2.832  17.213  1.9610 -2.1205 -1.4689
17084TIP3   OH272666   0.232   3.075  14.334  0.4408 -0.1996  0.2182
17084TIP3    H172667   0.267   3.011  14.272 -2.1682 -0.3425 -1.2720
17084TIP3    H272668   0.169   3.126  14.283  0.8196  2.1456  1.9102
17085TIP3   OH272669   4.895   1.450  13.788 -0.1498  0.1734  0.2720
17085TIP3    H172670   4.856   1.531  13.820 -0.6764 -0.2530  0.7250
17085TIP3    H272671   4.924   1.404  13.867  0.8080  0.2345 -0.0201
17086TIP3   OH272672   1.737   6.613   3.646 -0.4292 -0.4016  0.3052
17086TIP3    H172673   1.704   6.524   3.637  1.3805 -1.1582  0.6322
17086TIP3    H272674   1.827   6.609   3.613  0.0152  1.0663  1.2096
17087TIP3   OH272675   1.694   2.877  11.999  0.2650 -0.0930 -0.0557
17087TIP3    H172676   1.675   2.785  12.017 -0.0417 -0.0290 -0.0523
17087TIP3    H272677   1.777   2.893  12.045  0.0566 -0.2278  0.3806
17088TIP3   OH272678   3.134   0.414  13.331 -0.0910 -0.5985 -0.4563
17088TIP3    H172679   3.128   0.341  13.393 -0.5537  0.2184  0.4939
17088TIP3    H272680   3.048   0.456  13.335 -0.5564 -1.2554 -2.6040
17089TIP3   OH272681   1.156   5.696   2.866  0.2875 -0.5006  0.0585
17089TIP3    H172682   1.203   5.776   2.840  1.0416 -0.7759  0.5335
17089TIP3    H272683   1.073   5.701   2.819  0.5474  0.2983 -0.3431
17090TIP3   OH272684   0.740   5.558  13.651  0.3972 -0.4042 -0.2754
17090TIP3    H172685   0.699   5.590  13.570  0.2773  2.2363  0.7546
17090TIP3    H272686   0.669   5.557  13.715  1.1635  0.7308  0.6146
17091TIP3   OH272687   1.722   2.245   4.801  0.1629  0.2523 -0.1059
17091TIP3    H172688   1.744   2.192   4.725  3.1821 -1.3148  1.6322
17091TIP3    H272689   1.775   2.324   4.791  0.7858 -0.0801  0.4056
17092TIP3   OH272690   6.163   5.861  12.899  0.4100  0.7503  0.3432
17092TIP3    H172691   6.159   5.820  12.985 -1.5635  0.7500  0.3152
17092TIP3    H272692   6.177   5.954  12.917 -0.5993  0.8449  0.7382
17093TIP3   OH272693   3.321   3.232  14.267  0.3791 -0.0023 -0.0462
17093TIP3    H172694   3.289   3.322  14.273 -3.1838 -0.9081 -2.2851
17093TIP3    H272695   3.249   3.179  14.302  2.9431 -2.0786  2.6125
17094TIP3   OH272696   5.395   3.991  14.741  0.5106  0.0322  0.2361
17094TIP3    H172697   5.453   4.065  14.728 -0.3616  0.9089  1.2088
17094TIP3    H272698   5.313   4.017  14.699  0.3226 -0.5626  0.2187
17095TIP3   OH272699   0.979   1.070  17.121  0.4739 -0.6205 -0.0415
17095TIP3    H172700   0.999   1.153  17.077 -0.9074 -0.7294 -0.9255
17095TIP3    H272701   0.886   1.056  17.105  0.8610 -2.7964 -0.6866
17096TIP3   OH272702   3.368   4.816  12.026  0.4168  0.8873  0.5851
17096TIP3    H172703   3.355   4.722  12.014 -0.1927  0.9226  0.9287
17096TIP3    H272704   3.289   4.846  12.072  0.0954  1.7759 -0.5149
17097TIP3   OH272705   1.694   1.534   1.170  0.2977 -0.4450  0.3609
17097TIP3    H172706   1.652   1.620   1.160  0.2101 -0.5990 -0.7868
17097TIP3    H272707   1.674   1.489   1.088  0.2932 -1.5887  0.9842
17098TIP3   OH272708   4.118   6.245  15.607 -0.6542 -0.0263  0.7742
17098TIP3    H172709   4.087   6.158  15.579  1.8048 -0.7181 -0.1256
17098TIP3    H272710   4.185   6.268  15.542 -0.0207  1.7714  1.9890
17099TIP3   OH272711   0.194   6.688   3.201 -0.0884 -0.1132  0.4903
17099TIP3    H172712   0.253   6.665   3.129  1.7708 -0.5990  2.0758
17099TIP3    H272713   0.217   6.779   3.222 -0.2828 -0.1304  0.7814
17100TIP3   OH272714   4.025   2.362  15.230 -0.1101 -0.6507  0.0728
17100TIP3    H172715   3.977   2.371  15.148 -1.4385  0.4117  0.9177
17100TIP3    H272716   4.063   2.274  15.226  2.4538  0.4200 -2.9538
17101TIP3   OH272717   4.856   5.497   0.137 -0.2235 -0.0231  0.4297
17101TIP3    H172718   4.876   5.431   0.071  0.1330 -0.2571  0.7665
17101TIP3    H272719   4.903   5.575   0.107  0.4368 -0.3003  0.7105
17102TIP3   OH272720   4.279   6.684  13.975 -0.7247  0.4088 -0.7023
17102TIP3    H172721   4.314   6.628  14.045 -1.7843  0.2357 -0.2779
17102TIP3    H272722   4.314   6.771  13.993 -1.6160  0.5388  0.5448
17103TIP3   OH272723   2.550   4.716   3.387 -0.6787 -0.0470  0.3503
17103TIP3    H172724   2.485   4.712   3.457 -0.2270  0.9332  0.8422
17103TIP3    H272725   2.603   4.637   3.398 -1.4003 -0.5488  0.3126
17104TIP3   OH272726   6.167   5.714  14.244 -0.3011 -0.0773  0.3118
17104TIP3    H172727   6.166   5.750  14.333 -0.5109  0.1393  0.2214
17104TIP3    H272728   6.077   5.687  14.228 -0.1588 -0.5878  0.3549
17105TIP3   OH272729   3.831   6.181  14.316  0.6059  0.2389  0.2808
17105TIP3    H172730   3.906   6.135  14.353 -0.7392 -0.2639  2.5975
17105TIP3    H272731   3.780   6.113  14.273 -0.7272 -0.3269  2.5966
17106TIP3   OH272732   4.508   2.074  17.250 -0.1376 -0.0846  0.3079
17106TIP3    H172733   4.531   1.981  17.250 -0.3248 -0.2361 -2.9626
17106TIP3    H272734   4.415   2.076  17.273 -0.1083 -0.6911  0.4874
17107TIP3   OH272735   5.403   4.999  17.294  0.0301 -0.1781 -0.6066
17107TIP3    H172736   5.480   5.047  17.265 -0.0633 -0.8582 -2.0567
17107TIP3    H272737   5.431   4.907  17.297 -0.2018 -0.2322  0.7176
17108TIP3   OH272738   5.058   6.463  16.872 -0.0158 -0.0280 -0.3584
17108TIP3    H172739   5.048   6.386  16.927 -0.5442  1.4072  1.6591
17108TIP3    H272740   4.978   6.513  16.884  0.0775  0.6021 -2.0556
17109TIP3   OH272741   5.360   0.057  16.235 -0.7892  0.3680 -0.1341
17109TIP3    H172742   5.428  -0.003  16.266 -1.1983 -0.7227 -1.2731
17109TIP3    H272743   5.332   0.104  16.314  0.0995 -0.3607  0.6431
17110TIP3   OH272744   2.357   2.773   2.101 -0.2023  0.0382 -0.2007
17110TIP3    H172745   2.388   2.745   2.015  0.6551  0.6980 -0.1174
17110TIP3    H272746   2.436   2.780   2.155 -0.6241  0.5660  0.3704
17111TIP3   OH272747   6.214   6.631   6.293  0.0521  0.3642 -0.0944
17111TIP3    H172748   6.219   6.603   6.384 -0.5757 -0.4228 -0.2935
17111TIP3    H272749   6.210   6.726   6.297  0.9701  0.3888  0.6511
17112TIP3   OH272750   2.351   4.440   2.492 -0.1752  0.7508  0.5455
17112TIP3    H172751   2.370   4.517   2.438  0.9270 -0.1828 -0.4654
17112TIP3    H272752   2.298   4.474   2.565  0.4749  2.4968  0.2606
17113TIP3   OH272753   4.249   3.719   4.526  0.4244 -0.4458 -0.1394
17113TIP3    H172754   4.235   3.801   4.480 -0.3835  0.8692  2.2810
17113TIP3    H272755   4.187   3.658   4.487 -2.3438  1.4154  1.0358
17114TIP3   OH272756   6.003   5.719   0.313  0.1250 -0.2735 -0.1198
17114TIP3    H172757   6.039   5.804   0.339 -0.8910  0.2796 -0.4594
17114TIP3    H272758   6.077   5.659   0.318  0.0890 -0.2144  3.9005
17115TIP3   OH272759   0.193   6.032  13.486  0.0155 -0.4996  0.3967
17115TIP3    H172760   0.243   5.966  13.534 -0.5494 -0.2691  1.3209
17115TIP3    H272761   0.110   6.038  13.532 -0.4607 -0.1009 -0.4807
17116TIP3   OH272762   1.277   3.816  13.792  0.4086  0.2513  0.4501
17116TIP3    H172763   1.338   3.756  13.749 -0.9339 -0.6200 -0.2994
17116TIP3    H272764   1.293   3.901  13.750 -0.2720 -0.4035 -1.1894
17117TIP3   OH272765   1.573   1.632  12.751  0.2487  0.8248  0.3376
17117TIP3    H172766   1.570   1.576  12.674  1.1682 -1.2725  1.7273
17117TIP3    H272767   1.509   1.701  12.734 -0.4356 -0.2566 -1.7596
17118TIP3   OH272768   3.419   5.543  14.415 -0.4404  0.3488  0.2304
17118TIP3    H172769   3.366   5.606  14.366  0.3634  0.7145 -0.1821
17118TIP3    H272770   3.395   5.458  14.378  1.3269  0.7256 -1.9948
17119TIP3   OH272771   1.690   0.046  10.998  0.2278 -0.0010  0.0170
17119TIP3    H172772   1.760   0.013  10.942 -0.5972  0.2696 -1.2289
17119TIP3    H272773   1.694   0.141  10.987 -0.4606  0.0030 -0.2477
17120TIP3   OH272774   2.806   1.981  13.776 -0.0084 -0.3028 -0.2187
17120TIP3    H172775   2.814   1.920  13.702  0.0293  0.1910 -0.6260
17120TIP3    H272776   2.848   2.061  13.745 -0.7288  0.1809  0.0386
17121TIP3   OH272777   3.505   0.536  17.214 -0.2090  0.0047  0.1730
17121TIP3    H172778   3.546   0.530  17.300  0.3369 -0.4762 -0.1109
17121TIP3    H272779   3.463   0.622  17.213 -1.7780 -0.6987  1.5844
17122TIP3   OH272780   3.908   0.399   1.310  0.1865 -0.1525  0.6380
17122TIP3    H172781   3.911   0.480   1.259  0.7697 -0.3778  0.3068
17122TIP3    H272782   4.000   0.378   1.328 -0.0018  0.2745  2.3580
17123TIP3   OH272783   3.848   5.579  13.612  0.0818  0.3986 -0.2286
17123TIP3    H172784   3.794   5.528  13.552 -0.0723  0.6086 -0.2704
17123TIP3    H272785   3.791   5.594  13.688  0.1071  0.5530 -0.2395
17124TIP3   OH272786   4.079   2.472  14.533  0.0657  0.4563 -0.2151
17124TIP3    H172787   4.109   2.478  14.624  0.3107 -0.5884 -0.2140
17124TIP3    H272788   4.076   2.378  14.515 -0.6510  0.6296 -1.0717
17125TIP3   OH272789   1.057   1.799   2.459  0.3775  0.6900  0.1084
17125TIP3    H172790   1.114   1.777   2.533 -1.4964 -2.7427  0.7448
17125TIP3    H272791   1.105   1.767   2.382  0.1907 -0.3865  0.4252
17126TIP3   OH272792   1.733   1.747  13.320 -0.3048 -0.5644  0.3461
17126TIP3    H172793   1.655   1.800  13.338  0.2716  0.4937 -0.1857
17126TIP3    H272794   1.792   1.766  13.392 -0.3916 -1.0934  0.5611
17127TIP3   OH272795   5.888   2.424   2.731 -0.6248  0.3327 -0.1683
17127TIP3    H172796   5.949   2.359   2.765 -0.3700  1.2395  1.2162
17127TIP3    H272797   5.889   2.412   2.636  0.6786 -0.5543 -0.0613
17128TIP3   OH272798   0.471   4.626   4.276  0.1725  0.0188  0.0913
17128TIP3    H172799   0.446   4.621   4.368  4.4009 -1.1765  1.3964
17128TIP3    H272800   0.469   4.535   4.246 -0.2514  0.2911 -0.7245
17129TIP3   OH272801   5.676   4.342  17.299 -0.1583 -0.0884 -1.0366
17129TIP3    H172802   5.770   4.325  17.294 -0.1684 -0.2596 -0.7224
17129TIP3    H272803   5.659   4.410  17.234 -0.0198 -0.9203 -1.9536
17130TIP3   OH272804   1.319   2.567  13.001  0.3760  0.0465 -0.0530
17130TIP3    H172805   1.258   2.634  12.967  0.2979  0.4174  0.7953
17130TIP3    H272806   1.286   2.485  12.966 -1.3530  0.0849  1.3257
17131TIP3   OH272807   3.194   2.643  12.648 -0.0998 -0.2039 -0.1642
17131TIP3    H172808   3.208   2.718  12.706 -0.3122 -0.2472 -0.0551
17131TIP3    H272809   3.226   2.672  12.563  1.3667 -0.5631  0.2384
17132TIP3   OH272810   6.491   3.861  13.297  0.4572 -0.6970  0.1024
17132TIP3    H172811   6.544   3.941  13.295 -0.7796  0.1319 -0.3735
17132TIP3    H272812   6.536   3.804  13.360  1.4791  0.2751  0.2769
17133TIP3   OH272813   0.249   4.496   0.263  0.2343 -0.5119 -0.1524
17133TIP3    H172814   0.196   4.561   0.309 -0.4505 -0.4531 -0.9865
17133TIP3    H272815   0.227   4.509   0.171  0.7219 -1.3742 -0.4000
17134TIP3   OH272816   3.825   5.958   1.589 -0.4086  0.1476  0.2153
17134TIP3    H172817   3.798   6.044   1.557 -1.2305  0.1759  0.9416
17134TIP3    H272818   3.909   5.974   1.630  0.2676  0.2647 -1.1508
17135TIP3   OH272819   4.451   4.079  14.991  0.6007 -0.3528  0.6237
17135TIP3    H172820   4.539   4.118  14.992  0.0732  0.8645  0.9025
17135TIP3    H272821   4.465   3.989  14.959  1.8778 -0.0194  0.1949
17136TIP3   OH272822   6.521   3.178  15.160 -0.8077  0.4716  0.2290
17136TIP3    H172823   6.604   3.156  15.117 -1.0258  0.1579 -0.0256
17136TIP3    H272824   6.456   3.176  15.091 -0.8869  1.6470  0.2491
17137TIP3   OH272825   4.580   0.469  16.665 -0.3611 -0.1028  0.0035
17137TIP3    H172826   4.620   0.459  16.579 -1.0167 -1.3892 -0.1826
17137TIP3    H272827   4.549   0.559  16.667 -0.3899 -0.0733 -1.1322
17138TIP3   OH272828   3.683   1.202   0.925 -0.6375 -0.0255  0.3750
17138TIP3    H172829   3.650   1.256   0.997 -0.7428 -0.3272  0.5535
17138TIP3    H272830   3.608   1.191   0.867 -0.2003  1.3992 -0.5169
17139TIP3   OH272831   4.869   1.072  16.808 -0.4459  0.5271  0.0680
17139TIP3    H172832   4.921   1.151  16.817 -1.3136  1.0813  0.3056
17139TIP3    H272833   4.780   1.099  16.831 -0.7491 -0.5156  0.1633
17140TIP3   OH272834   2.728   5.007  13.145 -0.5735 -0.6241  0.3475
17140TIP3    H172835   2.761   4.949  13.213  0.1714 -1.1835 -0.4619
17140TIP3    H272836   2.690   5.081  13.192 -0.0897 -1.0070  1.3655
17141TIP3   OH272837   1.182   3.637   0.095 -0.1435  0.5591  0.0225
17141TIP3    H172838   1.122   3.711   0.087 -1.1353 -0.2188  0.1672
17141TIP3    H272839   1.144   3.582   0.163 -0.0250 -0.6582 -0.8612
17142TIP3   OH272840   1.020   4.005  13.574 -0.5072  0.2462  1.0123
17142TIP3    H172841   0.930   4.021  13.547 -0.9154 -0.2522  2.0367
17142TIP3    H272842   1.039   4.074  13.637  0.2131  0.9996  0.0147
17143TIP3   OH272843   5.823   5.501  16.594  0.2274  0.7315  0.1237
17143TIP3    H172844   5.849   5.593  16.598 -0.2276  0.8435  0.6078
17143TIP3    H272845   5.737   5.502  16.552  0.7165  0.4222 -0.9054
17144TIP3   OH272846   1.155   0.206  12.492 -0.2165  0.2080  0.7854
17144TIP3    H172847   1.076   0.225  12.542 -0.6897  1.9036 -0.5113
17144TIP3    H272848   1.193   0.292  12.473  0.7692 -0.4655 -0.4591
17145TIP3   OH272849   6.067   2.080   2.019 -0.0398 -0.0852 -0.3008
17145TIP3    H172850   6.137   2.100   2.081  0.2357 -0.4739 -0.4827
17145TIP3    H272851   5.989   2.074   2.072  0.4436 -1.9937  0.2568
17146TIP3   OH272852   2.380   5.876  12.710  0.1023  0.4379 -0.1024
17146TIP3    H172853   2.419   5.804  12.661 -1.4189  0.5323 -1.5521
17146TIP3    H272854   2.410   5.955  12.665  1.1251  0.7000  0.9973
17147TIP3   OH272855   6.064   0.442   2.566  0.2071  0.1985  0.0329
17147TIP3    H172856   5.999   0.372   2.569  1.1238 -0.8666 -2.2840
17147TIP3    H272857   6.139   0.407   2.613  0.4464 -0.1454 -0.5969
17148TIP3   OH272858   2.878   3.342  15.726 -0.2804  0.6275  0.3826
17148TIP3    H172859   2.951   3.362  15.668  0.1140  2.4569  1.4329
17148TIP3    H272860   2.821   3.419  15.721 -1.1283  0.0693  1.0807
17149TIP3   OH272861   4.359   3.443  15.605  0.1765 -0.4355  0.3771
17149TIP3    H172862   4.357   3.351  15.580 -0.7007 -0.2686 -0.2316
17149TIP3    H272863   4.358   3.490  15.522  0.7309  0.1331  0.6807
17150TIP3   OH272864   4.631   3.963   2.337  0.5881  0.0379 -0.5715
17150TIP3    H172865   4.650   3.930   2.250 -1.8502 -2.9185 -0.1585
17150TIP3    H272866   4.684   3.908   2.395 -0.7736 -0.8055 -0.0642
17151TIP3   OH272867   2.391   1.598   5.158 -0.1925  0.7954 -0.1502
17151TIP3    H172868   2.382   1.522   5.100 -1.6436  0.7492  0.0966
17151TIP3    H272869   2.479   1.589   5.196  0.3944  0.2737 -1.5454
17152TIP3   OH272870   1.056   3.190  16.456 -0.4552  0.1451  0.3157
17152TIP3    H172871   1.140   3.148  16.474 -1.0533 -0.4180  2.0230
17152TIP3    H272872   1.038   3.167  16.365  1.6039  0.9976 -0.3635
17153TIP3   OH272873   0.418   2.590  17.130  0.0618  0.3245  0.2341
17153TIP3    H172874   0.495   2.567  17.182 -0.5486  1.6293  1.7808
17153TIP3    H272875   0.449   2.660  17.072  0.2924  0.1483  0.1424
17154TIP3   OH272876   3.599   2.508  13.032 -0.0414  0.9251  0.0988
17154TIP3    H172877   3.570   2.461  12.954  0.2766  1.9504 -0.6570
17154TIP3    H272878   3.690   2.481  13.044 -0.3603  0.0572  0.6775
17155TIP3   OH272879   5.672   6.185   2.912  0.5211  0.2867 -0.0980
17155TIP3    H172880   5.691   6.127   2.986  0.7364 -1.1244 -1.2325
17155TIP3    H272881   5.677   6.129   2.835 -1.0530  1.4178 -1.0927
17156TIP3   OH272882   2.062   1.441   0.027 -0.1269  0.0907  0.4348
17156TIP3    H172883   2.043   1.523  -0.019  1.0115 -0.3869 -0.9700
17156TIP3    H272884   1.976   1.401   0.040 -0.4960 -0.0496 -1.9127
17157TIP3   OH272885   0.725   2.185   1.217  0.5548 -0.0502  0.4423
17157TIP3    H172886   0.658   2.182   1.286 -0.5349 -2.4511 -0.5849
17157TIP3    H272887   0.675   2.185   1.135  1.7822 -1.2497 -0.3539
17158TIP3   OH272888   0.016   1.078  17.142  0.0057  0.0627 -0.4360
17158TIP3    H172889  -0.050   1.146  17.145 -0.2743 -0.1752 -0.9935
17158TIP3    H272890   0.011   1.035  17.227  0.6290  1.1407  0.1653
17159TIP3   OH272891   2.640   1.283  11.316 -0.4258  0.8462 -0.1934
17159TIP3    H172892   2.615   1.296  11.408  0.6741 -0.3123  0.3057
17159TIP3    H272893   2.560   1.251  11.274 -0.5640 -0.0570  0.7133
17160TIP3   OH272894   5.732   6.225   2.062  0.6655  0.0844 -0.1399
17160TIP3    H172895   5.688   6.306   2.037  1.8210  1.3028  1.6019
17160TIP3    H272896   5.755   6.185   1.978 -0.5756  1.1588 -1.0456
17161TIP3   OH272897   5.861   0.933  13.903 -0.1184 -0.4420  0.2707
17161TIP3    H172898   5.927   0.877  13.862 -0.0190  0.6386 -1.1515
17161TIP3    H272899   5.847   1.003  13.839 -1.9840 -0.1495  0.9353
17162TIP3   OH272900   3.259   3.464  14.593 -0.1727 -1.1428  0.2373
17162TIP3    H172901   3.281   3.488  14.503 -0.9789  2.5204  0.8350
17162TIP3    H272902   3.343   3.457  14.638  0.1693  0.3822 -0.1175
17163TIP3   OH272903   4.430   0.649   5.822  0.5250 -0.2815  0.8337
17163TIP3    H172904   4.394   0.736   5.806  1.2689  0.1379  1.3743
17163TIP3    H272905   4.444   0.646   5.917  0.8002 -0.8689  0.7776
17164TIP3   OH272906   1.937   5.247  13.793  0.2863  0.1605  0.3420
17164TIP3    H172907   1.968   5.163  13.826  1.4753  0.7237  0.7499
17164TIP3    H272908   1.842   5.238  13.786  0.5221 -1.6933 -1.0510
17165TIP3   OH272909   5.353   2.008  14.304  0.3826 -0.1342 -0.1903
17165TIP3    H172910   5.406   2.021  14.383 -1.0290 -0.6683  0.8829
17165TIP3    H272911   5.340   1.913  14.300  0.1408 -0.0762 -0.8794
17166TIP3   OH272912   6.036   5.235   5.788 -0.0222 -0.2484 -0.7946
17166TIP3    H172913   6.003   5.315   5.747 -0.1746  0.0462 -0.1133
17166TIP3    H272914   6.097   5.199   5.724 -0.3589  0.1243 -1.3385
17167TIP3   OH272915   0.450   6.019  11.603  0.2490 -0.1172  0.3466
17167TIP3    H172916   0.439   6.106  11.564  1.6601  0.3612  0.9481
17167TIP3    H272917   0.363   5.980  11.600 -0.2318  0.9796 -0.7289
17168TIP3   OH272918   5.620   0.919  13.232  0.5091 -0.3021  0.2067
17168TIP3    H172919   5.690   0.981  13.210 -1.1085  1.4920 -0.0989
17168TIP3    H272920   5.619   0.917  13.327 -0.2751  1.1853  0.2452
17169TIP3   OH272921   1.114   4.185  13.859 -0.1467 -0.2821 -0.2029
17169TIP3    H172922   1.151   4.185  13.947  1.0255 -0.7927 -0.6787
17169TIP3    H272923   1.024   4.216  13.871 -0.6356 -2.1356  1.4323
17170TIP3   OH272924   4.184   2.549  16.938 -0.2425  0.0109 -0.5378
17170TIP3    H172925   4.203   2.635  16.976 -0.6504 -0.1596  0.0642
17170TIP3    H272926   4.247   2.540  16.867  0.2899  0.5030 -0.1398
17171TIP3   OH272927   2.101   1.226  16.442 -0.0508  0.3592 -0.1511
17171TIP3    H172928   2.066   1.308  16.408 -0.3652  0.7066  0.9593
17171TIP3    H272929   2.027   1.185  16.487  0.5331  0.3244  0.8232
17172TIP3   OH272930   0.858   0.969  16.721  0.0894  0.3303 -0.5659
17172TIP3    H172931   0.793   1.037  16.702  1.3862  2.0623  0.9026
17172TIP3    H272932   0.942   1.010  16.706  0.9165 -1.1554 -0.2172
17173TIP3   OH272933   1.806   4.480   3.298  0.0382  0.0981  0.3575
17173TIP3    H172934   1.778   4.559   3.251  0.6516 -0.2535 -0.6324
17173TIP3    H272935   1.901   4.489   3.306  0.1158 -0.5278  0.2384
17174TIP3   OH272936   5.851   0.659   4.897  0.5105 -0.1631 -0.1041
17174TIP3    H172937   5.795   0.698   4.964  0.5858 -0.6286  0.2342
17174TIP3    H272938   5.897   0.734   4.858  1.1980  0.0278  1.0378
17175TIP3   OH272939   3.855   4.698   6.476 -0.2081 -0.1364  0.4184
17175TIP3    H172940   3.852   4.657   6.389 -1.2791  0.6858  0.0422
17175TIP3    H272941   3.793   4.647   6.528  0.7346 -0.8853  0.8410
17176TIP3   OH272942   6.466   6.391  14.482  0.0814 -0.1438  0.1475
17176TIP3    H172943   6.522   6.427  14.551  1.9928 -1.4389 -0.6286
17176TIP3    H272944   6.523   6.384  14.406 -0.7994 -2.5084 -0.3979
17177TIP3   OH272945   1.510   4.858  11.261 -0.3061  0.7614  0.3224
17177TIP3    H172946   1.470   4.939  11.292  0.7375  1.1177  0.7916
17177TIP3    H272947   1.549   4.881  11.176  1.0925  1.1343  1.0226
17178TIP3   OH272948   1.549   0.108   1.203  0.2880 -0.1921 -0.3438
17178TIP3    H172949   1.641   0.116   1.228 -0.2252 -0.5698  1.8752
17178TIP3    H272950   1.545   0.029   1.149  1.1542 -0.6060  0.1892
17179TIP3   OH272951   1.065   1.368  16.229  0.1441  0.4187 -0.9321
17179TIP3    H172952   1.032   1.279  16.216  2.0911 -0.0979 -3.1586
17179TIP3    H272953   1.156   1.364  16.200  0.6842  2.8876  0.1038
17180TIP3   OH272954   4.911   5.055  16.628 -0.4518 -0.4786  0.2783
17180TIP3    H172955   4.947   5.025  16.712  0.9446  0.5097  0.0635
17180TIP3    H272956   4.913   4.977  16.572  0.1494 -0.7470  0.6615
17181TIP3   OH272957   1.294   0.145   2.184 -0.6571  0.3347 -0.2119
17181TIP3    H172958   1.346   0.176   2.258 -1.0880  0.4424  0.0538
17181TIP3    H272959   1.239   0.075   2.222 -0.9991  0.5048 -0.3891
17182TIP3   OH272960   2.162   2.020   4.129  0.1851 -0.1584  0.0670
17182TIP3    H172961   2.168   2.086   4.061 -2.2664 -1.4256 -1.5163
17182TIP3    H272962   2.216   1.948   4.097 -2.2671 -1.4391 -1.5662
17183TIP3   OH272963   0.516   6.584   5.466 -0.3115 -0.2697  0.0343
17183TIP3    H172964   0.606   6.612   5.485 -0.9467  1.6679  0.4621
17183TIP3    H272965   0.507   6.500   5.512  1.0704 -0.1845  0.5175
17184TIP3   OH272966   5.424   6.524   4.977  0.4001  0.4204 -0.3028
17184TIP3    H172967   5.370   6.592   5.016  1.4061  1.4966 -0.7266
17184TIP3    H272968   5.462   6.477   5.052  0.3964  0.8969 -0.0022
17185TIP3   OH272969   4.413   3.638   3.231  0.0229  0.4101 -0.2093
17185TIP3    H172970   4.426   3.566   3.169  2.9086  0.8595 -0.2422
17185TIP3    H272971   4.486   3.632   3.292 -1.7532  1.0724  2.1588
17186TIP3   OH272972   3.339   3.137   0.481 -0.1981 -0.6450 -0.6111
17186TIP3    H172973   3.402   3.204   0.506 -3.0166  1.7219  0.7751
17186TIP3    H272974   3.323   3.088   0.562  0.4320 -1.8315 -1.1718
17187TIP3   OH272975   3.804   0.907   2.206  0.0691 -0.8394 -0.9868
17187TIP3    H172976   3.851   0.990   2.217 -3.0110  0.9687 -0.1633
17187TIP3    H272977   3.790   0.900   2.111 -1.3647  0.7440 -0.9506
17188TIP3   OH272978   1.500   4.096  11.849  0.0356  0.3756 -0.4030
17188TIP3    H172979   1.505   4.017  11.901  2.1668  1.2064  0.7685
17188TIP3    H272980   1.431   4.148  11.890 -0.2512 -0.1738 -0.1851
17189TIP3   OH272981   3.129   0.064  14.520 -0.4914  0.0061 -0.5668
17189TIP3    H172982   3.106   0.154  14.544  1.1462 -0.1051  1.6790
17189TIP3    H272983   3.161   0.025  14.600  1.0247 -1.8981 -2.0042
17190TIP3   OH272984   2.698   2.112   6.216  0.1801 -0.1500 -0.1583
17190TIP3    H172985   2.667   2.021   6.213 -0.2278 -0.0109 -0.2312
17190TIP3    H272986   2.648   2.152   6.287 -1.3247  0.6237 -1.5792
17191TIP3   OH272987   1.319   6.424   4.868  0.1992 -0.5881 -0.4672
17191TIP3    H172988   1.281   6.511   4.877 -1.2293 -1.1107 -1.1811
17191TIP3    H272989   1.273   6.371   4.933  1.2591 -0.7697  0.1596
17192TIP3   OH272990   1.050   3.069  11.026  0.6158 -0.2130  0.3463
17192TIP3    H172991   1.035   3.023  11.109 -1.1453 -0.8071 -0.2762
17192TIP3    H272992   1.132   3.117  11.041  0.3149 -0.2538  2.4463
17193TIP3   OH272993   4.685   4.369   4.387  0.6528  0.2333  0.5429
17193TIP3    H172994   4.778   4.361   4.408  0.6707 -0.6606  0.1766
17193TIP3    H272995   4.645   4.290   4.424  0.2612 -0.0436 -0.4312
17194TIP3   OH272996   1.838   6.298  13.590  0.1663 -0.3435 -0.1815
17194TIP3    H172997   1.884   6.216  13.571 -1.4519 -0.8157 -2.3896
17194TIP3    H272998   1.804   6.327  13.506 -3.1299  0.2489  1.2124
17195TIP3   OH272999   6.269   3.973   0.188  0.4685  0.1317  0.4231
17195TIP3    H173000   6.271   4.054   0.137  1.4313 -0.2187 -0.1187
17195TIP3    H273001   6.350   3.974   0.239 -0.0129 -0.0004  1.2069
17196TIP3   OH273002   2.805   5.421   5.275 -0.4175  0.0495 -0.9424
17196TIP3    H173003   2.711   5.438   5.283 -0.4961 -0.1160 -1.4446
17196TIP3    H273004   2.810   5.343   5.220  0.0361  0.4304 -1.4488
17197TIP3   OH273005   4.573   6.347  14.321  0.9036  0.8190  0.4726
17197TIP3    H173006   4.486   6.307  14.325  1.3041 -0.1606 -0.3120
17197TIP3    H273007   4.628   6.280  14.282  1.4820  2.3545 -1.4792
17198TIP3   OH273008   2.196   4.217  14.500 -0.2988  0.3853  0.2035
17198TIP3    H173009   2.108   4.185  14.479  0.5784 -2.1760  0.1054
17198TIP3    H273010   2.244   4.209  14.418  0.6995 -0.7676  0.8786
17199TIP3   OH273011   5.934   0.565   2.936  0.2121  0.4550 -0.0855
17199TIP3    H173012   5.922   0.644   2.883 -0.8426  0.8831  0.7394
17199TIP3    H273013   5.880   0.580   3.014 -0.0419 -1.0972  0.0798
17200TIP3   OH273014   0.465   1.757  13.183  0.1821  0.4383 -0.0229
17200TIP3    H173015   0.436   1.715  13.264  0.7426 -1.1170 -0.5973
17200TIP3    H273016   0.455   1.851  13.200 -1.0670  0.1036  1.3234
17201TIP3   OH273017   3.464   3.566   5.741 -0.8821  0.5253 -0.0081
17201TIP3    H173018   3.463   3.471   5.745 -0.5772  0.5034 -0.3221
17201TIP3    H273019   3.406   3.588   5.669  1.3341  0.4109 -1.9775
17202TIP3   OH273020   4.596   3.400   5.105  0.1167  0.6096  0.4556
17202TIP3    H173021   4.610   3.305   5.096 -0.7315  0.4660  0.6225
17202TIP3    H273022   4.672   3.430   5.155  0.8863  0.1808 -0.3959
17203TIP3   OH273023   4.321   5.554  10.649 -0.2866  0.2407 -0.1871
17203TIP3    H173024   4.342   5.525  10.560  0.8433 -1.5973  0.6231
17203TIP3    H273025   4.404   5.549  10.696 -1.4400 -2.1591  1.8144
17204TIP3   OH273026   5.595   0.781  10.654 -0.5863 -0.0808 -0.3061
17204TIP3    H173027   5.601   0.737  10.739  0.8671  0.2239 -0.2359
17204TIP3    H273028   5.606   0.711  10.590 -1.7070 -0.3148 -0.2633
17205TIP3   OH273029   5.496   3.257  10.630  0.3473 -0.4155 -0.3222
17205TIP3    H173030   5.547   3.178  10.615 -0.0533 -0.9900  1.1614
17205TIP3    H273031   5.408   3.236  10.599  0.2658 -0.5101 -0.0235
17206TIP3   OH273032   5.807   0.970   3.476 -0.1940  0.2423 -0.1006
17206TIP3    H173033   5.902   0.961   3.463 -0.2240  0.0161 -0.1729
17206TIP3    H273034   5.790   0.927   3.560 -0.6186 -2.2357 -1.3548
17207TIP3   OH273035   5.333   3.135   4.405 -0.4341  1.1415 -0.7251
17207TIP3    H173036   5.263   3.163   4.463  0.1433  3.1961 -0.9392
17207TIP3    H273037   5.405   3.112   4.463 -0.6839  0.7967 -0.5539
17208TIP3   OH273038   4.193   5.606  17.321 -0.0034 -0.2929  0.2190
17208TIP3    H173039   4.165   5.611  17.230  0.0062  1.1692  0.2716
17208TIP3    H273040   4.284   5.576  17.317  1.0247  2.5785 -0.5075
17209TIP3   OH273041   5.391   0.502  16.106  0.1894  0.4097  0.1181
17209TIP3    H173042   5.305   0.517  16.146 -0.2273 -0.5000 -0.4149
17209TIP3    H273043   5.413   0.412  16.130 -0.7539 -0.7267 -2.8773
17210TIP3   OH273044   6.461   1.916   4.366  0.4574  0.0048 -0.0450
17210TIP3    H173045   6.441   1.946   4.454  0.6880 -0.7703  0.2817
17210TIP3    H273046   6.549   1.951   4.348 -0.2992  1.6696 -0.6795
17211TIP3   OH273047   4.178   1.792   5.714  0.2189 -0.0008 -0.7093
17211TIP3    H173048   4.146   1.882   5.703 -0.7954 -0.4631 -1.7305
17211TIP3    H273049   4.271   1.797   5.692  0.4852  1.0362  0.5280
17212TIP3   OH273050   0.560   4.572  13.505  0.2223 -0.4328  0.5274
17212TIP3    H173051   0.593   4.538  13.589 -0.5028 -0.8776  0.6403
17212TIP3    H273052   0.523   4.495  13.461  2.1917 -0.5673 -1.0060
17213TIP3   OH273053   2.292   3.077   2.695  1.0511  0.0369 -0.4920
17213TIP3    H173054   2.233   3.008   2.664  1.9891 -0.5843 -0.9401
17213TIP3    H273055   2.257   3.102   2.781  2.2949 -2.9793  1.0169
17214TIP3   OH273056   6.003   0.767  12.441 -0.2960  0.5185 -0.2176
17214TIP3    H173057   6.064   0.712  12.490 -0.5453  0.3007 -0.1530
17214TIP3    H273058   5.932   0.784  12.502 -0.3788  0.6376 -0.3482
17215TIP3   OH273059   2.698   6.395  16.875  0.4892 -0.4643  0.3805
17215TIP3    H173060   2.679   6.473  16.928  1.5119  0.7980 -1.0294
17215TIP3    H273061   2.741   6.335  16.936 -2.0742 -0.7900  2.0016
17216TIP3   OH273062   1.601   2.869   4.424  0.5628 -0.1818 -0.3014
17216TIP3    H173063   1.609   2.964   4.427  0.5017 -0.2019  1.2196
17216TIP3    H273064   1.679   2.839   4.377  1.1301  0.5653  0.1440
17217TIP3   OH273065   2.271   1.233  13.622  0.2157  0.0413 -0.4635
17217TIP3    H173066   2.190   1.255  13.668  1.9313  0.5816  2.6454
17217TIP3    H273067   2.327   1.310  13.636  2.0333 -1.2312 -0.4714
17218TIP3   OH273068   4.611   2.437   5.867  0.4480  0.0097 -0.9099
17218TIP3    H173069   4.582   2.486   5.943  2.4324 -0.2880  0.1069
17218TIP3    H273070   4.616   2.346   5.897 -0.3948 -0.3893 -1.9186
17219TIP3   OH273071   4.114   2.535  13.907 -0.1056  0.5520 -0.4638
17219TIP3    H173072   4.122   2.480  13.828 -1.7907  0.4753 -0.6071
17219TIP3    H273073   4.166   2.613  13.887  0.0678  0.2217 -1.3615
17220TIP3   OH273074   0.187   5.801  12.101  0.7183 -0.1264  0.5955
17220TIP3    H173075   0.250   5.773  12.034  0.6395  1.2003 -0.0502
17220TIP3    H273076   0.102   5.770  12.069  0.9286 -1.4149  1.1899
17221TIP3   OH273077   5.420   5.767  13.710  0.2099  0.2367  0.1340
17221TIP3    H173078   5.418   5.859  13.683 -2.1202  0.6076  1.2971
17221TIP3    H273079   5.413   5.717  13.629  2.7761  0.9684 -0.6361
17222TIP3   OH273080   3.268   5.015   3.182 -0.1383 -0.3348  0.3641
17222TIP3    H173081   3.243   4.995   3.091 -0.2934  0.8840  0.1316
17222TIP3    H273082   3.190   5.056   3.219  0.2344 -0.0086  0.7856
17223TIP3   OH273083   2.456   0.716  11.323 -0.3467 -0.4102 -0.1721
17223TIP3    H173084   2.377   0.769  11.312  1.0190  1.9988  0.8548
17223TIP3    H273085   2.473   0.679  11.236 -2.5006 -0.9167 -0.4286
17224TIP3   OH273086   6.107   0.411   3.377 -0.1410 -0.9160  0.5393
17224TIP3    H173087   6.162   0.478   3.416 -0.1176 -1.0093  0.6676
17224TIP3    H273088   6.077   0.449   3.294 -2.4683  0.4334  1.8897
17225TIP3   OH273089   3.210   5.821  14.719  0.0801  0.0740  0.0572
17225TIP3    H173090   3.286   5.793  14.668 -0.6266 -1.9144  0.0157
17225TIP3    H273091   3.137   5.816  14.658 -0.3723  0.1010  0.5880
17226TIP3   OH273092   6.612   0.175  11.809  0.2247 -0.0744  0.1809
17226TIP3    H173093   6.553   0.112  11.848  0.2107  0.2633  0.7147
17226TIP3    H273094   6.683   0.122  11.772 -0.4824 -0.4864 -0.5987
17227TIP3   OH273095   0.962   4.278  16.413 -0.0015  0.8568 -0.7526
17227TIP3    H173096   0.872   4.282  16.444  0.5994  1.7478  1.0467
17227TIP3    H273097   0.983   4.368  16.387  0.4250  0.6969 -0.9725
17228TIP3   OH273098   2.256   3.898  13.836 -0.5584  0.1503 -0.4025
17228TIP3    H173099   2.279   3.989  13.816 -0.0592  0.0919 -0.1234
17228TIP3    H273100   2.216   3.902  13.923  0.8555 -0.0774  0.2805
17229TIP3   OH273101   0.295   6.637  11.518 -0.2046 -0.5551  0.0850
17229TIP3    H173102   0.328   6.590  11.441 -1.4267 -1.2559 -0.0392
17229TIP3    H273103   0.356   6.614  11.588  1.3335  0.6533 -0.8049
17230TIP3   OH273104   2.119   6.108   4.623 -0.4797 -0.9618  0.8619
17230TIP3    H173105   2.069   6.034   4.587  0.4027 -1.4672  0.6585
17230TIP3    H273106   2.177   6.135   4.552  0.2251 -1.0104  1.4077
17231TIP3   OH273107   6.003   3.141  15.973 -0.5849 -0.2367  0.9885
17231TIP3    H173108   5.930   3.080  15.978 -2.5757  2.0258  0.9419
17231TIP3    H273109   6.057   3.108  15.901 -2.0954 -1.3948  0.3384
17232TIP3   OH273110   1.100   3.387  16.241 -0.4249  0.1368  0.0805
17232TIP3    H173111   1.135   3.434  16.166 -2.0974  2.2900  0.5652
17232TIP3    H273112   1.006   3.405  16.239 -0.7688 -1.2135  1.6942
17233TIP3   OH273113   1.166   0.349   5.096  0.1118 -0.0947  0.2118
17233TIP3    H173114   1.164   0.412   5.024 -1.1640  0.1954  0.4761
17233TIP3    H273115   1.259   0.330   5.109  0.5025  1.4622 -0.1091
17234TIP3   OH273116   6.435   4.437   1.467  0.5495  0.3486 -0.1200
17234TIP3    H173117   6.346   4.404   1.480  0.4289  0.3886 -0.8015
17234TIP3    H273118   6.488   4.358   1.458  0.2701  0.3081 -1.6905
17235TIP3   OH273119   3.758   1.285  14.579 -0.0701  0.3491  0.1941
17235TIP3    H173120   3.669   1.249  14.574 -0.8470  1.8993  1.5382
17235TIP3    H273121   3.815   1.209  14.588 -1.0679 -0.7773 -2.3258
17236TIP3   OH273122   2.139   0.610   6.191 -0.1904 -0.4779  0.4112
17236TIP3    H173123   2.200   0.592   6.263  0.5727  0.5667  0.0546
17236TIP3    H273124   2.155   0.702   6.169 -0.4327 -0.7626 -1.0703
17237TIP3   OH273125   6.547   4.865   3.097  0.0952  0.2064  0.5519
17237TIP3    H173126   6.633   4.832   3.125 -0.5710 -0.3678  1.9749
17237TIP3    H273127   6.566   4.954   3.067  1.2792 -0.0982  0.3080
17238TIP3   OH273128   0.399   6.292   3.156  0.0126 -0.5335  0.4473
17238TIP3    H173129   0.460   6.352   3.199 -1.2906  1.2857 -0.1435
17238TIP3    H273130   0.449   6.255   3.083  1.2785 -1.3395  1.6568
17239TIP3   OH273131   0.625   5.359   3.969 -0.1015  0.1453 -0.1030
17239TIP3    H173132   0.592   5.274   3.939 -1.3447  0.4918  0.2108
17239TIP3    H273133   0.695   5.381   3.908 -1.4154  0.0330 -1.6911
17240TIP3   OH273134   6.095   0.664   3.970  0.0261 -0.2131  0.5168
17240TIP3    H173135   6.066   0.600   4.035 -1.6476  0.0606  0.0974
17240TIP3    H273136   6.085   0.619   3.886  0.0323  0.1840  0.3003
17241TIP3   OH273137   6.754   5.707  11.957 -0.0096 -0.0890  0.3701
17241TIP3    H173138   6.703   5.776  12.002  0.6796  0.5577  0.1842
17241TIP3    H273139   6.699   5.682  11.883  0.7558  2.0308 -1.0018
17242TIP3   OH273140   1.570   0.374  15.803  0.5673 -0.3037  0.2605
17242TIP3    H173141   1.507   0.327  15.748  0.4571 -1.7677  1.5552
17242TIP3    H273142   1.651   0.325  15.795  0.0664 -1.7394  2.7963
17243TIP3   OH273143   1.904   3.284   0.367  0.0112 -0.6228  0.5344
17243TIP3    H173144   1.906   3.264   0.273  0.2197 -0.5864  0.5318
17243TIP3    H273145   1.989   3.325   0.385  0.2046 -1.1638  0.8567
17244TIP3   OH273146   3.271   3.449  15.036 -0.0629  0.3370 -0.0153
17244TIP3    H173147   3.317   3.492  15.108 -1.7701  1.7062  0.3369
17244TIP3    H273148   3.340   3.416  14.979  1.3259  0.8158  1.3347
17245TIP3   OH273149   3.277   1.273  11.933  0.0027 -0.0396  0.4169
17245TIP3    H173150   3.276   1.178  11.944  2.3311  0.0214  2.0421
17245TIP3    H273151   3.195   1.293  11.888 -0.2506 -2.8585 -0.5941
17246TIP3   OH273152   3.515   6.723   2.028  0.2549  0.3407  0.1942
17246TIP3    H173153   3.537   6.814   2.006 -1.3003  0.9848  1.1528
17246TIP3    H273154   3.427   6.711   1.993  0.3545 -0.7433  0.2935
17247TIP3   OH273155   5.877   3.099   0.460  0.2434  0.0759  0.3689
17247TIP3    H173156   5.970   3.122   0.459  0.6612 -1.4707  0.9642
17247TIP3    H273157   5.876   3.003   0.450 -1.3596  0.2181 -1.3656
17248TIP3   OH273158   1.173   2.461  16.789 -0.2333  0.0497  0.4900
17248TIP3    H173159   1.105   2.528  16.780 -0.0981  0.3646  1.6912
17248TIP3    H273160   1.233   2.478  16.715 -1.2088  0.0420 -0.3189
17249TIP3   OH273161   4.495   3.890   5.284 -0.7666 -0.4173  0.1865
17249TIP3    H173162   4.473   3.971   5.239  0.7639 -0.0802 -0.0355
17249TIP3    H273163   4.570   3.913   5.340 -1.0521 -1.4022  1.0242
17250TIP3   OH273164   6.360   0.172  12.821  0.5263  0.2683  0.1712
17250TIP3    H173165   6.374   0.219  12.903 -1.1264 -1.2902  1.4195
17250TIP3    H273166   6.318   0.236  12.763 -2.6042  0.2246  2.1621
17251TIP3   OH273167   1.076   4.577   1.026 -0.4274  0.0743 -0.0315
17251TIP3    H173168   1.036   4.631   0.958  1.1291 -1.2986 -2.1391
17251TIP3    H273169   1.069   4.488   0.993 -0.6379 -0.7850  2.1780
17252TIP3   OH273170   2.625   4.203  16.620 -0.0286  0.1549 -0.1247
17252TIP3    H173171   2.654   4.123  16.577  0.3169 -0.1243  0.6159
17252TIP3    H273172   2.660   4.273  16.565 -0.0127 -0.1944 -0.5681
17253TIP3   OH273173   5.466   4.824  14.297 -0.2493  0.0644  0.1512
17253TIP3    H173174   5.501   4.894  14.352 -1.3316  0.6717  0.0913
17253TIP3    H273175   5.506   4.744  14.331  0.9768  0.6890  0.2437
17254TIP3   OH273176   4.108   3.331   1.853 -0.4546  0.3340 -0.7342
17254TIP3    H173177   4.188   3.378   1.828 -0.4327 -0.0692 -1.4709
17254TIP3    H273178   4.037   3.391   1.830 -0.3880  0.4051 -0.7552
17255TIP3   OH273179   3.627   3.144   2.656  0.4482  0.2152  0.4209
17255TIP3    H173180   3.586   3.085   2.719  2.0550 -0.3933  0.9425
17255TIP3    H273181   3.651   3.088   2.583 -1.0087  0.8446 -0.5918
17256TIP3   OH273182   1.538   0.408  17.064  0.3045 -0.0490  0.3031
17256TIP3    H173183   1.462   0.354  17.042 -1.1191  1.6137  0.8772
17256TIP3    H273184   1.613   0.360  17.028 -1.1406 -1.0415 -1.5806
17257TIP3   OH273185   6.722   6.475  15.815  0.2123  0.0179 -0.2008
17257TIP3    H173186   6.730   6.421  15.894 -0.6036 -1.2958 -0.9729
17257TIP3    H273187   6.645   6.440  15.770  1.1461  0.1788 -2.0083
17258TIP3   OH273188   3.656   4.118   4.890  0.1085  0.1587  0.0085
17258TIP3    H173189   3.733   4.134   4.945  0.1387 -0.7119  0.2352
17258TIP3    H273190   3.582   4.140   4.946 -0.0073 -3.3812  1.4805
17259TIP3   OH273191   3.674   2.436   4.737  0.1968 -0.0280  0.5623
17259TIP3    H173192   3.644   2.387   4.661 -0.9429  2.1519 -0.4818
17259TIP3    H273193   3.633   2.393   4.812 -1.0432 -0.4692 -0.3472
17260TIP3   OH273194   6.030   2.911  16.756 -0.1824 -0.7716  0.6013
17260TIP3    H173195   6.063   3.000  16.768  1.8113 -0.9568 -2.3219
17260TIP3    H273196   5.962   2.919  16.690  1.3940 -1.5423 -1.2090
17261TIP3   OH273197   1.790   4.717  14.298 -0.8499 -0.1642  0.1952
17261TIP3    H173198   1.731   4.767  14.355 -3.6963 -1.3412 -1.4977
17261TIP3    H273199   1.792   4.630  14.337  3.2639  0.6864  2.5432
17262TIP3   OH273200   3.880   3.935   4.346 -0.0062  0.0508  0.2537
17262TIP3    H173201   3.818   3.952   4.275  0.1203 -0.2504  0.0695
17262TIP3    H273202   3.837   3.869   4.400 -0.5695  1.0449  1.0618
17263TIP3   OH273203   4.809   3.574   4.195 -0.6696  0.1968 -0.2571
17263TIP3    H173204   4.872   3.560   4.266  0.8022  0.1571 -1.5320
17263TIP3    H273205   4.819   3.666   4.171 -1.1898  0.2191 -0.4146
17264TIP3   OH273206   3.431   4.007  15.502  0.1776  0.7131  0.0229
17264TIP3    H173207   3.513   3.993  15.551  0.1243  1.4644  0.3530
17264TIP3    H273208   3.408   3.921  15.468  0.7289  0.3539  0.5285
17265TIP3   OH273209   4.277   6.198   0.993  0.5113 -0.4840 -0.1941
17265TIP3    H173210   4.259   6.118   1.043 -1.4632 -0.0709 -0.1558
17265TIP3    H273211   4.305   6.167   0.907 -0.8123 -1.2393 -0.3736
17266TIP3   OH273212   5.199   5.713   0.280 -0.0945 -0.5470 -0.8849
17266TIP3    H173213   5.158   5.637   0.322 -1.1645  1.6209  2.4152
17266TIP3    H273214   5.229   5.767   0.354 -1.0816  3.1076 -2.9326
17267TIP3   OH273215   2.210   5.395  13.361 -0.0803 -0.3467 -0.3221
17267TIP3    H173216   2.156   5.317  13.362 -0.6650 -0.0309 -2.5827
17267TIP3    H273217   2.171   5.451  13.293  0.8926  1.4913  0.5516
17268TIP3   OH273218   2.060   3.955   0.320 -0.5741  0.0723  0.3386
17268TIP3    H173219   2.072   4.017   0.247  1.2984 -1.5313 -0.8152
17268TIP3    H273220   1.968   3.964   0.344 -0.7020  2.2686 -0.7161
17269TIP3   OH273221   5.325   2.700  14.373  0.0770  0.2597  1.0037
17269TIP3    H173222   5.272   2.659  14.304  2.0284 -1.1347  0.2336
17269TIP3    H273223   5.269   2.768  14.409 -1.7108 -0.2212 -0.6900
17270TIP3   OH273224   1.747   2.494   1.516  0.2721 -0.7396  0.1734
17270TIP3    H173225   1.832   2.497   1.473  0.7640 -1.9603  0.9952
17270TIP3    H273226   1.684   2.485   1.445  0.9224 -0.9060 -0.3905
17271TIP3   OH273227   4.270   1.584  12.285 -0.2340 -0.1047  0.3048
17271TIP3    H173228   4.264   1.630  12.201  0.3264 -0.2473  0.1802
17271TIP3    H273229   4.180   1.557  12.304 -0.4196  0.2232 -0.0845
17272TIP3   OH273230   1.096   3.615   3.678  0.0672 -0.2350  0.3389
17272TIP3    H173231   1.126   3.605   3.587 -2.3150  0.1800 -0.5550
17272TIP3    H273232   1.168   3.579   3.730  1.3449 -0.8667 -1.7146
17273TIP3   OH273233   6.535   1.395   5.197 -0.2796  0.7731  0.1446
17273TIP3    H173234   6.473   1.413   5.268 -1.1857  0.9799 -0.6724
17273TIP3    H273235   6.617   1.435   5.225 -1.0471  2.2188  0.3923
17274TIP3   OH273236   0.282   2.877   3.209 -0.1519 -0.2529 -0.5996
17274TIP3    H173237   0.231   2.905   3.285 -0.0127 -2.3925  0.3413
17274TIP3    H273238   0.320   2.793   3.235  1.2665 -0.2332 -2.4411
17275TIP3   OH273239   2.337   0.767  17.148 -0.0491 -0.4009  0.2031
17275TIP3    H173240   2.321   0.861  17.138 -0.5988 -0.5029  0.0400
17275TIP3    H273241   2.431   0.757  17.140 -0.0522  0.0528 -0.5223
17276TIP3   OH273242   1.199   6.097   0.812  0.2031  0.0375  0.2985
17276TIP3    H173243   1.206   6.004   0.793  0.6528  0.2143 -0.4714
17276TIP3    H273244   1.245   6.140   0.739  0.9955  0.8110  1.2128
17277TIP3   OH273245   1.084   3.392  13.609 -0.6647  0.1372 -0.3223
17277TIP3    H173246   1.086   3.440  13.526 -0.5605 -1.3488 -1.2184
17277TIP3    H273247   0.993   3.395  13.636 -0.5425  1.4063 -0.0013
17278TIP3   OH273248   4.549   6.546   0.337 -0.3012  0.2953  0.1529
17278TIP3    H173249   4.553   6.482   0.407  0.2967 -1.0330 -1.0478
17278TIP3    H273250   4.564   6.630   0.380 -2.7946 -0.1106  2.0219
17279TIP3   OH273251   0.606   0.284  14.837 -0.6607 -0.0717  0.4734
17279TIP3    H173252   0.671   0.318  14.898 -0.4635  1.0900 -0.3463
17279TIP3    H273253   0.601   0.190  14.856  0.1781  0.0869  1.5286
17280TIP3   OH273254   6.217   4.667   4.497  0.3081 -0.2567 -0.5143
17280TIP3    H173255   6.310   4.662   4.475  0.5677  0.3737  0.3902
17280TIP3    H273256   6.192   4.757   4.474  0.5201  0.3351  1.4258
17281TIP3   OH273257   5.016   0.066   3.036 -0.1415  0.4810 -0.2173
17281TIP3    H173258   5.051  -0.022   3.049  1.1647  0.9661 -0.2081
17281TIP3    H273259   5.024   0.082   2.942 -0.4557  0.5562 -0.2323
17282TIP3   OH273260   4.167   3.177  11.000 -0.4570 -0.1600 -0.8731
17282TIP3    H173261   4.180   3.145  11.090 -0.9349  1.3031 -0.2409
17282TIP3    H273262   4.255   3.183  10.964 -0.1031  0.7485  0.0747
17283TIP3   OH273263   4.227   6.108  12.947  0.2846 -0.6301 -0.2696
17283TIP3    H173264   4.182   6.126  13.030  1.9717 -0.8817  0.7551
17283TIP3    H273265   4.190   6.024  12.919  0.6474 -1.2335  0.9578
17284TIP3   OH273266   2.221   0.741   1.215  0.1257  0.3964 -0.5667
17284TIP3    H173267   2.307   0.777   1.234 -0.2536  2.6865 -2.7248
17284TIP3    H273268   2.173   0.749   1.297  0.9395  2.3302 -0.2207
17285TIP3   OH273269   2.022   6.028   3.214  0.1437 -0.2324 -0.0191
17285TIP3    H173270   2.044   5.935   3.224  0.2602 -0.1315  0.7543
17285TIP3    H273271   1.934   6.035   3.250 -0.8169 -0.4540 -2.2022
17286TIP3   OH273272   5.236   0.278   2.361 -0.2160  0.0614 -0.3758
17286TIP3    H173273   5.270   0.365   2.341 -0.5832  0.6847  1.5415
17286TIP3    H273274   5.294   0.244   2.430  0.5769 -1.6910 -1.8047
17287TIP3   OH273275   0.380   1.634  15.462 -0.0827  0.5638 -0.6167
17287TIP3    H173276   0.319   1.664  15.395 -0.5075 -0.6500 -0.8096
17287TIP3    H273277   0.434   1.568  15.417 -0.9695 -0.9350  0.4339
17288TIP3   OH273278   4.212   6.250  16.902 -0.4725 -0.3716 -0.2754
17288TIP3    H173279   4.262   6.313  16.953 -0.3001 -1.1565  0.5561
17288TIP3    H273280   4.138   6.299  16.867 -0.6674  0.1514  0.8425
17289TIP3   OH273281   5.892   4.914   3.627  0.5324  0.0532 -0.3726
17289TIP3    H173282   5.983   4.917   3.656  0.5311 -1.8166 -0.0388
17289TIP3    H273283   5.887   4.835   3.573 -0.9719 -0.0827 -0.0695
17290TIP3   OH273284   0.856   6.350  13.833 -0.4032 -0.5733 -0.9554
17290TIP3    H173285   0.777   6.326  13.882  1.0937 -2.8766  0.5636
17290TIP3    H273286   0.922   6.362  13.901  0.8537 -0.0122 -2.2542
17291TIP3   OH273287   0.478   1.794  14.225 -0.1113  0.1945 -0.1235
17291TIP3    H173288   0.536   1.782  14.150 -0.8933 -0.7898 -0.5955
17291TIP3    H273289   0.392   1.764  14.193 -0.8627  1.5056  0.5794
17292TIP3   OH273290   2.094   6.597   1.143 -0.7012  0.5546 -0.1636
17292TIP3    H173291   2.184   6.568   1.129 -1.0741  0.1639 -1.9200
17292TIP3    H273292   2.098   6.652   1.222  0.5267 -1.8608  1.5722
17293TIP3   OH273293   0.674   4.521  15.551 -0.1850  0.0750 -0.1228
17293TIP3    H173294   0.752   4.549  15.502  0.4527 -0.3575  0.6231
17293TIP3    H273295   0.657   4.432  15.520 -1.1225  0.5919 -1.1631
17294TIP3   OH273296   1.598   6.571  12.967 -0.2805 -0.1493  0.2953
17294TIP3    H173297   1.647   6.621  13.032 -0.4805  0.1189  0.2411
17294TIP3    H273298   1.557   6.638  12.912  0.4826 -0.3525 -0.5638
17295TIP3   OH273299   0.034   2.831  13.313  1.0894  0.2924 -0.1901
17295TIP3    H173300  -0.016   2.749  13.316  0.9256  0.3087 -1.7188
17295TIP3    H273301   0.066   2.842  13.402  1.5214 -1.6935 -0.0447
17296TIP3   OH273302   4.829   3.935  16.395  0.0744  0.4199 -0.0995
17296TIP3    H173303   4.892   3.995  16.355 -0.7021  0.8449 -0.7081
17296TIP3    H273304   4.801   3.980  16.475 -0.4292  0.8282 -0.5031
17297TIP3   OH273305   1.480   1.293  11.782  0.6412  0.2637  0.0287
17297TIP3    H173306   1.527   1.367  11.742  0.9474 -0.0661 -0.2283
17297TIP3    H273307   1.430   1.255  11.710  1.3587 -0.4636 -0.0963
17298TIP3   OH273308   4.649   0.706  16.923 -0.0061 -0.5271  0.4256
17298TIP3    H173309   4.597   0.771  16.971 -0.7896 -1.5470  1.0122
17298TIP3    H273310   4.585   0.640  16.896  0.5989 -0.5317 -1.1053
17299TIP3   OH273311   3.487   5.326   1.242  0.2440  0.3645  0.0322
17299TIP3    H173312   3.444   5.254   1.288 -0.3811  0.9867  0.4203
17299TIP3    H273313   3.543   5.367   1.308  1.3366 -0.3387 -0.4265
17300TIP3   OH273314   0.938   2.541   2.469  0.0898  0.3266  0.3594
17300TIP3    H173315   1.005   2.587   2.417 -1.3112  0.8704 -1.0348
17300TIP3    H273316   0.878   2.609   2.498  0.2203 -0.1288  1.7876
17301TIP3   OH273317   2.495   0.795   3.202 -0.4117 -0.0521  0.8148
17301TIP3    H173318   2.485   0.859   3.273 -1.7456 -0.9943  1.5240
17301TIP3    H273319   2.430   0.727   3.222 -0.4128 -0.6321 -0.9963
17302TIP3   OH273320   6.056   1.925   3.590  0.3314  0.2853 -0.0463
17302TIP3    H173321   6.037   2.018   3.581 -1.5823 -0.0762 -0.2357
17302TIP3    H273322   6.048   1.890   3.501  0.1909 -0.1869  0.1473
17303TIP3   OH273323   4.614   3.260  12.872  0.2037  0.2970 -0.4199
17303TIP3    H173324   4.532   3.293  12.908  0.5046  0.8153 -0.2023
17303TIP3    H273325   4.678   3.329  12.889  1.7528 -1.7678  3.3105
17304TIP3   OH273326   4.466   0.454  12.179 -0.8540 -0.1267  0.0544
17304TIP3    H173327   4.433   0.366  12.199 -2.8220  0.9977  2.1537
17304TIP3    H273328   4.517   0.478  12.256 -0.8650  0.8317 -0.2281
17305TIP3   OH273329   2.458   3.951  12.409 -0.0806  0.0386  0.3133
17305TIP3    H173330   2.444   4.016  12.478 -1.5243  1.6770 -1.4361
17305TIP3    H273331   2.374   3.906  12.402  0.2305 -0.4992 -0.0012
17306TIP3   OH273332   6.765   2.468  12.555  0.1428 -0.0487 -0.2561
17306TIP3    H173333   6.696   2.532  12.536 -0.3958 -0.2321  1.0024
17306TIP3    H273334   6.750   2.442  12.646  2.2624  0.3705  0.2658
17307TIP3   OH273335   1.062   4.717   5.026 -0.0085  0.1623 -0.2928
17307TIP3    H173336   1.060   4.716   4.930 -1.4717 -0.0673 -0.2913
17307TIP3    H273337   0.993   4.655   5.051 -0.1812  0.8128  0.8988
17308TIP3   OH273338   0.686   0.869   2.404 -0.2546  0.6265 -0.2343
17308TIP3    H173339   0.733   0.913   2.475 -0.8965  1.9967 -0.6295
17308TIP3    H273340   0.664   0.939   2.343 -1.9034 -0.1424 -0.5703
17309TIP3   OH273341   5.900   6.629   1.002  0.3838 -0.1911  0.2715
17309TIP3    H173342   5.853   6.617   0.920  0.1964  1.4406  0.1110
17309TIP3    H273343   5.908   6.541   1.038  0.4184 -0.9263 -1.4532
17310TIP3   OH273344   4.593   3.186   0.454 -0.2776 -0.3641  0.0675
17310TIP3    H173345   4.618   3.277   0.467  1.0431 -0.9417  2.0741
17310TIP3    H273346   4.674   3.136   0.467 -1.2824 -1.9215  0.7195
17311TIP3   OH273347   1.749   5.028   2.432 -0.3055 -0.1880  0.3848
17311TIP3    H173348   1.766   5.094   2.499 -0.0101 -0.6040  0.7322
17311TIP3    H273349   1.668   4.985   2.461 -0.6433  0.1870  0.0197
17312TIP3   OH273350   1.242   4.957   2.623 -0.7004 -0.2272 -0.3981
17312TIP3    H173351   1.185   5.000   2.559 -1.9461 -0.7574  0.3059
17312TIP3    H273352   1.226   4.863   2.609  0.7260 -0.4329 -0.8106
17313TIP3   OH273353   0.368   3.109   1.288  0.0152  0.0300 -0.0787
17313TIP3    H173354   0.313   3.093   1.365  0.9370  1.4041  0.9340
17313TIP3    H273355   0.443   3.158   1.323  1.5495 -1.1805 -1.4995
17314TIP3   OH273356   5.019   0.961  14.943 -0.4840 -0.1414 -0.1621
17314TIP3    H173357   5.111   0.940  14.956 -0.0513 -0.1243 -2.5962
17314TIP3    H273358   5.011   1.053  14.965  0.3395  0.1197 -0.9057
17315TIP3   OH273359   4.157   2.662  10.719 -0.1107 -0.2011  0.3855
17315TIP3    H173360   4.116   2.694  10.800 -1.1796 -0.0036 -0.2117
17315TIP3    H273361   4.143   2.733  10.656 -0.1481 -0.7480 -0.2329
17316TIP3   OH273362   2.529   3.974  12.930  1.2599 -0.1459  0.1918
17316TIP3    H173363   2.512   3.967  12.836  0.6045 -0.2350  0.3131
17316TIP3    H273364   2.505   4.064  12.952  1.1648 -0.2020  0.3197
17317TIP3   OH273365   3.583   0.339   5.600 -0.2631 -0.4062  0.6735
17317TIP3    H173366   3.551   0.267   5.655 -0.1264 -1.3845 -0.4974
17317TIP3    H273367   3.663   0.368   5.643 -0.4880 -0.7262  1.3266
17318TIP3   OH273368   3.023   0.690  11.050  0.9278  0.5003 -0.6455
17318TIP3    H173369   3.037   0.699  10.956  0.3540  0.6697 -0.7153
17318TIP3    H273370   2.935   0.654  11.058  1.2287 -0.1754 -0.1938
17319TIP3   OH273371   3.987   6.475  13.152  0.1711 -0.4438  0.1389
17319TIP3    H173372   3.972   6.552  13.097 -0.2538 -0.5907  0.0476
17319TIP3    H273373   4.082   6.470  13.160  0.2305 -0.3282 -0.4482
17320TIP3   OH273374   6.672   0.389  14.151  0.1155  0.8255 -0.6166
17320TIP3    H173375   6.747   0.332  14.134 -0.4194  0.3371 -1.3567
17320TIP3    H273376   6.642   0.416  14.065 -0.0530  1.6958 -0.2940
17321TIP3   OH273377   1.510   2.873   2.050 -0.3617  0.2342 -0.5159
17321TIP3    H173378   1.485   2.902   1.962  0.3639  1.6174 -0.2943
17321TIP3    H273379   1.562   2.945   2.085  0.1908 -0.7138  0.6862
17322TIP3   OH273380   6.472   0.546  12.279 -0.1714 -0.2565 -0.8320
17322TIP3    H173381   6.519   0.500  12.209  1.3717  2.4208 -1.7218
17322TIP3    H273382   6.539   0.563  12.345 -0.2681  1.9588 -1.2385
17323TIP3   OH273383   4.698   0.547   2.134 -0.2957 -0.2923  0.2040
17323TIP3    H173384   4.756   0.491   2.186  0.4445  0.8465  0.6361
17323TIP3    H273385   4.649   0.486   2.078  0.0879 -1.4015  1.0527
17324TIP3   OH273386   3.441   2.319   3.362  0.6577  0.0139 -0.1896
17324TIP3    H173387   3.374   2.317   3.294 -0.6680 -1.0531  1.0843
17324TIP3    H273388   3.469   2.410   3.366  0.3076  0.2124 -1.7083
17325TIP3   OH273389   2.468   6.564  11.508  0.3166 -0.1761 -0.3552
17325TIP3    H173390   2.473   6.602  11.420  1.2132 -1.3823 -0.8631
17325TIP3    H273391   2.505   6.476  11.498  0.9873 -0.1332  1.3585
17326TIP3   OH273392   5.892   4.546  12.300 -0.5587 -0.3263 -0.0063
17326TIP3    H173393   5.869   4.619  12.357  0.5115 -0.3284  0.4693
17326TIP3    H273394   5.885   4.469  12.357 -0.0137 -0.3914 -0.0190
17327TIP3   OH273395   1.966   1.135  12.114  0.3632 -0.6477 -0.3048
17327TIP3    H173396   1.913   1.123  12.035 -1.1663  0.4412  0.4994
17327TIP3    H273397   1.966   1.229  12.130  1.1124 -0.7945  0.6924
17328TIP3   OH273398   3.353   1.117   3.700 -0.7779 -0.0514 -0.0726
17328TIP3    H173399   3.418   1.047   3.692  0.1422  0.6114  1.2294
17328TIP3    H273400   3.292   1.084   3.767  0.2640  0.7927  1.3448
17329TIP3   OH273401   5.937   6.361   4.985 -0.4764  0.2061 -0.4303
17329TIP3    H173402   5.883   6.320   4.917  0.1678 -0.4926 -0.5362
17329TIP3    H273403   5.977   6.287   5.031 -0.0293  0.7043 -0.0055
17330TIP3   OH273404   4.618   1.207   2.356 -0.1393 -0.0382 -0.0300
17330TIP3    H173405   4.620   1.217   2.261 -0.9026  1.1225  0.0551
17330TIP3    H273406   4.563   1.130   2.372 -0.1224 -0.1522 -0.5191
17331TIP3   OH273407   6.715   3.499   1.444 -0.1668 -0.4274  0.7246
17331TIP3    H173408   6.800   3.458   1.430  1.1518  1.9461  1.2363
17331TIP3    H273409   6.712   3.516   1.538 -1.0501 -0.1203  0.6484
17332TIP3   OH273410   1.002   5.155   4.457  0.9232 -0.9449 -0.8115
17332TIP3    H173411   0.976   5.158   4.365 -0.1560 -0.6131 -0.5138
17332TIP3    H273412   1.049   5.237   4.472 -0.9949  0.1769 -0.5104
17333TIP3   OH273413   4.082   5.375  14.497 -0.2614  0.1739 -0.0303
17333TIP3    H173414   4.176   5.391  14.490 -0.3259  0.8672  0.5886
17333TIP3    H273415   4.045   5.419  14.420 -0.0015 -0.8972 -0.7872
17334TIP3   OH273416   4.432   2.336   0.218  0.6053  1.0061 -0.4949
17334TIP3    H173417   4.436   2.425   0.254 -0.8700  0.9339 -0.0731
17334TIP3    H273418   4.355   2.338   0.160  0.4175 -0.0540 -0.3030
17335TIP3   OH273419   1.641   6.614   1.817  0.3976  0.4069  0.2813
17335TIP3    H173420   1.597   6.548   1.763  0.5696  0.4611  0.0744
17335TIP3    H273421   1.635   6.579   1.906 -1.8052  1.3405  0.5770
17336TIP3   OH273422   0.657   1.856  10.850  0.0586 -0.1840 -0.1029
17336TIP3    H173423   0.583   1.913  10.830 -0.2542 -0.9738 -1.3454
17336TIP3    H273424   0.734   1.910  10.838 -0.2454  0.0715 -0.9530
17337TIP3   OH273425   2.168   3.695   4.100  0.6190 -0.3805  0.8209
17337TIP3    H173426   2.130   3.612   4.069 -0.2915 -0.1747  1.3528
17337TIP3    H273427   2.256   3.672   4.127  0.8996 -0.8806 -0.4310
17338TIP3   OH273428   5.008   3.398   4.010 -0.0632  0.0118 -0.5968
17338TIP3    H173429   5.054   3.345   4.075  1.0909  2.8819  1.1224
17338TIP3    H273430   5.066   3.473   3.994 -1.8941  1.1761 -2.3010
17339TIP3   OH273431   0.219   5.199  12.867 -0.0989 -0.3134 -0.3104
17339TIP3    H173432   0.210   5.111  12.832  1.4998 -0.1872 -1.1148
17339TIP3    H273433   0.241   5.185  12.960  0.5201 -0.7961 -0.5162
17340TIP3   OH273434   0.762   3.472  16.850 -0.7315  0.0031 -0.3524
17340TIP3    H173435   0.812   3.517  16.782 -1.1062 -1.2247 -1.4915
17340TIP3    H273436   0.720   3.542  16.900  0.0838  0.9544 -0.9726
17341TIP3   OH273437   4.374   4.927  11.744 -0.6157 -0.0818 -0.1985
17341TIP3    H173438   4.410   4.949  11.830 -0.4908 -1.8518  0.2519
17341TIP3    H273439   4.282   4.907  11.761 -0.4580 -0.9829 -0.3621
17342TIP3   OH273440   4.885   3.046   1.287  0.5285  0.2028 -0.9728
17342TIP3    H173441   4.976   3.036   1.316  0.2554 -0.1743 -0.2405
17342TIP3    H273442   4.864   2.962   1.246 -0.2044 -0.5509  0.8694
17343TIP3   OH273443   4.899   0.373  15.511  0.5619  0.6525 -0.2483
17343TIP3    H173444   4.924   0.293  15.466  0.6706  1.6189 -2.0161
17343TIP3    H273445   4.865   0.344  15.596 -0.1955 -1.3133 -1.1664
17344TIP3   OH273446   5.235   1.260   0.561  0.0372 -0.5259 -0.2267
17344TIP3    H173447   5.211   1.318   0.488  0.7132 -2.0949 -1.7506
17344TIP3    H273448   5.159   1.263   0.620 -0.2653  1.2696 -0.6360
17345TIP3   OH273449   0.045   1.978   0.647 -0.0322 -0.1820 -0.6061
17345TIP3    H173450   0.068   1.941   0.732 -1.4773 -1.8151 -0.8889
17345TIP3    H273451   0.088   2.064   0.646  2.8256 -1.4944  0.3629
17346TIP3   OH273452   2.936   2.332   4.901  0.0464 -0.5837  0.1906
17346TIP3    H173453   2.980   2.305   4.821 -1.1442 -1.0089 -0.3429
17346TIP3    H273454   2.913   2.249   4.944  1.3541 -0.3697  1.3834
17347TIP3   OH273455   2.271   5.967   1.536 -0.5848  0.0171  0.0498
17347TIP3    H173456   2.310   5.926   1.613 -1.2582  1.0969  0.9938
17347TIP3    H273457   2.230   5.894   1.489 -1.9536 -0.4133  1.8125
17348TIP3   OH273458   3.597   4.427   5.809  0.0266 -0.5452 -0.2791
17348TIP3    H173459   3.554   4.342   5.798  0.1212 -0.5559 -0.5686
17348TIP3    H273460   3.691   4.408   5.804  0.0406 -0.3626 -0.8281
17349TIP3   OH273461   6.570   1.915   2.581 -0.1472 -0.1115  0.0359
17349TIP3    H173462   6.657   1.877   2.589  0.5811  1.4909  0.1030
17349TIP3    H273463   6.533   1.910   2.669 -1.4393 -3.6405 -0.5606
17350TIP3   OH273464   3.874   1.423  14.803  0.2954  0.3221  0.0818
17350TIP3    H173465   3.832   1.449  14.721  1.0259 -1.1359 -0.7894
17350TIP3    H273466   3.819   1.461  14.872 -1.2698  0.1657 -1.0459
17351TIP3   OH273467   2.274   3.268  11.080  0.3967  0.1395  0.4556
17351TIP3    H173468   2.358   3.304  11.050  0.4806  0.3175  0.8968
17351TIP3    H273469   2.225   3.252  11.000  0.2486  1.5079  0.2560
17352TIP3   OH273470   4.888   2.164   1.984 -0.2441  0.2794 -0.2872
17352TIP3    H173471   4.820   2.112   1.940 -0.0830 -0.3075  0.1379
17352TIP3    H273472   4.953   2.180   1.915  0.3969 -1.3178 -0.1173
17353TIP3   OH273473   5.742   5.694   2.007  0.2588  0.2245 -0.6943
17353TIP3    H173474   5.730   5.637   1.931  2.2041  0.0524 -0.9262
17353TIP3    H273475   5.837   5.705   2.013  0.1930 -0.1081  1.9753
17354TIP3   OH273476   2.961   0.471  14.090  0.1994  0.5505 -0.2607
17354TIP3    H173477   3.035   0.439  14.141 -0.6424  0.5085  0.9662
17354TIP3    H273478   2.963   0.419  14.009  0.1913 -1.0062  0.7147
17355TIP3   OH273479   6.428   4.748  10.641 -0.0663 -0.1365 -0.3221
17355TIP3    H173480   6.514   4.747  10.598 -0.2770  0.7859 -0.7836
17355TIP3    H273481   6.373   4.695  10.583 -0.0007 -0.0881 -0.4305
17356TIP3   OH273482   4.942   0.196  13.409 -0.0609  0.0876 -1.4644
17356TIP3    H173483   5.020   0.190  13.464 -1.2174 -1.7557  0.0980
17356TIP3    H273484   4.944   0.116  13.356 -0.6402  0.2803 -1.7887
17357TIP3   OH273485   2.475   5.408   4.482 -0.2523 -0.2718  0.4978
17357TIP3    H173486   2.450   5.316   4.496  0.1709 -0.5088 -0.2843
17357TIP3    H273487   2.560   5.416   4.525  0.0007 -0.4096  0.0234
17358TIP3   OH273488   4.527   1.976  14.496  0.3843 -0.1560  0.2770
17358TIP3    H173489   4.517   1.886  14.527  0.6812 -1.1583 -2.2746
17358TIP3    H273490   4.445   2.019  14.520  0.2718 -1.0416  1.6325
17359TIP3   OH273491   6.362   5.095  13.433 -1.1503  0.1875 -0.1260
17359TIP3    H173492   6.353   5.095  13.337  0.7805 -0.0651 -0.3500
17359TIP3    H273493   6.283   5.052  13.464 -1.7399  0.1140 -1.6208
17360TIP3   OH273494   6.483   2.195   0.193  0.0774 -0.3473  0.1800
17360TIP3    H173495   6.395   2.224   0.217  0.4877  0.6482  0.5488
17360TIP3    H273496   6.496   2.230   0.104  0.5802  0.6394  0.6312
17361TIP3   OH273497   0.650   4.037   5.585 -0.4270 -0.2521  0.3652
17361TIP3    H173498   0.706   4.114   5.596  0.5947 -0.9663  0.3057
17361TIP3    H273499   0.561   4.071   5.593  0.0143  0.8678  0.7430
17362TIP3   OH273500   3.603   4.727  12.476  0.1299  0.2399 -0.2468
17362TIP3    H173501   3.625   4.692  12.562 -0.1421 -1.2883 -0.7690
17362TIP3    H273502   3.596   4.650  12.420 -0.4307  1.1504 -1.4714
17363TIP3   OH273503   6.480   2.126  11.643  0.7023  0.6108 -0.0459
17363TIP3    H173504   6.519   2.074  11.713  0.8983  1.2722  0.3528
17363TIP3    H273505   6.486   2.071  11.566 -0.2398 -0.4586  0.6081
17364TIP3   OH273506   2.197   4.076   3.208  0.3533  0.0116  0.2089
17364TIP3    H173507   2.253   4.035   3.275  1.0610 -0.1221 -0.4427
17364TIP3    H273508   2.235   4.163   3.195  0.2841 -0.0003 -0.0841
17365TIP3   OH273509   6.206   6.340   2.801  0.0408 -0.0372  0.6392
17365TIP3    H173510   6.162   6.316   2.719  0.6472 -0.7105  0.5027
17365TIP3    H273511   6.229   6.432   2.790  0.7153 -0.2951 -0.2320
17366TIP3   OH273512   3.908   5.507  15.825  0.2146 -0.0665 -0.3814
17366TIP3    H173513   3.830   5.492  15.878  1.7950 -0.5856  1.9515
17366TIP3    H273514   3.882   5.480  15.737 -1.0366 -4.5972  1.0587
17367TIP3   OH273515   6.376   1.064   5.946 -0.1416  0.3154  0.3599
17367TIP3    H173516   6.401   1.064   6.039  1.1509 -1.4102  0.0664
17367TIP3    H273517   6.368   0.972   5.923 -0.9362  0.7223 -1.1478
17368TIP3   OH273518   2.329   6.499   2.355 -0.5574  0.1835  0.4860
17368TIP3    H173519   2.286   6.517   2.438  0.0255  0.7180  0.6835
17368TIP3    H273520   2.285   6.556   2.292  0.4713  1.4476  0.8731
17369TIP3   OH273521   6.555   3.247  16.877  0.1725  0.6855  0.5827
17369TIP3    H173522   6.553   3.161  16.917  0.4290  0.7047  0.6392
17369TIP3    H273523   6.616   3.238  16.803  0.3844  0.8749  0.7306
17370TIP3   OH273524   5.620   6.166   4.104  0.0759 -0.1840  0.5666
17370TIP3    H173525   5.662   6.210   4.030  0.2804  0.6740  1.1800
17370TIP3    H273526   5.573   6.236   4.149 -1.1010 -0.9258  0.5329
17371TIP3   OH273527   4.386   6.180   0.094 -0.0562  0.2928 -0.3282
17371TIP3    H173528   4.351   6.140   0.015 -1.3148 -0.2228  0.4489
17371TIP3    H273529   4.364   6.118   0.164  0.7565  0.8719  0.4589
17372TIP3   OH273530   3.288   2.309   5.579 -0.0896  0.5667 -0.3188
17372TIP3    H173531   3.336   2.389   5.600  0.0175  0.5290 -0.4198
17372TIP3    H273532   3.265   2.318   5.487 -2.9536  2.0016  0.4206
17373TIP3   OH273533   0.878   1.566   6.222 -0.5747 -0.0403 -0.4389
17373TIP3    H173534   0.898   1.636   6.161 -1.7532  0.3467 -0.4117
17373TIP3    H273535   0.806   1.517   6.181 -1.8068  0.5915  0.8617
17374TIP3   OH273536   0.234   0.147  12.566 -0.1352  0.4252 -0.2521
17374TIP3    H173537   0.208   0.111  12.650  1.1653  1.5029  0.6497
17374TIP3    H273538   0.241   0.071  12.508 -0.2547 -0.4276  0.8281
17375TIP3   OH273539   2.473   5.902  16.969  0.0103 -0.1666  0.0276
17375TIP3    H173540   2.513   5.938  16.890  0.0523  0.4986  0.3467
17375TIP3    H273541   2.385   5.876  16.943 -0.6291  1.7091  0.1671
17376TIP3   OH273542   5.759   4.594  16.250 -0.2169 -0.0410 -0.9281
17376TIP3    H173543   5.689   4.621  16.190 -0.1518  1.5807 -0.3358
17376TIP3    H273544   5.731   4.627  16.336 -0.0511 -1.8539 -0.1390
17377TIP3   OH273545   2.371   4.098   0.452  0.4550  0.1488 -0.4535
17377TIP3    H173546   2.292   4.149   0.432  0.3805  1.1610  2.1528
17377TIP3    H273547   2.343   4.007   0.439 -0.8999  0.5198 -0.3668
17378TIP3   OH273548   2.090   6.393   2.238 -0.2921  0.3153 -0.0865
17378TIP3    H173549   2.115   6.481   2.267 -0.8521  0.6901 -0.7334
17378TIP3    H273550   2.169   6.341   2.252 -0.0308  0.8586  0.5422
17379TIP3   OH273551   3.757   5.987   5.878  0.4823  0.2523  0.3430
17379TIP3    H173552   3.663   5.994   5.898  0.5795  0.3563  0.7838
17379TIP3    H273553   3.792   6.073   5.899  0.4208  0.7048 -1.3003
17380TIP3   OH273554   4.890   5.140  15.484  0.4371  0.2733 -0.0330
17380TIP3    H173555   4.853   5.081  15.549 -0.2749 -0.0672 -0.7477
17380TIP3    H273556   4.912   5.219  15.535 -1.0865  0.4225  0.4535
17381TIP3   OH273557   5.484   3.317   0.018 -0.0237  0.2251 -0.6747
17381TIP3    H173558   5.539   3.320   0.096  0.4542  0.8769 -1.0244
17381TIP3    H273559   5.525   3.379  -0.043  0.9220 -1.8825 -2.2995
17382TIP3   OH273560   3.170   3.941  17.159  0.3450  0.7056 -0.3743
17382TIP3    H173561   3.112   3.922  17.085 -1.4577  3.7018  0.1107
17382TIP3    H273562   3.124   3.904  17.235  0.6124  0.4241 -0.3464
17383TIP3   OH273563   0.405   0.458   2.137  0.0300  0.2808  0.3002
17383TIP3    H173564   0.454   0.378   2.158 -0.0946  0.0093 -0.4258
17383TIP3    H273565   0.453   0.527   2.182  0.4631 -0.1284  0.4834
17384TIP3   OH273566   6.037   3.323  12.898 -0.3854 -0.1121 -0.1833
17384TIP3    H173567   5.947   3.296  12.880 -0.2592 -0.3411 -0.4884
17384TIP3    H273568   6.044   3.411  12.861 -0.4384 -0.1606 -0.3102
17385TIP3   OH273569   6.519   6.500  16.051 -0.4006  0.3779 -0.3730
17385TIP3    H173570   6.521   6.463  15.963 -1.1329 -0.2214 -0.1481
17385TIP3    H273571   6.428   6.494  16.078 -0.9749  3.9972 -0.9628
17386TIP3   OH273572   2.003   0.716   5.028 -0.2866  0.7109 -0.2417
17386TIP3    H173573   1.938   0.672   5.082  1.5122 -1.6030  0.2072
17386TIP3    H273574   2.069   0.746   5.091  1.1461 -0.7691 -0.9804
17387TIP3   OH273575   5.950   3.340  10.939 -0.3623 -0.5726  0.2578
17387TIP3    H173576   6.030   3.386  10.965 -0.0361 -1.4146  0.7611
17387TIP3    H273577   5.972   3.298  10.856 -0.3514 -0.6251  0.2873
17388TIP3   OH273578   4.932   0.972   0.110 -0.2182  0.2659 -0.0552
17388TIP3    H173579   5.015   0.951   0.152 -0.8050 -1.3297  0.3805
17388TIP3    H273580   4.944   1.060   0.076  1.0970  0.7045  1.4108
17389TIP3   OH273581   3.563   3.417   1.355  0.4156  0.1510  0.1169
17389TIP3    H173582   3.497   3.356   1.321 -0.1420  1.3984 -1.1118
17389TIP3    H273583   3.646   3.369   1.348  0.3093  0.2499 -2.8685
17390TIP3   OH273584   5.632   2.208   1.529  0.1459  0.4236  0.6282
17390TIP3    H173585   5.609   2.286   1.479 -1.9101  0.0380  0.8632
17390TIP3    H273586   5.721   2.224   1.559  0.4577  1.8303 -0.8962
17391TIP3   OH273587   3.812   4.454  14.956 -0.0133  0.1351  0.2035
17391TIP3    H173588   3.815   4.492  14.868  0.9116 -0.8538 -0.2172
17391TIP3    H273589   3.725   4.476  14.989 -0.9937 -0.8697 -1.5815
17392TIP3   OH273590   6.009   5.511   1.626 -0.5060  0.5739  0.0966
17392TIP3    H173591   5.925   5.542   1.593 -1.0598  0.8392  1.6638
17392TIP3    H273592   6.004   5.525   1.721  0.2244 -1.8917  0.5734
17393TIP3   OH273593   4.973   2.593  14.740  0.4022 -0.4576  0.2566
17393TIP3    H173594   4.910   2.599  14.668  1.3317 -0.8445 -0.6032
17393TIP3    H273595   5.055   2.626  14.704  0.7538 -0.1369  1.3075
17394TIP3   OH273596   2.721   3.667  16.569 -0.5268 -0.3981 -0.3821
17394TIP3    H173597   2.628   3.689  16.572 -0.2984  0.8884 -1.3565
17394TIP3    H273598   2.739   3.654  16.476  0.2099 -0.9596 -0.1689
17395TIP3   OH273599   1.279   4.184   6.552 -0.7644  0.3014  0.6012
17395TIP3    H173600   1.354   4.205   6.608 -2.0783  2.1094  1.8138
17395TIP3    H273601   1.314   4.188   6.463  0.4701  1.7236  1.1107
17396TIP3   OH273602   3.095   4.891  12.100  0.0362  0.0934 -0.0323
17396TIP3    H173603   3.063   4.874  12.011  3.2497 -1.2935 -1.0574
17396TIP3    H273604   3.098   4.805  12.141  2.1060  0.1538  0.0469
17397TIP3   OH273605   3.920   6.295  12.795 -0.2180  1.2358  0.3580
17397TIP3    H173606   3.861   6.360  12.757 -0.9688  0.8789  0.8932
17397TIP3    H273607   3.890   6.212  12.759 -1.0948  0.8637  1.8816
17398TIP3   OH273608   3.317   3.488   4.870  0.5060  0.6056 -0.2709
17398TIP3    H173609   3.236   3.528   4.903  0.4342 -0.9019  1.5278
17398TIP3    H273610   3.290   3.443   4.791 -0.1614  1.0841 -0.3308
17399TIP3   OH273611   2.476   3.327   3.661 -0.4789 -0.6445 -0.1591
17399TIP3    H173612   2.412   3.263   3.634 -1.3514  0.5358 -0.9674
17399TIP3    H273613   2.537   3.278   3.717 -1.0450 -2.1701 -0.8348
17400TIP3   OH273614   5.356   5.827   0.105  0.2246  0.0119 -0.1313
17400TIP3    H173615   5.451   5.815   0.115  0.3736  1.9290  1.4180
17400TIP3    H273616   5.319   5.791   0.185 -0.2881 -0.0893 -0.4147
17401TIP3   OH273617   0.173   5.925   4.847 -0.3244 -0.5214 -0.6362
17401TIP3    H173618   0.151   5.915   4.754  2.2061  0.7293 -1.4397
17401TIP3    H273619   0.210   5.840   4.872 -0.0348 -0.5182 -1.0580
17402TIP3   OH273620   4.297   5.055  15.004  0.1595 -0.0145 -0.2494
17402TIP3    H173621   4.213   5.059  14.959  0.5602  1.2429 -0.9224
17402TIP3    H273622   4.297   5.132  15.062  1.5453  1.0316 -1.5633
17403TIP3   OH273623   4.086   1.193  11.976 -0.3798 -0.1889  0.4821
17403TIP3    H173624   4.084   1.262  12.042 -3.2102  1.3584 -1.0180
17403TIP3    H273625   4.076   1.112  12.026 -1.6129  0.8591  2.0348
17404TIP3   OH273626   0.723   5.459  10.553 -0.6812 -0.2731 -0.2164
17404TIP3    H173627   0.780   5.402  10.602 -0.3678 -0.2890 -0.5933
17404TIP3    H273628   0.655   5.401  10.518 -1.7461 -0.0464  1.3909
17405TIP3   OH273629   5.160   4.401  17.179  0.1469  0.5722 -0.2399
17405TIP3    H173630   5.166   4.497  17.186  0.9822  0.5694 -0.8824
17405TIP3    H273631   5.066   4.383  17.184 -0.0648  1.4764 -0.7831
17406TIP3   OH273632   4.322   2.552   3.663  0.7120  0.1318  0.8865
17406TIP3    H173633   4.395   2.603   3.699 -0.1596  2.1048 -0.0143
17406TIP3    H273634   4.247   2.611   3.666 -1.0181 -1.9412  2.1109
17407TIP3   OH273635   3.533   1.271  16.612  0.5079 -0.0509  0.8241
17407TIP3    H173636   3.481   1.318  16.676 -0.3172 -0.1156  0.2148
17407TIP3    H273637   3.605   1.232  16.662  0.8659  1.3369  1.4352
17408TIP3   OH273638   6.359   0.412   1.505  0.5417  0.0856  0.3589
17408TIP3    H173639   6.293   0.472   1.538  1.3675  1.6137 -0.6511
17408TIP3    H273640   6.333   0.326   1.539 -1.2238  0.8430  1.0174
17409TIP3   OH273641   1.656   3.607   6.279 -0.5431  0.3487 -0.2688
17409TIP3    H173642   1.633   3.692   6.315  0.1306  0.3590  0.1603
17409TIP3    H273643   1.736   3.582   6.326  1.7814  1.4116 -3.2999
17410TIP3   OH273644   4.760   4.388  14.076  0.0539  0.0993  0.1784
17410TIP3    H173645   4.696   4.440  14.027  0.6601 -1.4232 -2.4487
17410TIP3    H273646   4.732   4.297  14.062  1.4576 -0.4782  0.9855
17411TIP3   OH273647   2.034   0.370   2.328 -0.1806  0.3062  0.4770
17411TIP3    H173648   2.044   0.461   2.301  1.4126  0.1016  0.2920
17411TIP3    H273649   2.100   0.357   2.396  0.2991 -0.9684 -0.1835
17412TIP3   OH273650   1.121   0.477  14.627 -0.1746 -0.0139  0.2519
17412TIP3    H173651   1.191   0.538  14.605 -0.5663  0.1220 -0.6673
17412TIP3    H273652   1.112   0.422  14.549  0.2970 -1.3847  1.1288
17413TIP3   OH273653   5.036   4.960   0.443 -0.2877 -0.0707  0.7160
17413TIP3    H173654   4.975   4.886   0.446  0.3547 -0.6107  0.7380
17413TIP3    H273655   5.090   4.944   0.366 -0.6660  0.8107  0.2554
17414TIP3   OH273656   1.239   4.251  13.462 -0.3567  0.8747  0.3735
17414TIP3    H173657   1.318   4.197  13.464  1.1932  2.9894 -0.2381
17414TIP3    H273658   1.186   4.213  13.392  1.8945  1.5996 -1.9148
17415TIP3   OH273659   6.103   4.364  17.109 -0.1838 -0.5407  0.5541
17415TIP3    H173660   6.089   4.430  17.177 -2.5936  0.1713 -0.5269
17415TIP3    H273661   6.163   4.406  17.047 -0.5825  0.0931  0.5903
17416TIP3   OH273662   3.613   1.192   5.741 -0.4210  0.0647 -0.3103
17416TIP3    H173663   3.541   1.172   5.681 -1.3759  1.2895  0.3822
17416TIP3    H273664   3.588   1.150   5.823  1.0928 -1.9762 -0.8262
17417TIP3   OH273665   2.418   3.654  14.868  0.4782 -0.5808  0.0479
17417TIP3    H173666   2.433   3.598  14.792 -0.7737  2.0913 -2.3892
17417TIP3    H273667   2.341   3.616  14.911  0.1159 -1.1679 -1.0763
17418TIP3   OH273668   4.602   4.066   2.894 -0.5309 -0.1549  0.6965
17418TIP3    H173669   4.538   4.102   2.956 -1.1102  0.0633 -0.0151
17418TIP3    H273670   4.569   3.978   2.874  0.1178 -0.5600  1.3416
17419TIP3   OH273671   4.372   1.098   5.647 -0.4193 -0.1386  0.9502
17419TIP3    H173672   4.382   1.031   5.579  1.0535  1.0203 -0.0197
17419TIP3    H273673   4.347   1.049   5.725  2.4002 -2.1082  0.7677
17420TIP3   OH273674   6.160   5.347  15.329 -0.3492  0.1671 -0.9105
17420TIP3    H173675   6.073   5.365  15.293 -0.1645 -0.8077 -1.9015
17420TIP3    H273676   6.221   5.381  15.263  0.0586  1.2401 -0.0267
17421TIP3   OH273677   3.466   6.320   5.728 -0.5227 -0.2437 -0.5622
17421TIP3    H173678   3.517   6.240   5.713  0.5743  0.3383 -0.0460
17421TIP3    H273679   3.398   6.293   5.789  0.0839 -0.7016 -0.0741
17422TIP3   OH273680   2.674   2.125   4.806 -0.0329  0.6183  0.5226
17422TIP3    H173681   2.596   2.115   4.862  0.7791 -0.9838  1.4501
17422TIP3    H273682   2.644   2.179   4.733 -1.8926  0.4466  1.0930
17423TIP3   OH273683   5.981   1.659   5.622 -0.0066  0.0867  0.7449
17423TIP3    H173684   6.013   1.603   5.692  0.7332  0.6128  0.8359
17423TIP3    H273685   5.907   1.611   5.584  1.9421 -2.0144 -0.6489
17424TIP3   OH273686   5.971   4.812   2.915 -0.0440  0.4458 -0.3856
17424TIP3    H173687   5.992   4.740   2.974 -1.8356 -0.8209 -1.1729
17424TIP3    H273688   6.050   4.826   2.863 -0.1181 -2.1168 -1.3208
17425TIP3   OH273689   0.331   0.958  16.498  0.7604 -0.2366 -0.1626
17425TIP3    H173690   0.335   0.880  16.554  0.0910 -0.4576 -0.4182
17425TIP3    H273691   0.357   0.927  16.411 -0.5715 -0.4133 -0.5075
17426TIP3   OH273692   4.378   6.630   5.315  0.1382 -0.4420 -0.6435
17426TIP3    H173693   4.381   6.535   5.327  1.2635 -0.5811 -1.7488
17426TIP3    H273694   4.414   6.667   5.396 -1.4874 -0.8765  0.3161
17427TIP3   OH273695   2.451   1.868  16.005  0.4067  0.2441 -0.3899
17427TIP3    H173696   2.518   1.868  15.938 -1.9618  1.3288 -2.9604
17427TIP3    H273697   2.429   1.776  16.017 -0.9203  0.0924 -3.1954
17428TIP3   OH273698   1.032   4.358   2.148 -0.7352  0.2987  0.0956
17428TIP3    H173699   0.956   4.313   2.183 -0.0920 -0.6591  0.2849
17428TIP3    H273700   1.096   4.289   2.131 -0.2132  0.9871 -0.8664
17429TIP3   OH273701   3.553   2.484   1.179  0.1958 -0.1184 -0.0364
17429TIP3    H173702   3.609   2.443   1.244  1.0398  0.5070 -0.3466
17429TIP3    H273703   3.531   2.570   1.216  1.9683  0.8983 -1.2022
17430TIP3   OH273704   3.266   6.511  14.549  0.2640  0.0971 -0.1027
17430TIP3    H173705   3.275   6.549  14.636 -2.1076  0.4388  0.0781
17430TIP3    H273706   3.285   6.582  14.489 -0.4279  0.5356  0.1863
17431TIP3   OH273707   6.677   3.856  11.154 -0.2662  0.2798  0.4149
17431TIP3    H173708   6.696   3.767  11.185  0.1525  0.6164  1.1353
17431TIP3    H273709   6.591   3.848  11.110  0.3806 -0.7431 -0.7335
17432TIP3   OH273710   1.834   6.508  14.112  0.2717 -0.1271 -0.2300
17432TIP3    H173711   1.852   6.602  14.118 -1.7567  0.3528 -0.9059
17432TIP3    H273712   1.813   6.494  14.019  0.1059 -1.1619 -0.0461
17433TIP3   OH273713   4.094   6.228  13.973  0.2389 -0.1508  0.1830
17433TIP3    H173714   4.144   6.181  14.040  0.3430 -0.0411  0.1809
17433TIP3    H273715   4.122   6.190  13.890  0.0215 -0.3708  0.2103
17434TIP3   OH273716   1.306   5.141   1.119 -0.5196 -0.3348 -0.4863
17434TIP3    H173717   1.233   5.202   1.124 -1.6779 -1.6423 -0.8576
17434TIP3    H273718   1.306   5.096   1.203  1.0091  0.8516  0.2157
17435TIP3   OH273719   0.511   5.225   5.790 -0.0958 -0.1335 -0.2515
17435TIP3    H173720   0.530   5.132   5.801 -0.0581 -0.2383 -1.1566
17435TIP3    H273721   0.545   5.266   5.869  0.3356 -0.8267 -0.0714
17436TIP3   OH273722   3.452   3.174  17.274 -0.4391  0.3900 -0.1729
17436TIP3    H173723   3.439   3.237  17.203 -1.6853  1.6146  1.0739
17436TIP3    H273724   3.467   3.228  17.351  1.6138 -0.9200  0.4094
17437TIP3   OH273725   1.283   1.154   2.292 -0.4370 -0.4185  0.3531
17437TIP3    H173726   1.358   1.211   2.310  0.4543 -0.8479 -1.7004
17437TIP3    H273727   1.322   1.066   2.283 -1.4774 -0.9920  1.2279
17438TIP3   OH273728   4.963   4.760   0.940  0.2711 -0.1544 -0.0167
17438TIP3    H173729   5.022   4.834   0.927 -0.4875  0.0481 -3.2907
17438TIP3    H273730   4.974   4.736   1.032  2.4749  2.3359  0.4948
17439TIP3   OH273731   1.980   3.904   1.718  0.4554  0.0053 -0.1204
17439TIP3    H173732   2.055   3.947   1.679 -0.7185  1.2291 -1.1148
17439TIP3    H273733   1.962   3.955   1.798  1.1644 -0.8021  0.5757
17440TIP3   OH273734   1.558   6.384  15.206  0.3343 -0.0010  0.6044
17440TIP3    H173735   1.511   6.302  15.218 -0.3800  0.0552 -1.3724
17440TIP3    H273736   1.524   6.442  15.275 -2.2714 -0.0886 -0.4954
17441TIP3   OH273737   0.434   1.668   5.788 -0.4404 -0.0672 -0.2176
17441TIP3    H173738   0.344   1.657   5.756 -0.2260  0.8309 -1.1690
17441TIP3    H273739   0.424   1.673   5.884 -1.1961 -1.7469 -0.1857
17442TIP3   OH273740   1.122   6.075  15.102 -0.7214  0.1605 -0.1931
17442TIP3    H173741   1.154   6.114  15.020  0.2944 -1.0585 -0.4058
17442TIP3    H273742   1.053   6.134  15.131 -1.2224  0.5370 -2.0179
17443TIP3   OH273743   0.492   2.387   3.019 -0.0243 -0.1954 -0.3184
17443TIP3    H173744   0.477   2.476   2.988 -0.4913 -0.1153  0.1384
17443TIP3    H273745   0.420   2.369   3.078 -0.2181 -1.0687 -0.8036
17444TIP3   OH273746   0.813   5.267   4.627 -0.2131 -0.5743  0.1152
17444TIP3    H173747   0.863   5.222   4.559  0.1516 -0.6556  0.4316
17444TIP3    H273748   0.876   5.328   4.665 -0.9480  0.9436 -0.9702
17445TIP3   OH273749   5.335   5.594  15.761 -0.4292 -0.2968 -0.2867
17445TIP3    H173750   5.363   5.563  15.675  0.4916 -0.3566  0.0218
17445TIP3    H273751   5.413   5.588  15.816 -1.4357 -2.1581  1.1042
17446TIP3   OH273752   5.951   4.514  13.213  0.4713 -0.1048 -0.0564
17446TIP3    H173753   5.869   4.540  13.256  1.7581  3.7658  0.5172
17446TIP3    H273754   5.996   4.461  13.277 -0.7394 -0.6080  0.4066
17447TIP3   OH273755   2.502   4.663  13.834 -0.2883  0.3456 -0.2789
17447TIP3    H173756   2.411   4.661  13.861 -0.6779  0.1556 -1.5527
17447TIP3    H273757   2.551   4.670  13.916 -1.4331  0.4099  0.4217
17448TIP3   OH273758   3.182   6.414   2.214 -0.0080 -0.0640  0.0777
17448TIP3    H173759   3.220   6.491   2.171 -1.1912  1.0461  0.9444
17448TIP3    H273760   3.257   6.372   2.257  0.7701  0.2106 -0.9642
17449TIP3   OH273761   0.318   0.251   1.580 -0.2549  0.2635  0.0370
17449TIP3    H173762   0.249   0.296   1.532 -1.7746 -2.1991 -0.2782
17449TIP3    H273763   0.314   0.161   1.549  1.7954 -0.4077  1.4876
17450TIP3   OH273764   3.650   2.960   0.859 -0.3319 -0.1724  0.2939
17450TIP3    H173765   3.672   2.867   0.848  1.0957  0.2307 -0.5706
17450TIP3    H273766   3.564   2.969   0.818 -0.4572 -1.0865  0.3235
17451TIP3   OH273767   0.995   5.881  14.396 -0.1168  0.9578  0.2445
17451TIP3    H173768   0.999   5.800  14.344  2.7910  0.2247  1.4489
17451TIP3    H273769   0.988   5.951  14.330 -1.1318 -0.1489 -0.8775
17452TIP3   OH273770   0.563   1.895  10.500  0.1774  0.1938 -0.6870
17452TIP3    H173771   0.484   1.894  10.555 -0.2789 -0.8233 -1.3262
17452TIP3    H273772   0.553   1.819  10.443  2.0765 -0.5180 -0.1513
17453TIP3   OH273773   3.782   5.820   3.866 -0.1318 -0.2819 -0.0574
17453TIP3    H173774   3.762   5.761   3.793 -1.4319 -0.1246  0.1308
17453TIP3    H273775   3.755   5.772   3.944  2.0834 -0.8027  0.4440
17454TIP3   OH273776   5.714   5.778   2.878  0.3133  0.3278 -0.1515
17454TIP3    H173777   5.745   5.701   2.925  0.9519  1.9249  2.2490
17454TIP3    H273778   5.787   5.803   2.821  0.0378 -0.8767 -1.0745
17455TIP3   OH273779   4.917   0.764   2.800 -0.2487 -0.0235 -0.0359
17455TIP3    H173780   5.009   0.737   2.809 -0.0295  1.0382  1.1326
17455TIP3    H273781   4.882   0.761   2.889 -1.1333  0.3272 -0.3585
17456TIP3   OH273782   2.986   4.425  16.176  0.1850  0.3643  0.5654
17456TIP3    H173783   2.934   4.388  16.105  0.6043 -0.1698  0.5280
17456TIP3    H273784   3.067   4.374  16.175  1.5169  2.3303 -0.5773
17457TIP3   OH273785   3.284   4.719  14.141 -0.1139 -0.2103 -0.6372
17457TIP3    H173786   3.361   4.744  14.090 -0.9255 -0.9484 -2.3084
17457TIP3    H273787   3.217   4.783  14.117  0.5567  1.9672  2.6847
17458TIP3   OH273788   3.924   6.189  11.694  0.1193 -0.5333  0.7754
17458TIP3    H173789   3.933   6.259  11.760  0.4795  0.5068 -0.3407
17458TIP3    H273790   3.857   6.221  11.634  1.0323 -0.6512 -0.3360
17459TIP3   OH273791   5.842   3.332  13.320 -0.6408 -0.0142  0.6374
17459TIP3    H173792   5.769   3.271  13.322 -1.1863  0.6167  0.3004
17459TIP3    H273793   5.919   3.278  13.339 -0.8307 -1.2496 -1.7337
17460TIP3   OH273794   4.856   4.186   1.291  0.2601  0.0173 -0.0414
17460TIP3    H173795   4.840   4.269   1.245 -2.8995 -0.8009 -0.6720
17460TIP3    H273796   4.950   4.186   1.308  0.7215  2.7514 -1.8732
17461TIP3   OH273797   4.321   4.504   5.837  0.0951 -0.2713  0.0110
17461TIP3    H173798   4.414   4.483   5.839 -0.1230 -1.5407 -1.3905
17461TIP3    H273799   4.297   4.518   5.928  1.2157 -2.0715  0.6258
17462TIP3   OH273800   4.445   5.264   3.681  0.5689 -0.4892 -0.0120
17462TIP3    H173801   4.444   5.313   3.599  1.1965 -1.7083 -0.7691
17462TIP3    H273802   4.537   5.264   3.707  0.4293 -0.4463  0.4901
17463TIP3   OH273803   0.487   3.971   3.797  0.4203  0.5300  0.7202
17463TIP3    H173804   0.486   3.902   3.864 -1.1124  2.6020  3.0262
17463TIP3    H273805   0.420   3.944   3.734  0.4789 -0.5103  1.0828
17464TIP3   OH273806   5.898   1.482   4.606  0.0096  0.0408 -0.8374
17464TIP3    H173807   5.821   1.482   4.550 -0.9025  1.1787  0.3403
17464TIP3    H273808   5.892   1.564   4.655  2.1913  0.3548 -0.9837
17465TIP3   OH273809   4.587   5.258  15.802 -0.2943  0.0070 -0.0253
17465TIP3    H173810   4.622   5.251  15.891 -0.9024  1.5142  0.3658
17465TIP3    H273811   4.499   5.223  15.808 -0.4859  0.4901  0.0864
17466TIP3   OH273812   0.745   5.969   2.236 -0.1040 -0.0436 -0.5517
17466TIP3    H173813   0.659   5.933   2.255  0.1500 -0.8631 -0.9213
17466TIP3    H273814   0.728   6.043   2.177 -0.5614 -0.1345 -0.5331
17467TIP3   OH273815   6.493   3.003   2.529 -0.0030 -0.2100  0.4146
17467TIP3    H173816   6.416   2.949   2.513 -0.2200  0.1407  0.2702
17467TIP3    H273817   6.476   3.084   2.481  1.4759 -0.9915 -1.5529
17468TIP3   OH273818   1.822   6.228  14.196  0.3094 -0.3839  0.1016
17468TIP3    H173819   1.849   6.192  14.112  2.7079 -2.9195  1.7661
17468TIP3    H273820   1.814   6.322  14.180 -0.4266 -0.8742 -3.1437
17469TIP3   OH273821   3.390   0.491   1.520 -0.3626  0.2345 -0.0306
17469TIP3    H173822   3.335   0.520   1.448 -0.3989 -1.0431 -0.5393
17469TIP3    H273823   3.468   0.456   1.478 -0.3582 -0.4704  0.5556
17470TIP3   OH273824   3.104   6.669   0.755  0.4444  0.2902  0.3291
17470TIP3    H173825   3.126   6.584   0.716  0.4404  1.3683 -2.2300
17470TIP3    H273826   3.009   6.676   0.744  0.5269  0.8688 -0.1017
17471TIP3   OH273827   0.511   6.470  17.226 -0.2655 -0.1315 -0.9055
17471TIP3    H173828   0.544   6.540  17.170  0.7824  0.8020  0.8245
17471TIP3    H273829   0.416   6.471  17.212 -0.0834  0.3598 -2.2911
17472TIP3   OH273830   5.762   2.819   5.230 -0.5120 -0.5282 -0.8034
17472TIP3    H173831   5.811   2.749   5.273  1.4242  1.7124  0.9657
17472TIP3    H273832   5.676   2.817   5.272  0.3190 -0.3951  1.0124
17473TIP3   OH273833   0.284   4.057  11.610  0.2538 -0.5300  0.4741
17473TIP3    H173834   0.247   4.092  11.691 -0.0306 -0.0100  0.1268
17473TIP3    H273835   0.314   4.133  11.562 -0.1203 -0.7758 -0.1716
17474TIP3   OH273836   6.612   5.402   1.428 -0.2473  0.4565 -0.8499
17474TIP3    H173837   6.533   5.452   1.446 -1.2912 -1.0112 -1.2318
17474TIP3    H273838   6.655   5.449   1.357 -1.0089  1.0179 -0.9425
17475TIP3   OH273839   1.620   5.978   4.656  0.2371  0.7879 -0.2370
17475TIP3    H173840   1.545   6.033   4.631  1.0487  1.2168 -1.8693
17475TIP3    H273841   1.675   6.036   4.709  0.2196  0.9866 -0.4352
17476TIP3   OH273842   5.594   1.319  11.366  0.3556 -0.2455  0.1654
17476TIP3    H173843   5.657   1.297  11.297  0.0590 -1.0973  0.1500
17476TIP3    H273844   5.510   1.325  11.322 -0.3829 -3.6988  0.7645
17477TIP3   OH273845   4.000   5.833   5.553 -0.6891 -0.4354 -0.3641
17477TIP3    H173846   4.017   5.852   5.646 -0.9300 -2.0129  0.0323
17477TIP3    H273847   3.992   5.738   5.550 -0.8975 -0.3800 -1.9861
17478TIP3   OH273848   2.452   1.598  11.867 -0.4185 -0.1309 -0.4248
17478TIP3    H173849   2.534   1.549  11.863 -0.0112  0.3563  1.2983
17478TIP3    H273850   2.455   1.656  11.791  0.9611  0.0728 -0.2319
17479TIP3   OH273851   5.294   4.068   1.056 -0.1511  0.1189  0.0684
17479TIP3    H173852   5.285   4.140   0.994 -0.3005  0.0352 -0.0086
17479TIP3    H273853   5.299   3.990   1.001  3.1605  0.2737 -0.0431
17480TIP3   OH273854   2.696   3.395  12.435 -0.1309 -0.4290  0.0178
17480TIP3    H173855   2.777   3.350  12.413  0.7186  0.3001  1.5063
17480TIP3    H273856   2.712   3.432  12.522 -1.8168  0.3069  0.0515
17481TIP3   OH273857   6.411   5.723  13.008 -0.0587  0.5894 -0.2527
17481TIP3    H173858   6.370   5.637  13.015 -1.9452  1.2679 -1.9767
17481TIP3    H273859   6.428   5.735  12.915  0.8123  1.8180  0.0304
17482TIP3   OH273860   1.020   1.326  13.584 -0.4839  0.0981 -0.4615
17482TIP3    H173861   0.971   1.337  13.665  0.8497 -1.1376  0.5784
17482TIP3    H273862   0.978   1.252  13.540 -0.4420 -0.0528 -0.2524
17483TIP3   OH273863   5.945   3.467  12.512  0.1552  0.2783 -0.4081
17483TIP3    H173864   5.934   3.557  12.542  2.4083  0.5915 -0.3306
17483TIP3    H273865   5.880   3.417  12.561 -2.7001  2.0953 -2.0506
17484TIP3   OH273866   3.849   0.407   5.727  0.1234  0.5177  0.8060
17484TIP3    H173867   3.893   0.328   5.760 -2.2274 -0.3075  2.2379
17484TIP3    H273868   3.878   0.414   5.636 -0.3144 -2.5962  0.3100
17485TIP3   OH273869   6.091   5.707   1.215  0.2423  0.5181 -0.1228
17485TIP3    H173870   6.153   5.687   1.145 -2.8403  0.3582 -3.1058
17485TIP3    H273871   6.114   5.796   1.243  1.3088  0.7917 -1.7253
17486TIP3   OH273872   1.298   4.642  15.433 -0.4443  0.4082 -0.4876
17486TIP3    H173873   1.308   4.733  15.462  2.3890  0.2087 -0.5675
17486TIP3    H273874   1.258   4.648  15.347 -0.6054  1.5622 -0.3439
17487TIP3   OH273875   2.868   3.221   0.545  0.1354  0.0313  0.1365
17487TIP3    H173876   2.789   3.199   0.594 -0.5794  0.0062 -0.9922
17487TIP3    H273877   2.840   3.225   0.454  1.8156 -1.9211 -0.5504
17488TIP3   OH273878   4.401   3.712   2.571 -0.8609  0.6366 -0.5655
17488TIP3    H173879   4.416   3.802   2.543  0.5471  0.7815  0.5351
17488TIP3    H273880   4.484   3.667   2.554 -1.0776 -0.0952  0.2111
17489TIP3   OH273881   2.342   3.818  11.848 -0.3695 -0.1745 -0.1298
17489TIP3    H173882   2.382   3.874  11.915  1.5224 -1.0647 -0.4336
17489TIP3    H273883   2.403   3.744  11.840 -1.0602 -0.5890 -2.1314
17490TIP3   OH273884   3.389   1.823   0.252  0.0049 -0.2033 -0.1583
17490TIP3    H173885   3.470   1.776   0.233 -0.8005 -1.5665 -0.3529
17490TIP3    H273886   3.387   1.893   0.187  1.0872 -0.0516 -0.0537
17491TIP3   OH273887   6.250   1.507  11.900 -0.1671  0.0939  0.7310
17491TIP3    H173888   6.324   1.525  11.959 -0.4281 -0.9272  1.3922
17491TIP3    H273889   6.203   1.435  11.941  0.0962 -1.2104 -1.1176
17492TIP3   OH273890   5.193   1.166   1.717  0.2805 -0.1976  0.0717
17492TIP3    H173891   5.116   1.116   1.691  0.6736 -2.8817  3.4789
17492TIP3    H273892   5.264   1.128   1.666 -0.0954 -0.0237 -0.5989
17493TIP3   OH273893   5.968   2.549   2.386  0.2685 -0.0560 -0.1793
17493TIP3    H173894   6.040   2.540   2.448 -0.3560 -0.3867  0.5051
17493TIP3    H273895   6.008   2.533   2.300  0.8554 -1.0109  0.2632
17494TIP3   OH273896   5.637   5.658  12.653 -0.0137  0.1918 -0.3858
17494TIP3    H173897   5.647   5.564  12.637  0.3273  0.1866 -0.1678
17494TIP3    H273898   5.603   5.693  12.571 -0.1369 -0.1217 -0.4707
17495TIP3   OH273899   4.441   1.802   5.655  0.4583  0.5359 -0.1488
17495TIP3    H173900   4.504   1.766   5.593  0.3781 -0.7040  0.4457
17495TIP3    H273901   4.494   1.851   5.718  0.5273  1.8935 -1.2317
17496TIP3   OH273902   6.626   5.454   6.080  0.0259  0.2119  0.4635
17496TIP3    H173903   6.600   5.362   6.071 -1.0669  0.5288  0.1562
17496TIP3    H273904   6.622   5.488   5.990  0.1555  0.6303  0.6168
17497TIP3   OH273905   6.365   3.543  17.226  0.1020  0.3311 -0.3226
17497TIP3    H173906   6.428   3.561  17.296 -0.1239  2.0299 -0.5259
17497TIP3    H273907   6.367   3.447  17.217  1.1433  0.1833  1.0529
17498TIP3   OH273908   6.706   0.694  15.135  0.1352 -0.2179  0.0121
17498TIP3    H173909   6.797   0.667  15.150  0.4247  1.4024  1.4846
17498TIP3    H273910   6.710   0.790  15.134 -1.3941 -0.1364 -1.1985
17499TIP3   OH273911   3.887   5.743   3.350 -0.4933 -0.1584  0.3777
17499TIP3    H173912   3.949   5.813   3.374  0.4318  0.0777 -2.3858
17499TIP3    H273913   3.923   5.664   3.391  0.3155  0.3961  0.7709
17500TIP3   OH273914   4.932   6.002   4.269 -0.2872 -0.2159  0.4540
17500TIP3    H173915   4.936   6.085   4.317  0.3866 -0.9691  1.7511
17500TIP3    H273916   4.961   6.024   4.181  0.5507  0.8153  0.9604
17501TIP3   OH273917   2.139   6.140   1.778 -0.2583  0.4021 -0.0804
17501TIP3    H173918   2.100   6.160   1.863  0.9908 -0.0801  0.6454
17501TIP3    H273919   2.100   6.056   1.753 -3.4573  2.2716 -1.8347
17502TIP3   OH273920   5.061   1.528   1.104  0.0038  0.2988 -0.0303
17502TIP3    H173921   5.015   1.585   1.166 -0.2575  1.4173 -1.1946
17502TIP3    H273922   4.998   1.460   1.083 -0.4615  0.7681 -0.1911
17503TIP3   OH273923   2.512   5.704   4.405 -0.4048  0.9649 -0.0395
17503TIP3    H173924   2.595   5.691   4.359 -0.0821  2.8349 -0.0349
17503TIP3    H273925   2.492   5.618   4.443  0.6077  0.0271 -1.5142
17504TIP3   OH273926   1.521   5.015   1.022 -0.1308 -0.1217  0.5947
17504TIP3    H173927   1.471   4.939   0.992 -1.3144  1.6130 -2.2331
17504TIP3    H273928   1.454   5.076   1.055  0.6483  0.3625  1.3230
17505TIP3   OH273929   1.478   3.828   2.380 -0.1554  0.5161 -0.6009
17505TIP3    H173930   1.535   3.752   2.394  0.1774  0.8134 -0.3167
17505TIP3    H273931   1.396   3.804   2.423 -0.0100  0.3669 -0.4048
17506TIP3   OH273932   3.524   0.374  15.935 -0.0213  0.4332  0.4187
17506TIP3    H173933   3.523   0.313  16.008  2.9195  0.5649  0.6816
17506TIP3    H273934   3.574   0.450  15.967  0.8388  0.7493 -1.4924
17507TIP3   OH273935   2.494   2.581   4.070 -0.7363 -0.0395  0.2184
17507TIP3    H173936   2.541   2.664   4.061 -1.9384  0.4503 -2.8220
17507TIP3    H273937   2.556   2.522   4.114  2.4444  0.7980 -2.7700
17508TIP3   OH273938   6.317   2.544   1.068 -0.0821 -0.1165  0.1734
17508TIP3    H173939   6.371   2.592   1.131  0.6951  1.7285 -1.7622
17508TIP3    H273940   6.329   2.452   1.091  3.2385  0.2617  0.4099
17509TIP3   OH273941   6.320   6.333  10.882 -0.7834 -0.6065  0.4466
17509TIP3    H173942   6.243   6.282  10.855  0.9001 -3.2984  0.4286
17509TIP3    H273943   6.385   6.268  10.907  1.9492  1.5141 -0.6370
17510TIP3   OH273944   2.652   4.783   6.055 -0.3961  0.0281 -0.3650
17510TIP3    H173945   2.584   4.756   6.117 -0.1403 -1.4923 -0.7008
17510TIP3    H273946   2.733   4.779   6.105 -0.1306 -1.6589 -0.8899
17511TIP3   OH273947   5.960   5.558   0.952  0.4043 -0.2397 -0.5137
17511TIP3    H173948   5.909   5.483   0.980  0.3757  0.5254  1.6726
17511TIP3    H273949   6.051   5.532   0.967  0.3767  0.2701  0.6221
17512TIP3   OH273950   1.674   2.873   6.529  0.1530  0.0865 -0.6524
17512TIP3    H173951   1.648   2.788   6.494  0.9867 -0.3100 -0.3395
17512TIP3    H273952   1.597   2.929   6.518 -0.6873 -0.9334 -0.0865
17513TIP3   OH273953   2.420   0.673  15.690 -0.3929  0.7929  0.4426
17513TIP3    H173954   2.397   0.725  15.767 -1.2413  0.0213  0.7266
17513TIP3    H273955   2.406   0.732  15.616  0.4140  1.5361  0.8670
17514TIP3   OH273956   1.258   4.994   3.547 -0.2324  0.3273  1.0287
17514TIP3    H173957   1.326   4.936   3.581  1.8487  1.7995 -0.3488
17514TIP3    H273958   1.282   5.081   3.581 -1.3132  0.9189  0.3313
17515TIP3   OH273959   3.568   4.539  16.466 -0.2303  0.5101 -0.1541
17515TIP3    H173960   3.506   4.500  16.405 -0.0919  0.5881 -0.3468
17515TIP3    H273961   3.620   4.465  16.498  0.5200  0.6219 -1.0805
17516TIP3   OH273962   0.203   3.398   3.024  0.3197 -0.3347  0.5813
17516TIP3    H173963   0.286   3.443   3.014 -0.1299  0.6857  1.2764
17516TIP3    H273964   0.176   3.377   2.935  0.7306  0.4137  0.2726
17517TIP3   OH273965   1.296   6.028  14.670 -0.5632 -0.0543  0.1159
17517TIP3    H173966   1.374   6.003  14.719 -0.9864  0.3556  1.0204
17517TIP3    H273967   1.280   6.119  14.695 -2.1855 -0.5781  1.1147
17518TIP3   OH273968   4.763   0.902  15.207 -0.3980 -0.0022 -0.4633
17518TIP3    H173969   4.808   0.978  15.243 -0.7065 -0.1252  0.1901
17518TIP3    H273970   4.803   0.827  15.252 -0.4526 -0.1944 -0.7320
17519TIP3   OH273971   1.913   2.834  12.165  0.4177  0.3538 -0.4148
17519TIP3    H173972   2.004   2.804  12.168 -0.2657 -1.8121 -0.0266
17519TIP3    H273973   1.861   2.755  12.173 -1.5422  1.7213  1.5661
17520TIP3   OH273974   6.104   0.385   1.362  0.6698  0.5604 -0.2906
17520TIP3    H173975   6.065   0.398   1.448  0.3815 -2.4243  0.1217
17520TIP3    H273976   6.189   0.430   1.367 -0.0932  1.9187  0.9063
17521TIP3   OH273977   0.314   0.637   4.757 -0.2345 -0.2352  0.3493
17521TIP3    H173978   0.348   0.553   4.787 -0.5069 -0.3486  0.3401
17521TIP3    H273979   0.345   0.700   4.822 -0.1949 -0.3694  0.4609
17522TIP3   OH273980   3.584   2.277   5.740  0.0157 -0.0780  0.1729
17522TIP3    H173981   3.613   2.308   5.826 -1.3638  1.3423  0.1781
17522TIP3    H273982   3.548   2.355   5.697  0.0819 -0.8908 -1.4458
17523TIP3   OH273983   0.036   5.542   3.989 -0.8029  0.4433 -0.0398
17523TIP3    H173984   0.122   5.585   3.986 -0.1526 -0.8282 -0.2260
17523TIP3    H273985   0.005   5.545   3.898 -0.7763  0.5478 -0.0456
17524TIP3   OH273986   5.561   0.087   5.828 -0.1526  0.1073 -0.2478
17524TIP3    H173987   5.574  -0.007   5.839 -2.0064 -0.2920 -1.0820
17524TIP3    H273988   5.608   0.127   5.901  1.1971 -1.4076 -0.2449
17525TIP3   OH273989   6.644   6.610  12.844 -0.7940  0.3013  0.9943
17525TIP3    H173990   6.560   6.587  12.883  0.2535 -1.9332  2.0698
17525TIP3    H273991   6.692   6.655  12.913 -0.8394  1.0034  0.5838
17526TIP3   OH273992   3.646   0.887  15.078 -0.3191  0.2245  0.0194
17526TIP3    H173993   3.596   0.938  15.014  0.5498  0.5123 -0.4415
17526TIP3    H273994   3.736   0.918  15.069  0.0096 -0.5234  0.6048
17527TIP3   OH273995   1.589   3.421  13.264  0.3477 -0.1065 -0.0778
17527TIP3    H173996   1.502   3.430  13.225 -0.7445 -4.4511  0.7706
17527TIP3    H273997   1.628   3.346  13.219  1.1205 -2.0721  3.4506
17528TIP3   OH273998   5.564   3.299  14.934 -0.8195  0.0723  0.2634
17528TIP3    H173999   5.582   3.389  14.907  0.7663  0.2564  1.7897
17528TIP3    H274000   5.475   3.282  14.903 -0.3738  1.4137 -1.9133
17529TIP3   OH274001   4.909   4.229   5.525  0.1285  0.3124 -0.1255
17529TIP3    H174002   4.942   4.317   5.508  1.5157 -0.1422  0.0996
17529TIP3    H274003   4.841   4.215   5.459  0.6298  1.1582 -0.8326
17530TIP3   OH274004   5.461   6.731  12.301 -0.7674  0.3987 -0.3002
17530TIP3    H174005   5.456   6.644  12.261 -0.0728 -0.1468  0.7499
17530TIP3    H274006   5.543   6.730  12.349 -1.1901  1.3213  0.4627
17531TIP3   OH274007   0.418   4.595   1.313  0.0125 -0.3645 -0.1882
17531TIP3    H174008   0.341   4.606   1.257 -0.1666 -0.8460 -0.0415
17531TIP3    H274009   0.462   4.681   1.311  0.7088 -0.7194 -2.0780
17532TIP3   OH274010   1.110   0.025   5.919  0.3244  0.0657 -0.1449
17532TIP3    H174011   1.060   0.102   5.891 -2.8099 -2.0835 -1.0849
17532TIP3    H274012   1.157   0.053   5.997 -0.6570  2.9162 -0.4796
17533TIP3   OH274013   2.447   2.762  12.142  0.2821  0.6848 -0.1684
17533TIP3    H174014   2.380   2.742  12.077  0.4775  1.3092 -0.5739
17533TIP3    H274015   2.403   2.750  12.226 -0.5357  1.7198 -0.4315
17534TIP3   OH274016   2.726   5.056   1.544  0.3543 -0.2164  0.0928
17534TIP3    H174017   2.812   5.067   1.503 -0.2873 -0.6495 -1.4837
17534TIP3    H274018   2.671   5.122   1.502  0.0890  0.6345  1.7091
17535TIP3   OH274019   4.910   4.721  15.141  0.2311  0.5410 -0.7933
17535TIP3    H174020   4.852   4.738  15.216  0.1772  0.7100 -0.8719
17535TIP3    H274021   4.854   4.733  15.064  0.3053  0.4413 -0.8626
17536TIP3   OH274022   4.915   0.622  16.854 -0.5239  1.0815  0.3626
17536TIP3    H174023   4.909   0.569  16.774 -0.1144  0.2515  0.8648
17536TIP3    H274024   4.824   0.637  16.880 -0.6915 -1.2119  1.3728
17537TIP3   OH274025   5.971   1.216   5.199 -0.0299 -0.1357  0.4127
17537TIP3    H174026   5.882   1.181   5.209 -0.5301  0.9173 -0.1819
17537TIP3    H274027   5.959   1.302   5.158  1.4051 -1.0520 -2.2075
17538TIP3   OH274028   5.560   4.565   6.594  0.0481  0.2408  0.0435
17538TIP3    H174029   5.644   4.588   6.553  0.6612 -0.4429  0.8872
17538TIP3    H274030   5.504   4.540   6.520  0.4216  1.1435 -0.5769
17539TIP3   OH274031   3.976   5.563   0.183  0.1017  0.6764 -0.1808
17539TIP3    H174032   4.014   5.637   0.232 -0.6950  1.7755 -1.1575
17539TIP3    H274033   4.035   5.550   0.109 -0.8793  1.7812 -1.1930
17540TIP3   OH274034   3.808   1.975   4.339 -0.0579  0.5284 -0.2267
17540TIP3    H174035   3.799   1.984   4.434  0.4572  2.7576 -0.3255
17540TIP3    H274036   3.723   1.944   4.310 -0.7491  1.3152  0.8363
17541TIP3   OH274037   1.675   3.427   3.295 -0.3712 -0.4044 -0.4304
17541TIP3    H174038   1.669   3.452   3.387 -1.6065 -2.6952  0.1907
17541TIP3    H274039   1.732   3.493   3.255  1.2846 -0.1034  2.2282
17542TIP3   OH274040   1.577   2.994   4.770  0.2448  0.3200 -0.1968
17542TIP3    H174041   1.517   3.058   4.808 -0.2017  0.9877 -1.9381
17542TIP3    H274042   1.590   3.023   4.680  1.6757 -0.8992 -0.4290
17543TIP3   OH274043   4.581   0.521  12.827  0.0876 -0.7385  0.4512
17543TIP3    H174044   4.540   0.476  12.754  1.2012 -0.1996 -0.5401
17543TIP3    H274045   4.509   0.539  12.888 -0.6276 -2.3844  0.1245
17544TIP3   OH274046   6.314   2.941   5.640 -0.3890  0.3562 -0.7602
17544TIP3    H174047   6.283   2.853   5.659  0.9051 -0.4783 -2.2195
17544TIP3    H274048   6.353   2.972   5.722 -2.9464  0.5789  0.4569
17545TIP3   OH274049   2.390   0.991  14.286 -1.2348  0.0062 -0.3032
17545TIP3    H174050   2.340   0.913  14.264 -2.7908  1.3394 -1.8343
17545TIP3    H274051   2.371   1.008  14.378 -0.0025 -1.9655  0.3751
17546TIP3   OH274052   1.632   4.896  14.454 -0.9076  0.5080 -0.0962
17546TIP3    H174053   1.548   4.868  14.489 -1.9257  2.3977 -0.8805
17546TIP3    H274054   1.614   4.916  14.362  0.7759 -0.5511 -0.6968
17547TIP3   OH274055   1.884   2.295   1.895  0.4183 -0.2008 -0.1085
17547TIP3    H174056   1.805   2.344   1.874  0.1736 -0.0034  1.1817
17547TIP3    H274057   1.937   2.299   1.816 -0.7767 -0.1625 -0.9195
17548TIP3   OH274058   6.755   1.973   4.113 -0.4539 -0.1345  0.0036
17548TIP3    H174059   6.844   2.008   4.103 -0.4731  0.0443  0.4289
17548TIP3    H274060   6.700   2.033   4.062 -0.1524 -1.1327 -1.5786
17549TIP3   OH274061   2.296   2.958   3.102 -0.4611  0.1856  0.1920
17549TIP3    H174062   2.244   2.925   3.175  0.6539 -1.7633  0.1728
17549TIP3    H274063   2.362   2.890   3.087  1.4455  2.0768 -0.4530
17550TIP3   OH274064   3.002   3.129   4.007  0.1453  0.1691 -0.0618
17550TIP3    H174065   3.036   3.109   4.094 -2.2456  0.6861  1.0755
17550TIP3    H274066   3.003   3.225   4.003  0.3030  0.1435 -0.6329
17551TIP3   OH274067   0.969   4.345   4.647  0.0633  0.7431  0.7260
17551TIP3    H174068   0.904   4.403   4.608 -0.1408 -0.4174 -0.7417
17551TIP3    H274069   0.959   4.262   4.600  1.2831 -0.0654  1.8148
17552TIP3   OH274070   0.373   5.556  16.637 -0.7522  0.2459  0.2390
17552TIP3    H174071   0.300   5.501  16.608 -0.2368 -1.4189  1.8958
17552TIP3    H274072   0.451   5.514  16.600 -0.3685 -0.0398  1.3392
17553TIP3   OH274073   5.374   5.436  14.451 -0.4018  0.2334  0.0215
17553TIP3    H174074   5.322   5.513  14.473  0.6956  1.1493 -0.4713
17553TIP3    H274075   5.362   5.426  14.356  0.1855  0.3558 -0.0677
17554TIP3   OH274076   5.992   1.496  12.245 -0.3149  0.2944 -0.2205
17554TIP3    H174077   5.962   1.583  12.217 -1.2276  0.0771  0.0524
17554TIP3    H274078   6.086   1.498  12.231 -0.5861  0.5081 -2.4776
17555TIP3   OH274079   5.411   5.837  14.373 -0.1874 -0.1090  0.1718
17555TIP3    H174080   5.504   5.815  14.385 -0.2793 -0.7529 -0.2551
17555TIP3    H274081   5.367   5.795  14.447 -0.0572  0.8721  0.8332
17556TIP3   OH274082   3.876   1.008   2.520 -0.0468  0.7518  0.1038
17556TIP3    H174083   3.783   1.018   2.500 -0.4036  1.6945  2.0158
17556TIP3    H274084   3.883   0.921   2.558 -0.0620  0.5260 -0.3985
17557TIP3   OH274085   2.049   0.406  12.519  0.2129  0.6441  0.3779
17557TIP3    H174086   2.105   0.377  12.591  2.4745 -0.6217 -1.7215
17557TIP3    H274087   2.110   0.432  12.449 -1.8047  0.3959 -1.6138
17558TIP3   OH274088   4.996   0.212   4.193  0.3367 -0.3462 -0.3604
17558TIP3    H174089   4.923   0.187   4.251  0.6413 -1.1062 -0.2846
17558TIP3    H274090   4.957   0.269   4.128 -0.2079 -0.2523  0.0422
17559TIP3   OH274091   4.739   0.164  11.532 -0.3161 -0.2697 -0.4926
17559TIP3    H174092   4.794   0.182  11.609 -0.2052  0.6368 -0.7728
17559TIP3    H274093   4.800   0.168  11.458 -0.6234 -0.0494 -0.7328
17560TIP3   OH274094   4.818   2.262  11.834  0.4058 -0.6445 -0.1101
17560TIP3    H174095   4.821   2.357  11.821 -1.3749 -0.4913  0.2746
17560TIP3    H274096   4.752   2.249  11.902  1.3182 -2.1254  0.5509
17561TIP3   OH274097   4.285   6.632  11.230  0.3137 -0.1992 -0.1768
17561TIP3    H174098   4.381   6.625  11.232  0.3004 -0.7883 -1.0912
17561TIP3    H274099   4.265   6.666  11.143 -0.2979  0.2712  0.1372
17562TIP3   OH274100   0.288   5.429  14.682  0.4516 -0.4676  0.3732
17562TIP3    H174101   0.341   5.358  14.646 -0.2964 -0.9956  0.3016
17562TIP3    H274102   0.334   5.454  14.763  1.4659 -0.0956 -0.3000
17563TIP3   OH274103   6.557   0.938  10.976 -0.1931  0.0337  0.1313
17563TIP3    H174104   6.616   0.934  10.901 -0.5033  1.3154 -0.2128
17563TIP3    H274105   6.485   0.879  10.953 -0.1853  0.2603 -0.4956
17564TIP3   OH274106   2.419   2.534  11.641 -0.2769  0.2726  0.4810
17564TIP3    H174107   2.352   2.602  11.643 -0.1355  0.4186  0.2441
17564TIP3    H274108   2.459   2.537  11.728 -0.3778  0.3842  0.5232
17565TIP3   OH274109   1.638   3.389   4.171 -0.3775  0.2992 -0.0386
17565TIP3    H174110   1.711   3.328   4.161 -0.5919 -0.0602  0.5629
17565TIP3    H274111   1.663   3.465   4.118  1.5361  1.1674  1.9533
17566TIP3   OH274112   1.025   2.191  16.817  0.3511  0.8034  0.1060
17566TIP3    H174113   1.071   2.162  16.895 -0.5868  2.9159  1.5272
17566TIP3    H274114   1.074   2.267  16.786 -0.2081  0.9823 -0.3816
17567TIP3   OH274115   4.224   5.713   5.364  0.3307  0.0684 -0.3909
17567TIP3    H174116   4.310   5.753   5.370  0.6041 -0.5142 -0.3011
17567TIP3    H274117   4.222   5.650   5.436 -0.4342  0.5675  0.0297
17568TIP3   OH274118   3.067   0.260   0.184 -0.0221 -0.2478  0.1071
17568TIP3    H174119   3.147   0.240   0.232 -0.9742 -2.5521  0.8846
17568TIP3    H274120   3.084   0.229   0.095 -0.1663 -1.0975  0.3694
17569TIP3   OH274121   5.672   1.428   5.244  0.0343 -0.1843  0.4531
17569TIP3    H174122   5.640   1.387   5.324  2.2777  1.3578  2.3019
17569TIP3    H274123   5.660   1.522   5.259  0.3985  0.1400 -1.0895
17570TIP3   OH274124   3.785   3.126   1.692 -0.2234 -0.1595  0.6216
17570TIP3    H174125   3.704   3.175   1.680  0.5189  0.9071 -0.2427
17570TIP3    H274126   3.832   3.175   1.760  0.8124  0.7473 -0.7107
17571TIP3   OH274127   6.644   1.275   1.717  0.0198 -0.4757 -0.1391
17571TIP3    H174128   6.710   1.210   1.743  0.9316  0.3922 -0.2413
17571TIP3    H274129   6.673   1.356   1.759 -0.6942  0.0380 -0.6343
17572TIP3   OH274130   2.926   5.271  11.821  0.1604 -0.2027 -0.1051
17572TIP3    H174131   2.980   5.337  11.778 -0.7133  1.2565  0.9295
17572TIP3    H274132   2.882   5.225  11.750  2.5209 -1.3177 -0.9733
17573TIP3   OH274133   1.794   1.735   3.878  0.2076 -0.1361  0.1979
17573TIP3    H174134   1.722   1.748   3.816  1.4600 -1.2496 -1.6131
17573TIP3    H274135   1.809   1.821   3.916 -1.2822  0.3672 -0.2818
17574TIP3   OH274136   1.488   5.406  13.481  0.1623 -0.2402 -0.1096
17574TIP3    H174137   1.579   5.382  13.460  0.1579  0.9455 -1.6518
17574TIP3    H274138   1.447   5.419  13.396 -1.8156 -1.8933  0.5078
17575TIP3   OH274139   4.840   5.062   4.020 -0.3956 -0.3529 -0.7207
17575TIP3    H174140   4.828   5.141   3.967 -1.9037  0.5324  0.8426
17575TIP3    H274141   4.809   4.991   3.965  0.0718  0.2508 -1.7999
17576TIP3   OH274142   1.326   5.586   5.767 -0.0498  0.6234 -0.5020
17576TIP3    H174143   1.258   5.578   5.834 -0.1297 -0.0473 -0.6584
17576TIP3    H274144   1.390   5.520   5.790  0.5931  1.2998 -0.3163
17577TIP3   OH274145   6.272   6.220  15.112  0.5968 -0.0197  0.3493
17577TIP3    H174146   6.287   6.236  15.019 -0.9088 -0.2210  0.0455
17577TIP3    H274147   6.266   6.125  15.120 -0.5004  0.0494  0.4374
17578TIP3   OH274148   5.080   4.436   0.608  0.0088 -0.5360 -0.6790
17578TIP3    H174149   5.101   4.415   0.699  0.6084  1.1176 -0.4204
17578TIP3    H274150   5.069   4.350   0.566  1.3408 -1.3481  0.5615
17579TIP3   OH274151   0.023   6.688   2.576  0.0579  0.3341 -0.0532
17579TIP3    H174152   0.100   6.704   2.522  0.8663 -0.9849  0.6271
17579TIP3    H274153  -0.045   6.745   2.541  1.3360  1.5116 -0.6955
17580TIP3   OH274154   5.497   2.688   5.696  0.6017 -0.4403 -0.0816
17580TIP3    H174155   5.567   2.684   5.761  0.1548  1.1919  0.5676
17580TIP3    H274156   5.451   2.604   5.705  1.1557 -0.6493  1.0200
17581TIP3   OH274157   4.028   4.873   1.494 -0.5582 -0.3024  0.1458
17581TIP3    H174158   4.095   4.941   1.492 -0.7984 -0.0708 -0.0948
17581TIP3    H274159   4.069   4.800   1.541 -0.4710  0.1925  0.8510
17582TIP3   OH274160   0.255   5.388   2.145  0.0120 -0.5303 -0.3730
17582TIP3    H174161   0.340   5.346   2.135 -0.7666 -1.8820 -1.6269
17582TIP3    H274162   0.238   5.428   2.060 -0.5294 -0.1118 -0.0736
17583TIP3   OH274163   0.944   3.435  10.691 -0.7661  0.1229 -0.0030
17583TIP3    H174164   0.856   3.404  10.712 -1.0094  1.4204  0.9842
17583TIP3    H274165   0.936   3.530  10.686  1.1534  0.6243  3.4071
17584TIP3   OH274166   2.233   4.234  12.684 -0.4716  0.1087 -0.1166
17584TIP3    H174167   2.190   4.220  12.768 -1.7072  1.6607 -0.4484
17584TIP3    H274168   2.168   4.206  12.619  0.1430 -0.2665 -0.5816
17585TIP3   OH274169   3.874   4.491   5.367  0.2513 -0.1676  0.6251
17585TIP3    H174170   3.857   4.463   5.277  1.9385 -0.9810  0.5270
17585TIP3    H274171   3.910   4.579   5.358 -1.0419  0.3938  0.6477
17586TIP3   OH274172   5.434   2.737   3.734 -0.8712  0.5324 -0.0481
17586TIP3    H174173   5.431   2.797   3.809 -1.8689  1.3462 -0.7078
17586TIP3    H274174   5.499   2.671   3.759 -0.7053  1.1458  1.2545
17587TIP3   OH274175   3.751   6.111  13.911 -0.1770  0.4621 -0.7508
17587TIP3    H174176   3.786   6.028  13.944 -0.0695  0.3460 -1.1621
17587TIP3    H274177   3.733   6.162  13.991  0.7714  0.4653 -0.5271
17588TIP3   OH274178   0.129   4.323   0.599 -0.5503 -0.0653 -0.5697
17588TIP3    H174179   0.099   4.373   0.524 -0.8054 -0.1885 -0.5527
17588TIP3    H274180   0.200   4.268   0.565 -0.9684 -0.4499 -0.8241
17589TIP3   OH274181   1.026   1.239   0.674  0.1009  0.0985  0.5724
17589TIP3    H174182   0.983   1.254   0.590  3.7029  0.5158 -1.3801
17589TIP3    H274183   0.968   1.177   0.719 -3.9034  2.7124 -0.4665
17590TIP3   OH274184   2.721   1.248   6.551 -0.7000  0.0176 -0.3102
17590TIP3    H174185   2.625   1.247   6.558 -0.6925  2.8840  3.0250
17590TIP3    H274186   2.741   1.334   6.515  0.6153  0.0049  0.3422
17591TIP3   OH274187   5.194   2.390  13.754 -0.3533 -0.0738  0.0831
17591TIP3    H174188   5.220   2.481  13.739  0.3617 -0.4583 -1.2412
17591TIP3    H274189   5.104   2.386  13.724 -0.3045  0.1415 -0.0997
17592TIP3   OH274190   4.256   2.492  16.665  0.4600 -0.2307 -0.3220
17592TIP3    H174191   4.214   2.413  16.631  1.1872 -0.7072 -0.1433
17592TIP3    H274192   4.231   2.561  16.604 -1.5910 -0.2210  0.4426
17593TIP3   OH274193   1.733   2.382   0.457  0.2191  0.8197  0.1363
17593TIP3    H174194   1.779   2.312   0.503 -0.3259  0.3382 -0.0370
17593TIP3    H274195   1.686   2.429   0.526  0.6432  1.0612  0.2625
17594TIP3   OH274196   6.637   5.241   3.432 -0.2557 -0.1967  0.1198
17594TIP3    H174197   6.546   5.267   3.416 -0.6718 -1.0536  1.0038
17594TIP3    H274198   6.688   5.296   3.372 -1.2051  1.6209  0.8855
17595TIP3   OH274199   2.387   4.036   5.037  0.4674 -0.0554 -0.0018
17595TIP3    H174200   2.356   4.117   5.078 -1.3869  0.6972 -2.6274
17595TIP3    H274201   2.373   3.968   5.103 -0.1987  1.4129  1.4127
17596TIP3   OH274202   5.630   1.297  10.876  0.6701 -0.6761 -0.2639
17596TIP3    H174203   5.594   1.380  10.844 -1.5933 -0.9678  1.2813
17596TIP3    H274204   5.655   1.250  10.796 -0.6146  0.3816 -1.3518
17597TIP3   OH274205   2.857   1.058  11.470  0.2593  0.2921 -0.1781
17597TIP3    H174206   2.904   1.113  11.407  0.0139 -1.0555 -1.6141
17597TIP3    H274207   2.795   1.008  11.416 -0.5111 -0.3337  1.2506
17598TIP3   OH274208   0.237   6.168  11.105 -0.0346  0.2045  0.1644
17598TIP3    H174209   0.230   6.197  11.015  0.4592 -0.2371 -0.0236
17598TIP3    H274210   0.238   6.072  11.100 -3.3829  0.0063  0.8930
17599TIP3   OH274211   0.387   5.784  15.149  0.7994 -0.2313  0.1707
17599TIP3    H174212   0.390   5.699  15.106  1.7800  0.8473 -2.0400
17599TIP3    H274213   0.378   5.763  15.242  1.5325 -2.7419 -0.2466
17600TIP3   OH274214   4.772   3.160  10.656  0.1536  0.2429  0.2522
17600TIP3    H174215   4.711   3.116  10.596 -0.0005 -0.0864  0.6456
17600TIP3    H274216   4.741   3.137  10.743  1.1663 -0.4176  0.4680
17601TIP3   OH274217   3.116   0.877   4.866  0.2869  0.6049  0.2808
17601TIP3    H174218   3.049   0.917   4.921 -0.0323  0.8094 -0.2426
17601TIP3    H274219   3.105   0.920   4.781  0.3402 -0.1711 -0.1222
17602TIP3   OH274220   5.832   3.449   1.521 -0.0576 -0.4474  0.0128
17602TIP3    H174221   5.851   3.379   1.459  1.6549 -0.5355  0.5822
17602TIP3    H274222   5.776   3.509   1.473 -0.6389 -1.6473 -0.8542
17603TIP3   OH274223   1.112   6.216  13.323  0.1130 -0.6156 -0.2429
17603TIP3    H174224   1.101   6.283  13.389 -1.8379  0.0513 -1.1577
17603TIP3    H274225   1.135   6.264  13.243  0.3039 -1.1916 -0.5441
17604TIP3   OH274226   0.226   2.573   5.240  0.5148 -0.2505  0.3761
17604TIP3    H174227   0.184   2.605   5.160 -0.4206 -0.9757  0.5593
17604TIP3    H274228   0.319   2.572   5.220  0.5684  2.1825  0.2190
17605TIP3   OH274229   6.207   4.175   3.049 -0.2753  0.0954 -0.4512
17605TIP3    H174230   6.226   4.257   3.002 -0.2274 -0.0625 -0.7076
17605TIP3    H274231   6.161   4.203   3.128  1.4718  0.5417  0.4679
17606TIP3   OH274232   5.383   4.163   1.848 -0.1693 -0.3974  0.3695
17606TIP3    H174233   5.404   4.084   1.798  1.7693  0.2664  0.0384
17606TIP3    H274234   5.464   4.214   1.847 -1.2005  1.3496  1.0523
17607TIP3   OH274235   2.572   2.001  12.887 -0.2013  0.0216 -0.0919
17607TIP3    H174236   2.575   2.030  12.978 -1.6421  2.5665 -0.7568
17607TIP3    H274237   2.493   1.946  12.882  0.2872 -0.7325  0.3250
17608TIP3   OH274238   4.065   5.405  12.195 -0.0671  0.6119 -0.4735
17608TIP3    H174239   4.029   5.339  12.254  1.2060  0.5979  0.3143
17608TIP3    H274240   4.021   5.388  12.112 -1.5145  0.2971  0.3079
17609TIP3   OH274241   6.671   4.995  14.670 -0.0840  0.2641  0.2195
17609TIP3    H174242   6.608   5.067  14.679  0.7688  1.1214 -0.5068
17609TIP3    H274243   6.674   4.955  14.757 -1.3988  0.3851  0.3509
17610TIP3   OH274244   2.806   4.104  14.842  0.1480 -0.2194 -0.1349
17610TIP3    H174245   2.747   4.042  14.884 -0.6008  0.9801  0.6333
17610TIP3    H274246   2.798   4.085  14.748 -0.8618 -0.5892  0.0145
17611TIP3   OH274247   1.635   1.403  13.291 -0.2302  0.0630 -0.1865
17611TIP3    H174248   1.699   1.466  13.259  0.4895 -1.5227 -2.0781
17611TIP3    H274249   1.639   1.330  13.228 -0.7095 -2.0588  2.0757
17612TIP3   OH274250   3.651   5.929   4.547  0.6312  0.3900  0.1641
17612TIP3    H174251   3.717   5.865   4.521 -0.4374 -1.0956  0.9846
17612TIP3    H274252   3.685   5.966   4.629  1.8218  1.7985 -0.9082
17613TIP3   OH274253   4.712   2.327  12.464 -0.2263 -0.2069  0.2193
17613TIP3    H174254   4.797   2.323  12.507  0.2354 -0.4242 -0.7038
17613TIP3    H274255   4.690   2.236  12.446 -1.0987 -0.2298  1.2831
17614TIP3   OH274256   1.132   4.985   5.072 -0.3155  0.1750  0.4072
17614TIP3    H174257   1.111   5.053   5.008  0.4766  0.2556  0.2234
17614TIP3    H274258   1.120   4.903   5.025 -0.5681  0.2038  0.4166
17615TIP3   OH274259   0.771   3.158  16.368  0.7372 -0.0468 -0.3811
17615TIP3    H174260   0.776   3.132  16.460 -0.4904  0.7001 -0.0825
17615TIP3    H274261   0.836   3.104  16.325 -0.2726 -2.1082  0.5333
17616TIP3   OH274262   1.728   4.545   3.553  0.1769 -0.0720  0.5276
17616TIP3    H174263   1.648   4.593   3.532  1.0850  0.9263 -0.7978
17616TIP3    H274264   1.750   4.498   3.473  1.1802  0.0530  0.7147
17617TIP3   OH274265   4.829   0.944  12.348 -0.6361 -0.1869  0.5494
17617TIP3    H174266   4.747   0.906  12.380 -0.4066 -0.2168  1.1160
17617TIP3    H274267   4.823   1.036  12.370 -0.5824 -0.1604  0.4544
17618TIP3   OH274268   5.650   1.887   2.749 -0.2491 -0.4082  0.3058
17618TIP3    H174269   5.682   1.837   2.824 -0.5034 -0.1996  0.5499
17618TIP3    H274270   5.555   1.878   2.753 -0.2472 -0.6874 -0.1900
17619TIP3   OH274271   1.316   5.598   3.383  0.1271 -0.0248  0.3209
17619TIP3    H174272   1.373   5.602   3.460  0.0676  2.0134  0.3231
17619TIP3    H274273   1.229   5.619   3.416  0.0702  0.6896 -0.2621
17620TIP3   OH274274   0.726   5.954  13.649  0.0219  0.0403  0.0377
17620TIP3    H174275   0.745   6.039  13.608 -0.4630  0.1794  0.0984
17620TIP3    H274276   0.661   5.914  13.591  1.1463 -0.8279 -0.6722
17621TIP3   OH274277   5.040   5.681   0.010  0.2263  0.0381  0.0991
17621TIP3    H174278   5.087   5.664   0.091  0.4307  1.7639  0.3835
17621TIP3    H274279   5.108   5.685  -0.058  0.2184  0.0879  0.0939
17622TIP3   OH274280   5.887   3.055   3.136 -0.0998  0.2360 -0.3483
17622TIP3    H174281   5.804   3.021   3.170  0.6027 -1.4003 -0.2058
17622TIP3    H274282   5.945   2.979   3.133  1.8921  1.6001  1.0006
17623TIP3   OH274283   3.217   4.628   6.375  0.2939  0.2557 -0.0845
17623TIP3    H174284   3.131   4.605   6.340  0.4511  0.9776 -1.0012
17623TIP3    H274285   3.262   4.545   6.384  0.1800  0.0133 -1.4776
17624TIP3   OH274286   2.637   3.246   0.691  0.5589 -0.0578  0.3545
17624TIP3    H174287   2.671   3.295   0.766 -1.7035  1.1252  0.6894
17624TIP3    H274288   2.546   3.274   0.683 -0.2422 -2.6443 -0.7762
17625TIP3   OH274289   0.029   0.228  16.304 -0.4635  0.2666  0.2713
17625TIP3    H174290   0.013   0.275  16.386 -0.0246  2.3516 -0.7768
17625TIP3    H274291   0.006   0.291  16.235  0.7561 -0.8488 -1.2198
17626TIP3   OH274292   6.209   4.448   5.214  0.0327  0.7603 -0.2038
17626TIP3    H174293   6.138   4.475   5.272 -0.6439  0.0965 -0.6977
17626TIP3    H274294   6.241   4.365   5.251  0.8442  1.2621  0.2529
17627TIP3   OH274295   0.323   0.328   1.220  0.1374  0.6464  0.7988
17627TIP3    H174296   0.251   0.388   1.200 -0.2152  0.4962  1.5908
17627TIP3    H274297   0.381   0.378   1.278 -0.3863  0.0937  1.8264
17628TIP3   OH274298   1.195   6.690  12.496  0.0407 -0.7014 -0.1996
17628TIP3    H174299   1.222   6.781  12.501 -1.6305 -0.1597 -0.3773
17628TIP3    H274300   1.246   6.654  12.423  1.5874 -0.2674  0.6186
17629TIP3   OH274301   4.381   0.138  14.102 -0.3754  0.4577  0.5615
17629TIP3    H174302   4.324   0.212  14.123  0.7092  2.0263 -1.6266
17629TIP3    H274303   4.466   0.178  14.084  0.2693 -1.3317 -0.5922
17630TIP3   OH274304   3.921   2.564   0.545  0.4971  0.1847  0.0874
17630TIP3    H174305   3.960   2.607   0.470  1.5649  0.5558  0.8285
17630TIP3    H274306   3.868   2.493   0.508  1.0967  0.2844 -0.9904
17631TIP3   OH274307   2.199   5.718  12.436  0.7208 -0.7231 -0.2558
17631TIP3    H174308   2.172   5.664  12.363  0.3304 -1.1851  0.2251
17631TIP3    H274309   2.293   5.703  12.444  0.5106 -1.8433  0.2775
17632TIP3   OH274310   0.243   3.231  10.647  0.7841  0.2982 -0.0548
17632TIP3    H174311   0.235   3.309  10.593  0.1974 -0.5800 -1.2921
17632TIP3    H274312   0.331   3.235  10.683  0.8100  1.4412 -0.2158
17633TIP3   OH274313   5.798   2.221   2.517  0.8719 -0.0088  0.1223
17633TIP3    H174314   5.776   2.216   2.610  2.1449  2.4153  0.6333
17633TIP3    H274315   5.734   2.282   2.480  1.8315  0.9323 -0.0376
17634TIP3   OH274316   1.510   2.904   2.491  0.1076 -0.0287 -0.6077
17634TIP3    H174317   1.429   2.945   2.459  0.7636  0.1386 -2.1519
17634TIP3    H274318   1.511   2.925   2.584 -1.7329 -0.2268 -0.4957
17635TIP3   OH274319   5.295   2.581  14.109  0.6171  0.3284 -0.3686
17635TIP3    H174320   5.281   2.600  14.016 -0.6706 -0.8643 -0.4438
17635TIP3    H274321   5.209   2.555  14.141  1.1924  0.0552  1.0076
17636TIP3   OH274322   6.444   1.338   0.465 -0.0292  0.7955  0.7296
17636TIP3    H174323   6.379   1.389   0.513 -0.9055  0.1838  0.2460
17636TIP3    H274324   6.452   1.382   0.381 -0.5938  0.3207  0.4100
17637TIP3   OH274325   1.577   4.634   0.495 -0.8093 -0.2482 -0.4246
17637TIP3    H174326   1.658   4.590   0.520 -0.3188  0.4319 -0.8084
17637TIP3    H274327   1.508   4.569   0.512 -0.1124 -1.1019 -0.8180
17638TIP3   OH274328   2.619   5.309   2.122  0.4203  0.0781 -0.2177
17638TIP3    H174329   2.698   5.336   2.076 -0.2341  2.3589 -0.1307
17638TIP3    H274330   2.586   5.235   2.072  2.5517 -0.9242 -0.2672
17639TIP3   OH274331   1.223   4.904  16.285  0.3407 -0.3002 -0.1601
17639TIP3    H174332   1.298   4.876  16.232  1.4210  1.3686  0.4179
17639TIP3    H274333   1.260   4.964  16.349 -1.6570  1.6646 -0.7126
17640TIP3   OH274334   6.154   5.552   2.626  0.0391 -0.0746 -0.3848
17640TIP3    H174335   6.247   5.576   2.624 -0.0668  0.4260  0.3584
17640TIP3    H274336   6.123   5.571   2.538  1.1361 -2.3454 -1.3581
17641TIP3   OH274337   5.545   5.050  16.132  0.3482 -0.5244  0.1498
17641TIP3    H174338   5.565   5.005  16.214  0.5004  1.2015  1.0909
17641TIP3    H274339   5.481   4.993  16.089  1.7907 -2.4934  0.4717
17642TIP3   OH274340   5.337   3.990  11.546  0.3764 -0.1088  0.1373
17642TIP3    H174341   5.267   4.053  11.527  0.0454 -0.4029  0.3837
17642TIP3    H274342   5.320   3.961  11.636  1.6527  0.9137  0.7462
17643TIP3   OH274343   5.872   2.352  11.982 -0.4712 -0.2371  0.1924
17643TIP3    H174344   5.797   2.405  11.955 -2.5350 -3.2497 -0.5363
17643TIP3    H274345   5.842   2.309  12.063  1.0043 -0.5422  0.6089
17644TIP3   OH274346   5.452   5.430   6.660  0.0365 -0.0209  0.1393
17644TIP3    H174347   5.538   5.439   6.702  0.4549 -0.1525 -0.6726
17644TIP3    H274348   5.469   5.448   6.567 -0.5243 -1.4743 -0.2791
17645TIP3   OH274349   3.762   1.177   6.278 -0.0903  0.0169  0.2652
17645TIP3    H174350   3.788   1.129   6.356  0.4019  1.5390  1.0724
17645TIP3    H274351   3.669   1.196   6.291 -0.0245  0.2123  0.4608
17646TIP3   OH274352   3.776   2.769  12.045  0.2356  0.0266  0.5233
17646TIP3    H174353   3.714   2.831  12.084 -1.5823 -0.4420 -1.4507
17646TIP3    H274354   3.785   2.700  12.111 -0.8990  0.4059  1.1146
17647TIP3   OH274355   0.047   6.604  15.605 -0.1623 -0.2640 -0.1494
17647TIP3    H174356   0.001   6.559  15.675  0.4029 -0.9955 -0.2276
17647TIP3    H274357  -0.022   6.643  15.551 -0.5926  0.4777  0.9073
17648TIP3   OH274358   4.279   3.648  13.017  0.3699 -0.2983  0.7401
17648TIP3    H174359   4.337   3.722  13.005 -0.9223  0.4014 -1.9860
17648TIP3    H274360   4.233   3.666  13.099  1.6443  0.7620  1.2487
17649TIP3   OH274361   4.905   6.368   2.002  0.3612 -0.1032 -0.0930
17649TIP3    H174362   4.861   6.385   2.085  2.6718 -2.4694  1.7998
17649TIP3    H274363   4.970   6.438   1.994  2.2612 -1.5024  1.8537
17650TIP3   OH274364   3.408   0.841  15.461 -0.6239 -0.4015 -0.2511
17650TIP3    H174365   3.471   0.790  15.410 -0.8641 -1.9857  0.9617
17650TIP3    H274366   3.452   0.857  15.544 -1.8547 -1.6883  0.6808
17651TIP3   OH274367   1.528   5.297   2.739  0.4993 -0.2006 -0.0252
17651TIP3    H174368   1.617   5.280   2.770 -0.6865 -0.8608  3.4041
17651TIP3    H274369   1.485   5.212   2.741 -0.6939  0.3879  0.0684
17652TIP3   OH274370   3.519   0.496   4.331 -0.5920 -0.6241  0.0170
17652TIP3    H174371   3.492   0.521   4.419  1.2255 -0.7563  0.6320
17652TIP3    H274372   3.605   0.536   4.319 -0.7065 -0.7725 -1.6368
17653TIP3   OH274373   3.822   3.980  16.849  0.1162  0.7366  0.0485
17653TIP3    H174374   3.892   3.917  16.831 -0.1998  0.3907  0.0434
17653TIP3    H274375   3.765   3.976  16.773 -0.1186  0.7442  0.2240
17654TIP3   OH274376   2.051   1.436  16.240  0.7387 -0.2736 -0.0396
17654TIP3    H174377   2.114   1.499  16.205  0.7806 -1.2009 -1.7572
17654TIP3    H274378   1.969   1.457  16.195  0.5199 -0.8183  0.0978
17655TIP3   OH274379   0.133   0.316  11.684 -0.5055  0.4128 -0.5873
17655TIP3    H174380   0.101   0.391  11.734 -0.2142 -0.5209  1.0628
17655TIP3    H274381   0.054   0.279  11.644 -0.8297  0.8510 -0.3613
17656TIP3   OH274382   3.300   5.114  15.537 -0.4722  0.1950 -0.2053
17656TIP3    H174383   3.243   5.189  15.557 -1.5201 -0.3608 -0.9501
17656TIP3    H274384   3.239   5.044  15.514  0.4495 -1.1340  1.1924
17657TIP3   OH274385   4.248   3.867   0.446 -0.0531 -0.2862  0.5809
17657TIP3    H174386   4.313   3.805   0.478  0.8845  1.1281  1.5122
17657TIP3    H274387   4.282   3.953   0.471 -1.2823  0.6233 -0.7139
17658TIP3   OH274388   5.805   3.471  17.108 -0.0003 -0.6450  0.6057
17658TIP3    H174389   5.718   3.503  17.133 -0.5043  0.3610 -2.0725
17658TIP3    H274390   5.837   3.537  17.046  2.4153 -1.3477  1.0343
17659TIP3   OH274391   4.759   1.144   1.863 -0.1097 -0.1750 -0.1730
17659TIP3    H174392   4.801   1.085   1.800 -0.5871 -0.6065 -0.0880
17659TIP3    H274393   4.830   1.168   1.924  0.5380  0.8278 -1.2805
17660TIP3   OH274394   6.541   4.644  10.949  0.1075 -1.0336  1.0686
17660TIP3    H174395   6.581   4.715  10.899 -0.2674 -0.7462  1.1655
17660TIP3    H274396   6.604   4.573  10.946 -0.1336 -1.2140 -0.2695
17661TIP3   OH274397   4.326   5.653   1.238 -0.2863 -0.0239 -0.4472
17661TIP3    H174398   4.251   5.607   1.201  0.1395 -0.2244 -1.0644
17661TIP3    H274399   4.351   5.601   1.315 -1.4719  0.6592  0.4358
17662TIP3   OH274400   2.565   2.540  14.818 -0.6506 -0.2638  0.1643
17662TIP3    H174401   2.629   2.468  14.822 -1.6742 -1.2717 -0.8359
17662TIP3    H274402   2.492   2.504  14.768 -1.2802  1.4275 -0.1893
17663TIP3   OH274403   1.752   6.127   6.660  0.0792  0.8046  0.1758
17663TIP3    H174404   1.820   6.061   6.646 -0.4286  0.7234 -2.3266
17663TIP3    H274405   1.718   6.107   6.747 -0.6118 -2.7990 -0.7507
17664TIP3   OH274406   3.807   5.040  16.745  0.0192  0.6083 -0.7940
17664TIP3    H174407   3.768   5.021  16.660  0.0217 -0.7068 -0.5191
17664TIP3    H274408   3.880   4.978  16.753 -0.0074  0.6822  0.1882
17665TIP3   OH274409   3.192   4.912  15.331  0.0270 -0.3778 -0.9228
17665TIP3    H174410   3.132   4.933  15.260 -1.3019 -0.5571  0.0996
17665TIP3    H274411   3.196   4.816  15.331  0.2777 -0.3679 -0.9555
17666TIP3   OH274412   2.558   2.856   4.039  0.3343  0.1092  0.0811
17666TIP3    H174413   2.631   2.916   4.052  0.5719 -0.0927 -0.3041
17666TIP3    H274414   2.506   2.863   4.119  1.0944 -0.1899  0.6058
17667TIP3   OH274415   3.402   0.081  12.631  0.0256 -0.2125  0.6013
17667TIP3    H174416   3.411   0.157  12.689 -2.4074 -0.7329  1.7814
17667TIP3    H274417   3.404   0.005  12.689 -0.5957 -0.8653 -0.1969
17668TIP3   OH274418   5.452   0.589   2.076  0.1297  0.7025 -0.0489
17668TIP3    H174419   5.396   0.666   2.064  0.9468  1.4601  0.9119
17668TIP3    H274420   5.434   0.559   2.165 -0.3898 -0.4070 -0.5102
17669TIP3   OH274421   2.738   3.584  16.290  0.0338 -0.0200  1.0369
17669TIP3    H174422   2.709   3.609  16.203  1.5882 -0.8312  0.2461
17669TIP3    H274423   2.688   3.505  16.311  0.1263 -0.1940  0.5996
17670TIP3   OH274424   0.578   2.392   5.953 -0.4631  0.0277 -0.5348
17670TIP3    H174425   0.564   2.486   5.966 -0.2799 -0.1934  1.6101
17670TIP3    H274426   0.490   2.355   5.956 -0.7357  0.2635 -3.2878
17671TIP3   OH274427   2.428   4.606  12.886  0.1411  0.0662 -0.4837
17671TIP3    H174428   2.372   4.663  12.832 -0.1170 -0.3656 -0.6772
17671TIP3    H274429   2.390   4.612  12.973  0.2412  0.3522 -0.4573
17672TIP3   OH274430   1.927   3.046  14.981 -0.0806 -0.0624 -0.0829
17672TIP3    H174431   1.862   3.115  14.992 -0.6076 -0.4993 -0.3689
17672TIP3    H274432   2.011   3.087  15.004 -0.4568  0.5068  0.2869
17673TIP3   OH274433   5.197   6.555  16.223 -0.0408  0.2820  0.0604
17673TIP3    H174434   5.122   6.558  16.163 -0.3842 -1.2918  0.3622
17673TIP3    H274435   5.181   6.626  16.285 -0.8431  0.5024 -0.3813
17674TIP3   OH274436   4.707   3.644   0.702 -0.4636  0.2211 -0.7513
17674TIP3    H174437   4.679   3.592   0.626  0.9987 -1.4528 -0.2254
17674TIP3    H274438   4.738   3.579   0.765  2.8394  1.7198 -0.5906
17675TIP3   OH274439   3.705   3.696   5.735 -0.1409  0.4950 -0.1629
17675TIP3    H174440   3.724   3.685   5.642 -1.5096  1.5698 -0.5894
17675TIP3    H274441   3.618   3.659   5.747  0.6806 -1.2217  1.0817
17676TIP3   OH274442   4.053   3.361  10.404  0.0031  0.3473  0.5485
17676TIP3    H174443   4.076   3.271  10.427 -1.0951  0.0050  0.3286
17676TIP3    H274444   4.091   3.414  10.475  0.5077 -0.2918  0.7679
17677TIP3   OH274445   2.525   3.762  11.210  0.2393 -0.0128  0.5061
17677TIP3    H174446   2.435   3.745  11.180  0.0387 -0.3856  1.2991
17677TIP3    H274447   2.515   3.787  11.302  0.8504  1.1183  0.2871
17678TIP3   OH274448   5.974   4.991  13.829  0.1416  0.3069 -0.0588
17678TIP3    H174449   5.928   5.017  13.749  0.7019  1.1165 -0.1248
17678TIP3    H274450   6.001   5.073  13.870  1.3294 -0.1317  0.0968
17679TIP3   OH274451   1.742   3.394  17.160  0.2902  0.2993 -0.3384
17679TIP3    H174452   1.674   3.389  17.092 -0.0684  1.5680 -0.1032
17679TIP3    H274453   1.698   3.364  17.239  0.3269  0.0961 -0.3937
17680TIP3   OH274454   0.843   1.580  11.561  0.3681 -0.1486  0.1503
17680TIP3    H174455   0.836   1.675  11.555  0.9581 -0.1467 -0.6865
17680TIP3    H274456   0.829   1.549  11.472  0.5340 -0.8254  0.3521
17681TIP3   OH274457   5.630   5.336   2.199 -0.1747 -0.3172  0.2812
17681TIP3    H174458   5.556   5.311   2.143 -0.5008 -0.8682  0.9421
17681TIP3    H274459   5.705   5.336   2.140 -0.6168 -0.2370 -0.2972
17682TIP3   OH274460   2.628   2.743   2.487  0.1916 -0.3327  0.0899
17682TIP3    H174461   2.641   2.811   2.553 -0.1042 -0.1172 -0.0738
17682TIP3    H274462   2.595   2.668   2.537  0.8513 -0.4776  0.3234
17683TIP3   OH274463   1.195   2.928   3.179  0.7268  0.4046 -0.8492
17683TIP3    H174464   1.102   2.905   3.170  0.4222  0.9666  0.6197
17683TIP3    H274465   1.242   2.851   3.148 -0.2465 -0.9514  0.9131
17684TIP3   OH274466   1.835   1.980  15.087 -0.5172 -1.1871  0.0560
17684TIP3    H174467   1.927   2.000  15.072 -0.3935 -1.2290  0.7233
17684TIP3    H274468   1.814   1.914  15.021  0.2376 -1.9865  0.5808
17685TIP3   OH274469   6.026   5.596  12.905  0.4110  0.2954 -0.0258
17685TIP3    H174470   6.011   5.677  12.856 -0.8312 -0.4505 -0.9321
17685TIP3    H274471   5.985   5.610  12.990  1.8199  1.2735  0.5340
17686TIP3   OH274472   3.899   2.016   1.477  0.1176  0.0664  0.3791
17686TIP3    H174473   3.875   2.057   1.394 -1.3808 -0.1796  0.6617
17686TIP3    H274474   3.817   2.011   1.526  0.3611 -2.4751  0.6945
17687TIP3   OH274475   0.666   1.824  12.233 -0.1329  0.4874 -0.4690
17687TIP3    H174476   0.691   1.899  12.287 -0.0105  0.4790 -0.5137
17687TIP3    H274477   0.627   1.862  12.155 -0.1086  0.5039 -0.4733
17688TIP3   OH274478   5.335   6.496  12.612  0.6773  0.0923  0.0114
17688TIP3    H174479   5.333   6.558  12.685  0.5824  0.4224 -0.2723
17688TIP3    H274480   5.424   6.461  12.613  0.4401 -0.5333  0.8083
17689TIP3   OH274481   3.621   1.552  16.510  0.1626  0.1491  0.6045
17689TIP3    H174482   3.657   1.523  16.426  0.9198  1.7749  0.3198
17689TIP3    H274483   3.532   1.517  16.511  0.8131 -1.6029  0.0556
17690TIP3   OH274484   0.862   0.474  13.102 -0.6453 -0.2104 -0.6192
17690TIP3    H174485   0.842   0.429  13.020  1.2301 -1.5245 -0.4218
17690TIP3    H274486   0.823   0.419  13.170 -1.0974  0.1954 -0.5437
17691TIP3   OH274487   3.388   2.633   2.420  0.2834 -0.4922 -0.1754
17691TIP3    H174488   3.466   2.639   2.365  0.1045  1.7260 -0.2795
17691TIP3    H274489   3.343   2.554   2.390  3.2233 -2.8071  0.9925
17692TIP3   OH274490   4.606   6.361  16.151 -0.1508  0.4718  0.1762
17692TIP3    H174491   4.651   6.443  16.131  1.4775 -0.2575  0.6756
17692TIP3    H274492   4.588   6.365  16.245  1.5325 -0.4491  0.5763
17693TIP3   OH274493   1.191   4.155   3.840  0.2054 -0.2309 -0.5264
17693TIP3    H174494   1.255   4.225   3.825  1.3705 -1.3099 -0.7311
17693TIP3    H274495   1.238   4.091   3.894 -1.3094 -0.1996  0.8785
17694TIP3   OH274496   1.403   2.698   1.108  0.1766 -0.6547 -0.0599
17694TIP3    H174497   1.340   2.635   1.142 -0.5428 -0.0017 -0.1751
17694TIP3    H274498   1.384   2.703   1.015  0.5886 -0.6604 -0.1480
17695TIP3   OH274499   5.035   6.082   4.019 -0.1286  0.1902  0.2299
17695TIP3    H174500   4.990   6.144   3.962  1.8293  1.2490 -0.2692
17695TIP3    H274501   5.073   6.018   3.959 -0.4480 -0.3451  0.5896
17696TIP3   OH274502   1.517   3.055  11.360  0.0645  0.2950 -0.0262
17696TIP3    H174503   1.540   2.981  11.304  1.1421  0.5058  0.1076
17696TIP3    H274504   1.474   3.015  11.436  1.1108 -0.2523  0.2928
17697TIP3   OH274505   3.516   4.922  10.861  0.9793  0.4228  0.0184
17697TIP3    H174506   3.548   4.904  10.773  0.7990 -0.3343  0.1016
17697TIP3    H274507   3.456   4.996  10.851  0.9981  0.3695 -0.4797
17698TIP3   OH274508   1.825   5.799   3.877  0.2086  0.4127 -0.5312
17698TIP3    H174509   1.814   5.820   3.970 -0.8749 -0.4747 -0.4437
17698TIP3    H274510   1.872   5.875   3.841  0.0605  1.0637  0.6027
17699TIP3   OH274511   0.410   1.643  11.895  0.2352 -0.6428  0.2685
17699TIP3    H174512   0.354   1.681  11.962  2.6436  0.0651  2.0486
17699TIP3    H274513   0.381   1.684  11.813 -2.8015 -1.5523  0.7908
17700TIP3   OH274514   3.804   4.001  11.932  0.0450  0.0303 -0.7289
17700TIP3    H174515   3.873   3.955  11.980  1.9054  0.2155 -3.0339
17700TIP3    H274516   3.751   4.043  12.000  3.6367  1.9241  1.2023
17701TIP3   OH274517   5.975   6.159  11.955  0.0505  0.1892 -0.3862
17701TIP3    H174518   5.894   6.147  12.004  1.2362 -0.3772  1.5996
17701TIP3    H274519   5.987   6.077  11.907  0.8148 -0.9261  1.5840
17702TIP3   OH274520   5.462   6.314  15.998 -0.1616 -0.1499  0.3947
17702TIP3    H174521   5.429   6.227  15.980 -0.5862  0.3124 -1.2134
17702TIP3    H274522   5.513   6.337  15.921  0.7818  0.6465  1.2200
17703TIP3   OH274523   3.973   0.696  13.330 -0.9465 -0.6928  0.6381
17703TIP3    H174524   3.982   0.791  13.324  1.6749 -0.8805  0.7054
17703TIP3    H274525   3.884   0.683  13.362 -1.6006  1.6933  0.0156
17704TIP3   OH274526   1.861   0.194   0.587 -0.4837 -0.4813 -0.3021
17704TIP3    H174527   1.799   0.201   0.515  0.9118  1.5177 -1.4025
17704TIP3    H274528   1.860   0.101   0.611 -3.9189 -0.5219 -0.1670
17705TIP3   OH274529   3.608   0.498  15.459 -0.2189  0.6143  0.0322
17705TIP3    H174530   3.682   0.520  15.402 -0.2048  1.5204  0.3860
17705TIP3    H274531   3.554   0.439  15.406  0.5071  0.3327 -0.4054
17706TIP3   OH274532   5.575   2.832  16.464 -0.4309  0.6696 -0.2792
17706TIP3    H174533   5.630   2.785  16.402  0.2896 -1.6293  1.9739
17706TIP3    H274534   5.485   2.808  16.440 -0.3634  1.8186 -1.8928
17707TIP3   OH274535   2.757   1.616   0.440 -0.2648 -0.5438 -0.2613
17707TIP3    H174536   2.691   1.678   0.474 -0.6715 -1.1380  0.0558
17707TIP3    H274537   2.705   1.541   0.410  0.2566 -0.9318 -0.1973
17708TIP3   OH274538   2.505   2.084  14.498  0.0304 -0.0611  0.3943
17708TIP3    H174539   2.457   2.102  14.579  1.9886  0.2557  1.5604
17708TIP3    H274540   2.540   1.996  14.510 -0.0105 -0.1775 -0.3024
17709TIP3   OH274541   6.276   2.183  17.258 -0.2608 -0.6466 -0.1287
17709TIP3    H174542   6.369   2.201  17.268 -0.0620 -2.2441  1.6551
17709TIP3    H274543   6.260   2.187  17.164  1.7337 -0.8800 -0.5148
17710TIP3   OH274544   1.047   6.165   5.650  0.3464  0.1586 -0.9663
17710TIP3    H174545   1.052   6.246   5.599  1.1653  0.3631 -0.5811
17710TIP3    H274546   1.029   6.097   5.585 -0.8789  0.7100 -1.2210
17711TIP3   OH274547   1.057   6.703   0.117  0.0033 -0.2678 -0.0509
17711TIP3    H174548   1.137   6.752   0.139  0.3377 -0.3927 -0.9560
17711TIP3    H274549   1.085   6.611   0.116 -0.2003 -0.3282 -0.1624
17712TIP3   OH274550   3.442   1.648  12.094 -0.0219  0.0117  0.2034
17712TIP3    H174551   3.464   1.735  12.059 -0.3468 -0.3444 -0.9381
17712TIP3    H274552   3.347   1.650  12.103 -0.1687 -0.6400 -1.0303
17713TIP3   OH274553   6.089   3.497  11.815  0.2302 -0.5400  0.3438
17713TIP3    H174554   6.067   3.537  11.899 -0.0666 -0.7704  0.3774
17713TIP3    H274555   6.149   3.559  11.774 -0.7895  0.3091  0.0797
17714TIP3   OH274556   0.415   2.038  10.864  0.2092  0.3324 -0.1693
17714TIP3    H174557   0.365   2.107  10.909 -0.6015  0.4193 -1.1718
17714TIP3    H274558   0.454   2.083  10.789  0.8185 -0.0050 -0.0563
17715TIP3   OH274559   0.761   5.539   2.434  0.0824 -0.6968  0.0385
17715TIP3    H174560   0.712   5.509   2.510  0.4629 -0.3725  0.4164
17715TIP3    H274561   0.694   5.567   2.371 -0.2261  0.5561  0.8857
17716TIP3   OH274562   5.743   5.206   6.121 -0.6144  0.0393 -0.0490
17716TIP3    H174563   5.721   5.156   6.043  1.3005  0.4136 -0.8772
17716TIP3    H274564   5.835   5.229   6.110 -0.0649 -0.4902  2.6425
17717TIP3   OH274565   6.769   1.438  15.254  0.1027  0.2797  0.5653
17717TIP3    H174566   6.830   1.411  15.185 -2.2419 -0.1092 -1.5337
17717TIP3    H274567   6.774   1.534  15.254 -0.4141  0.3378 -0.7775
17718TIP3   OH274568   6.355   0.785   4.025 -0.2050  0.3457  0.1124
17718TIP3    H174569   6.288   0.722   4.052 -0.3492 -0.2587 -1.5791
17718TIP3    H274570   6.341   0.798   3.931  1.8282  0.4645 -0.2345
17719TIP3   OH274571   2.940   2.889   5.633  0.2199 -0.1533 -0.2241
17719TIP3    H174572   3.003   2.850   5.694  0.0905 -0.8392 -0.5175
17719TIP3    H274573   2.947   2.983   5.648 -0.7378 -0.3483  1.7802
17720TIP3   OH274574   4.066   2.200  14.607 -0.3694  0.0913  0.0070
17720TIP3    H174575   4.070   2.110  14.639  1.0602  0.7082  1.6963
17720TIP3    H274576   3.972   2.216  14.593 -0.5517 -2.1743 -2.0584
17721TIP3   OH274577   5.603   4.223   5.135  0.1169  0.3682  0.2615
17721TIP3    H174578   5.544   4.265   5.198  0.5571  2.0048 -0.3670
17721TIP3    H274579   5.633   4.144   5.180 -1.9105 -0.1096  0.9137
17722TIP3   OH274580   4.584   2.109  11.462 -0.5946  0.3592  0.0512
17722TIP3    H174581   4.633   2.027  11.458 -2.9391 -1.0915 -0.9407
17722TIP3    H274582   4.645   2.175  11.430  0.8632 -1.2413 -0.6392
17723TIP3   OH274583   4.278   0.663  12.587  0.0771  0.4847 -0.0381
17723TIP3    H174584   4.220   0.707  12.650  0.1210  0.2079  0.1999
17723TIP3    H274585   4.255   0.571  12.594  2.9770 -0.2241  2.7779
17724TIP3   OH274586   2.941   3.522  14.519  0.0990  0.1923  0.5071
17724TIP3    H174587   2.976   3.601  14.479  1.3977 -0.0456  1.0989
17724TIP3    H274588   2.846   3.530  14.511  0.2442  1.3791 -0.2288
17725TIP3   OH274589   1.077   4.798  15.037 -0.3003  0.0953  0.0639
17725TIP3    H174590   1.164   4.760  15.025  0.9810  3.3020 -2.4580
17725TIP3    H274591   1.073   4.818  15.131  0.9727 -1.5869  0.5206
17726TIP3   OH274592   0.406   2.838  14.482 -0.4308 -0.2328 -0.2305
17726TIP3    H174593   0.415   2.867  14.391  0.7180  0.3247  0.0414
17726TIP3    H274594   0.327   2.881  14.513  0.2659  1.2360 -0.3832
17727TIP3   OH274595   2.849   3.624  14.223 -0.1853 -0.0449  0.1131
17727TIP3    H174596   2.905   3.691  14.262  0.3539 -0.0435 -0.6451
17727TIP3    H274597   2.831   3.656  14.135  0.9837 -1.3927 -0.6581
17728TIP3   OH274598   0.724   0.459   3.713  0.5334  0.3066  0.7541
17728TIP3    H174599   0.708   0.524   3.781 -1.3531  0.2920  0.3663
17728TIP3    H274600   0.727   0.510   3.631  0.3755  0.0632  0.5949
17729TIP3   OH274601   5.465   1.027   3.019 -0.0722 -0.0447  0.4113
17729TIP3    H174602   5.493   0.999   3.106 -0.1981 -1.8734 -0.0952
17729TIP3    H274603   5.389   0.972   3.000 -1.6010  2.0439  0.1209
17730TIP3   OH274604   5.238   4.102  11.871 -0.2864  0.3376  0.2180
17730TIP3    H174605   5.268   4.033  11.929  0.2956  0.7338  0.4025
17730TIP3    H274606   5.175   4.060  11.813 -0.6986 -0.1134  0.9824
17731TIP3   OH274607   6.240   1.338  16.630 -0.1140 -0.7360  0.1755
17731TIP3    H174608   6.173   1.272  16.613 -1.5561  0.1539  2.1184
17731TIP3    H274609   6.302   1.327  16.558 -1.1922 -3.0328 -0.5127
17732TIP3   OH274610   3.057   2.191  17.110  0.4391  0.1327 -0.2447
17732TIP3    H174611   3.011   2.150  17.184 -0.2972  1.5065  0.0790
17732TIP3    H274612   3.070   2.119  17.048 -0.5015 -0.6784  0.4579
17733TIP3   OH274613   6.205   3.460  12.600  0.7482  0.4544  0.5161
17733TIP3    H174614   6.209   3.365  12.604 -0.3690  0.4078  0.8575
17733TIP3    H274615   6.120   3.479  12.560  0.5995  1.3078  1.2116
17734TIP3   OH274616   6.196   1.513  15.287 -0.3093  0.3414  0.3242
17734TIP3    H174617   6.222   1.586  15.231  1.5989 -0.7545 -0.2920
17734TIP3    H274618   6.199   1.436  15.230  0.1626 -0.5763  1.5308
17735TIP3   OH274619   0.536   3.830  13.471 -0.2351 -0.1711  0.1035
17735TIP3    H174620   0.444   3.835  13.449 -0.2518  2.1929  0.4857
17735TIP3    H274621   0.551   3.904  13.531  1.3581 -2.0013  2.1432
17736TIP3   OH274622   2.024   2.597   1.740  0.3928 -0.0220 -0.2127
17736TIP3    H174623   1.996   2.657   1.671  1.1799  0.7677  0.1368
17736TIP3    H274624   2.034   2.513   1.696  1.6728  0.6398 -1.2538
17737TIP3   OH274625   1.559   5.626  12.035  0.2822  0.1276  0.1086
17737TIP3    H174626   1.550   5.630  12.130  0.1343  2.2579  0.0600
17737TIP3    H274627   1.653   5.619  12.020  0.2668 -0.7813  0.4068
17738TIP3   OH274628   0.606   6.445   2.842 -0.4349 -1.0173  0.8175
17738TIP3    H174629   0.671   6.375   2.828  0.3055 -0.4485  1.2996
17738TIP3    H274630   0.659   6.523   2.859 -1.1916  0.0951 -1.4837
17739TIP3   OH274631   2.471   2.476  16.805  0.0121  0.6808 -0.0415
17739TIP3    H174632   2.444   2.549  16.750  1.9358 -0.1792 -2.3039
17739TIP3    H274633   2.394   2.419  16.809 -0.2829  0.9444 -1.5865
17740TIP3   OH274634   5.380   1.437  13.799  0.2463 -0.0046 -0.1147
17740TIP3    H174635   5.347   1.467  13.884 -0.4108 -0.2735 -0.2665
17740TIP3    H274636   5.377   1.515  13.744  0.3952  0.1010  0.0236
17741TIP3   OH274637   4.822   0.380  16.341  0.2496  0.5593  0.0990
17741TIP3    H174638   4.748   0.441  16.346  0.1384  1.0377 -3.9287
17741TIP3    H274639   4.782   0.297  16.314  0.8338 -0.3387  1.8253
17742TIP3   OH274640   4.680   2.570   4.078  0.1417 -0.4064 -0.0188
17742TIP3    H174641   4.729   2.552   4.158 -2.0602 -4.2646  0.7257
17742TIP3    H274642   4.591   2.541   4.098 -1.1106  0.9361 -3.0951
17743TIP3   OH274643   0.966   5.342   2.363  0.3607  0.5460 -0.4666
17743TIP3    H174644   0.872   5.355   2.375  0.3211 -0.4385  0.4470
17743TIP3    H274645   1.007   5.401   2.426  0.4007  1.6058 -1.4520
17744TIP3   OH274646   0.541   3.534   3.238  0.6719  0.2003  0.6924
17744TIP3    H174647   0.604   3.527   3.166  0.3049  0.1471  0.3761
17744TIP3    H274648   0.554   3.622   3.273  1.3444 -0.0162  1.0244
17745TIP3   OH274649   5.598   2.190   0.892 -0.1244  0.5709  0.3681
17745TIP3    H174650   5.650   2.270   0.897  0.3498  0.3636 -0.8767
17745TIP3    H274651   5.523   2.213   0.837 -1.9200  1.1314  2.8776
17746TIP3   OH274652   0.113   3.398   2.774 -0.2069 -0.4452 -0.1181
17746TIP3    H174653   0.152   3.464   2.717 -1.1907  0.3886  0.1591
17746TIP3    H274654   0.019   3.414   2.770 -0.2613  0.5648  2.8007
17747TIP3   OH274655   3.113   3.071  14.379  0.3681  0.3018 -0.1120
17747TIP3    H174656   3.038   3.012  14.391  0.2953  0.3873 -0.1462
17747TIP3    H274657   3.094   3.146  14.436  0.4331  0.3196 -0.1132
17748TIP3   OH274658   1.624   1.707   4.584 -0.3468  0.1172 -0.2729
17748TIP3    H174659   1.588   1.747   4.663 -0.3888  1.2564 -0.8474
17748TIP3    H274660   1.608   1.772   4.515 -0.8162 -1.0785 -1.3373
17749TIP3   OH274661   4.455   4.535   2.319 -0.4144  0.2933  0.0469
17749TIP3    H174662   4.440   4.510   2.228  0.0583  0.1995 -0.0106
17749TIP3    H274663   4.419   4.463   2.370  0.2542 -0.1589 -0.0996
17750TIP3   OH274664   0.525   3.289   0.102 -0.6025 -0.3863  0.5186
17750TIP3    H174665   0.597   3.226   0.088  0.1967  0.2159  1.7633
17750TIP3    H274666   0.519   3.297   0.197  0.8210  3.0476  0.4731
17751TIP3   OH274667   3.852   6.376   4.351  0.1954  1.3178 -0.0324
17751TIP3    H174668   3.829   6.305   4.412  2.1043  1.2490  0.6882
17751TIP3    H274669   3.768   6.410   4.320 -0.7942  0.1028  1.2081
17752TIP3   OH274670   2.470   2.417   1.168 -0.4429 -0.1310  0.1578
17752TIP3    H174671   2.406   2.462   1.113 -1.5192 -1.1933  0.4941
17752TIP3    H274672   2.546   2.475   1.170 -1.3799  1.1420 -0.2913
17753TIP3   OH274673   3.360   0.127   1.033  0.0351 -0.1380 -0.4054
17753TIP3    H174674   3.353   0.032   1.029  0.4371 -0.1283 -1.9628
17753TIP3    H274675   3.269   0.157   1.041 -0.3718 -0.6095 -2.4697
17754TIP3   OH274676   1.229   1.039   0.592  0.6100  0.4160  0.0478
17754TIP3    H174677   1.196   1.108   0.649 -1.2380 -0.7076  0.4011
17754TIP3    H274678   1.195   1.061   0.505  1.3197  0.7513 -0.1595
17755TIP3   OH274679   4.339   3.532   3.921 -0.0896  0.1994  0.1174
17755TIP3    H174680   4.248   3.535   3.890 -0.2538  0.1665  0.5760
17755TIP3    H274681   4.372   3.448   3.891 -0.8487 -0.6902  1.6271
17756TIP3   OH274682   3.675   5.662   3.139 -0.3385 -0.0969  0.3306
17756TIP3    H174683   3.622   5.644   3.216 -0.3048 -1.3904  0.0607
17756TIP3    H274684   3.747   5.716   3.172 -0.0273 -1.0839  1.3089
17757TIP3   OH274685   1.162   0.801   4.246  0.3235  0.1684  0.3794
17757TIP3    H174686   1.197   0.758   4.324 -0.4551 -0.3179  0.4732
17757TIP3    H274687   1.239   0.826   4.196  0.8312  0.3793  1.2471
17758TIP3   OH274688   2.351   2.062   0.832  0.1632 -0.4050 -0.0749
17758TIP3    H174689   2.405   2.124   0.783  0.4612 -0.1287  0.5858
17758TIP3    H274690   2.264   2.102   0.836  0.0807 -0.5331 -0.5606
17759TIP3   OH274691   6.641   0.650   4.923 -0.2712  0.7758  0.1430
17759TIP3    H174692   6.732   0.680   4.917  0.3599 -0.9876  0.2454
17759TIP3    H274693   6.648   0.556   4.943 -2.1230  1.1517  3.2716
17760TIP3   OH274694   2.239   2.576  11.180  0.1125 -0.2622  0.3030
17760TIP3    H174695   2.202   2.574  11.267  0.0224 -1.4601  0.2519
17760TIP3    H274696   2.185   2.517  11.128 -0.3972  1.1134 -0.8154
17761TIP3   OH274697   4.277   6.625   2.592  0.0676 -0.1446 -0.5547
17761TIP3    H174698   4.330   6.551   2.562 -3.0529 -1.2465 -4.1622
17761TIP3    H274699   4.224   6.589   2.663  1.3289 -0.1313  0.4290
17762TIP3   OH274700   5.193   2.922  11.281  0.5874  0.0619  0.3523
17762TIP3    H174701   5.118   2.970  11.318  1.0305  0.4680  0.7286
17762TIP3    H274702   5.264   2.986  11.280  0.5723  0.0803 -1.2676
17763TIP3   OH274703   4.772   4.210  16.894  0.2833 -0.3347 -0.2823
17763TIP3    H174704   4.747   4.156  16.969  0.8799  0.1657  0.2933
17763TIP3    H274705   4.864   4.188  16.879  0.0191 -0.8409 -1.2319
17764TIP3   OH274706   1.708   6.092  15.352  0.4831  0.2486 -0.1892
17764TIP3    H174707   1.748   6.121  15.270  1.0511 -0.4332 -0.1672
17764TIP3    H274708   1.637   6.034  15.324  0.6764  0.0169 -0.2107
17765TIP3   OH274709   3.127   1.492  11.424 -0.1055 -0.1190  0.0083
17765TIP3    H174710   3.220   1.489  11.402  0.1576 -0.5029  1.1036
17765TIP3    H274711   3.086   1.531  11.347  0.7098 -1.6279 -1.2556
17766TIP3   OH274712   4.017   5.626  17.044 -0.9688  0.5232  0.7233
17766TIP3    H174713   3.979   5.544  17.076  0.3096 -0.6457 -0.6072
17766TIP3    H274714   4.000   5.689  17.114 -2.5840 -0.6860  1.4931
17767TIP3   OH274715   1.701   4.063  15.975  0.3880 -0.0449  0.0089
17767TIP3    H174716   1.784   4.053  16.022  0.3834 -0.1229  0.0001
17767TIP3    H274717   1.680   3.975  15.945  0.5400  0.0579 -0.3977
17768TIP3   OH274718   2.667   0.753  11.656 -0.5896 -0.2024  0.2827
17768TIP3    H174719   2.734   0.792  11.601 -0.6313 -0.0451  0.3426
17768TIP3    H274720   2.623   0.689  11.600  0.3423 -1.1176  0.5687
17769TIP3   OH274721   2.024   6.642   5.944 -0.8144  0.0228 -0.1482
17769TIP3    H174722   1.932   6.666   5.945 -1.3624 -1.6305  2.8358
17769TIP3    H274723   2.026   6.552   5.977  1.8929  0.2463  0.5488
17770TIP3   OH274724   5.843   1.716  17.171  0.5177  0.0632  0.0810
17770TIP3    H174725   5.749   1.731  17.157  0.8492  0.6614 -1.6431
17770TIP3    H274726   5.847   1.680  17.260 -1.3441 -0.0519  0.1755
17771TIP3   OH274727   2.656   5.457  13.816 -0.1108 -0.1080  0.1367
17771TIP3    H174728   2.640   5.544  13.779  0.5989 -1.2512 -3.2295
17771TIP3    H274729   2.585   5.403  13.782  1.4182 -1.5633 -0.8855
17772TIP3   OH274730   6.563   4.885  15.845  0.0808 -0.0203 -0.1472
17772TIP3    H174731   6.599   4.914  15.760  0.6492 -2.7010 -0.9218
17772TIP3    H274732   6.483   4.839  15.822 -0.0658 -0.2649  0.8462
17773TIP3   OH274733   0.901   3.611   4.278 -0.6128  0.2288  0.3996
17773TIP3    H174734   0.823   3.565   4.247 -0.9324  0.0579  1.4276
17773TIP3    H274735   0.931   3.560   4.354 -0.0842  0.8557  0.6209
17774TIP3   OH274736   0.484   4.545   2.974  0.6911 -0.7307  0.0678
17774TIP3    H174737   0.571   4.578   2.994 -0.3370  0.9238  2.1651
17774TIP3    H274738   0.424   4.601   3.024 -1.4797 -2.8988  0.1151
17775TIP3   OH274739   0.301   2.270  15.868  0.9102 -0.4703  0.2060
17775TIP3    H174740   0.301   2.334  15.797  1.0697 -0.4868  0.1902
17775TIP3    H274741   0.305   2.185  15.823 -0.8247 -0.5639  0.1680
17776TIP3   OH274742   6.595   4.305   2.395  0.2371 -0.2157  0.1583
17776TIP3    H174743   6.551   4.387   2.370  1.8897  0.8349  0.5091
17776TIP3    H274744   6.644   4.328   2.474  2.3341 -0.9677 -0.8440
17777TIP3   OH274745   3.045   2.353  15.747  0.0770 -0.4588  0.1853
17777TIP3    H174746   2.981   2.282  15.758  0.3627 -0.9921 -1.2631
17777TIP3    H274747   3.010   2.405  15.675  0.7019 -0.0984  0.1398
17778TIP3   OH274748   4.082   3.684  15.671 -0.2264 -0.4428  0.3381
17778TIP3    H174749   4.000   3.635  15.669  0.2519 -1.2798 -2.2999
17778TIP3    H274750   4.147   3.620  15.702 -0.0401 -0.7497 -0.6628
17779TIP3   OH274751   4.931   2.686  16.486  0.7422 -0.1422 -0.1705
17779TIP3    H174752   4.900   2.595  16.490  0.2701  0.0398  0.4248
17779TIP3    H274753   4.929   2.717  16.576  3.2807 -0.2903  0.0135
17780TIP3   OH274754   6.341   6.594  13.365  0.2026  0.0188 -0.2851
17780TIP3    H174755   6.337   6.543  13.446  0.9249  0.0606 -0.2185
17780TIP3    H274756   6.386   6.675  13.390  0.4289  0.0333 -0.7284
17781TIP3   OH274757   2.002   5.904   1.633  0.1189  0.3070 -0.5485
17781TIP3    H174758   2.062   5.832   1.616  0.5684  0.9283 -1.7224
17781TIP3    H274759   1.960   5.882   1.717  1.7569 -0.2749  0.1514
17782TIP3   OH274760   4.109   2.227   3.286 -0.1702  0.0803  0.4124
17782TIP3    H174761   4.055   2.263   3.216  1.1042 -2.7258 -2.2724
17782TIP3    H274762   4.197   2.261   3.269  0.1476 -0.6033  0.6356
17783TIP3   OH274763   2.121   5.698   4.323  0.0446 -0.0495 -0.0382
17783TIP3    H174764   2.158   5.760   4.386  0.6135 -1.5209  1.1610
17783TIP3    H274765   2.146   5.612   4.358  2.2866 -0.9641 -3.3773
17784TIP3   OH274766   1.278   0.771   0.229 -0.2679 -0.1157 -0.4286
17784TIP3    H174767   1.183   0.785   0.224 -0.4394 -0.6473  0.9200
17784TIP3    H274768   1.314   0.834   0.166 -1.4767  0.5182 -0.5317
17785TIP3   OH274769   6.478   4.463   1.032 -0.3036 -0.2190 -0.2256
17785TIP3    H174770   6.520   4.491   0.950 -0.1438 -1.0300 -0.4283
17785TIP3    H274771   6.425   4.388   1.007  1.3516 -1.8003  0.7620
17786TIP3   OH274772   5.866   2.353   5.293 -0.0072  0.5097  0.0663
17786TIP3    H174773   5.820   2.271   5.281 -1.4419  0.9436  1.9975
17786TIP3    H274774   5.818   2.416   5.240  0.1051  0.4236 -0.1394
17787TIP3   OH274775   4.201   1.129  15.411  0.8293 -0.0081 -0.1420
17787TIP3    H174776   4.207   1.039  15.379  0.2077 -0.1837  0.2250
17787TIP3    H274777   4.114   1.134  15.452  1.0006  0.6562  0.1453
17788TIP3   OH274778   4.444   0.775   5.129 -0.1559 -0.4975 -0.5820
17788TIP3    H174779   4.484   0.853   5.091 -0.2124  0.9947  2.1167
17788TIP3    H274780   4.518   0.716   5.145  0.5505  0.7365  1.0267
17789TIP3   OH274781   4.782   2.972   0.605  0.1284 -0.1265  0.4988
17789TIP3    H174782   4.876   2.990   0.598  0.1532 -0.7309 -1.7887
17789TIP3    H274783   4.774   2.880   0.579 -0.8842 -0.8558  3.1463
17790TIP3   OH274784   2.824   1.492  14.477 -0.4026 -0.1820 -0.3035
17790TIP3    H174785   2.793   1.561  14.420  0.8234  0.6335 -0.0190
17790TIP3    H274786   2.838   1.534  14.562 -2.8469 -1.5006  0.8675
17791TIP3   OH274787   0.952   0.447   6.778 -0.0828 -0.0147 -0.0447
17791TIP3    H174788   0.858   0.450   6.792 -0.0718  0.4934 -0.0381
17791TIP3    H274789   0.979   0.361   6.809 -0.6432 -0.4228 -0.6760
17792TIP3   OH274790   5.076   2.353   1.010 -0.8551 -0.1588 -0.1044
17792TIP3    H174791   5.161   2.348   1.053 -0.1110  1.0044 -1.3216
17792TIP3    H274792   5.078   2.284   0.943  0.0743  1.2184 -1.5858
17793TIP3   OH274793   6.097   2.200  15.570 -0.2892 -0.1788 -0.2960
17793TIP3    H174794   6.068   2.158  15.650 -0.5428 -0.2581 -0.4285
17793TIP3    H274795   6.152   2.273  15.599  1.7167 -1.6897 -0.0769
17794TIP3   OH274796   4.148   4.789   5.882  0.4972 -0.2013  0.3175
17794TIP3    H174797   4.097   4.724   5.931  1.0732 -0.4874  0.5414
17794TIP3    H274798   4.238   4.777   5.912  1.4027 -2.2912 -2.7499
17795TIP3   OH274799   4.899   4.344  14.685  0.5687  0.4580 -0.4280
17795TIP3    H174800   4.945   4.428  14.686  1.1004  0.1785  0.4936
17795TIP3    H274801   4.855   4.341  14.600  1.7573  1.0105 -1.0898
17796TIP3   OH274802   0.412   0.970  10.870  0.6992 -0.1390  0.0858
17796TIP3    H174803   0.441   1.044  10.922 -0.0414  0.3940 -0.2437
17796TIP3    H274804   0.479   0.961  10.802  0.4945  0.6011 -0.2203
17797TIP3   OH274805   2.817   2.884   4.746 -0.2657 -0.4689  0.0783
17797TIP3    H174806   2.842   2.808   4.693 -1.9768  0.5213 -2.3863
17797TIP3    H274807   2.721   2.882   4.746 -0.3433  1.4932  0.1880
17798TIP3   OH274808   4.165   2.356   0.889 -0.0485  0.0970 -0.2521
17798TIP3    H174809   4.153   2.447   0.914  0.9180  1.2128 -3.3217
17798TIP3    H274810   4.258   2.340   0.900  0.0834  0.0657 -1.3041
17799TIP3   OH274811   4.278   5.439   2.141 -0.1035  0.4399  0.4839
17799TIP3    H174812   4.257   5.498   2.070  1.2556  1.2395  0.7046
17799TIP3    H274813   4.300   5.496   2.214 -0.0600 -0.3561  1.1117
17800TIP3   OH274814   6.240   1.023   2.358  0.1903 -0.3072 -0.4367
17800TIP3    H174815   6.305   0.965   2.397 -0.7471 -0.6631  0.6542
17800TIP3    H274816   6.246   1.104   2.408 -0.5395 -0.5225  0.0241
17801TIP3   OH274817   6.554   5.538   4.217 -0.9669  0.7616 -0.5286
17801TIP3    H174818   6.508   5.495   4.145 -0.7140  1.2388 -0.9836
17801TIP3    H274819   6.541   5.480   4.292 -3.9060  1.7830 -0.1354
17802TIP3   OH274820   4.195   2.390   1.981 -0.1767 -0.7234 -0.0162
17802TIP3    H174821   4.179   2.376   2.074  0.1402 -1.5928 -0.0809
17802TIP3    H274822   4.278   2.438   1.977 -0.8786  0.5218  0.1906
17803TIP3   OH274823   6.591   0.180   3.900  0.0554 -0.2020 -0.4424
17803TIP3    H174824   6.578   0.086   3.904  2.7225 -0.7692 -2.2709
17803TIP3    H274825   6.523   0.211   3.840  0.2326 -1.2587 -1.2100
17804TIP3   OH274826   0.636   0.231  15.658 -0.2370 -0.0117 -0.0519
17804TIP3    H174827   0.614   0.298  15.723  0.2701 -1.9181  2.2174
17804TIP3    H274828   0.586   0.154  15.685  0.2381 -0.9663 -1.7648
17805TIP3   OH274829   3.352   3.402  12.603 -0.0830 -0.0841  0.4547
17805TIP3    H174830   3.441   3.431  12.624  0.8310 -1.8623 -0.6835
17805TIP3    H274831   3.360   3.361  12.517 -2.0183 -0.3276  0.3437
17806TIP3   OH274832   6.459   2.851  15.662  0.7963  0.1386  0.0183
17806TIP3    H174833   6.526   2.899  15.711  0.5846  1.4989 -0.9764
17806TIP3    H274834   6.509   2.790  15.607  1.3110  1.6097 -1.2147
17807TIP3   OH274835   3.889   4.786   3.062 -0.3493  0.5498 -0.8424
17807TIP3    H174836   3.808   4.769   3.110 -0.7388  1.3035 -1.2102
17807TIP3    H274837   3.885   4.728   2.986 -0.3878  0.3415 -0.6799
17808TIP3   OH274838   3.860   1.717  16.184 -0.0157  0.1894  0.1224
17808TIP3    H174839   3.902   1.755  16.261  1.1538  0.2938 -0.5370
17808TIP3    H274840   3.916   1.744  16.111 -1.4353  0.6064 -0.8492
17809TIP3   OH274841   6.751   4.928   2.631 -0.1851  0.0356  0.6558
17809TIP3    H174842   6.744   4.936   2.536 -0.2166  0.2531  0.6762
17809TIP3    H274843   6.824   4.868   2.644 -0.4587 -0.3378  0.4877
17810TIP3   OH274844   1.459   1.738   1.167 -0.8520 -0.0594  0.4540
17810TIP3    H174845   1.364   1.746   1.158 -0.7932  1.4139  0.8063
17810TIP3    H274846   1.473   1.720   1.260 -0.7305  1.9240  0.8709
17811TIP3   OH274847   5.741   3.792  16.658  0.0285 -0.1251 -0.5515
17811TIP3    H174848   5.796   3.788  16.736  2.6056 -0.1401 -2.2633
17811TIP3    H274849   5.722   3.885  16.646 -0.2285 -0.1078 -0.0073
17812TIP3   OH274850   3.987   4.258   4.845 -0.3291 -0.3209  0.0454
17812TIP3    H174851   4.029   4.208   4.774 -0.9374 -1.2060  0.2944
17812TIP3    H274852   4.031   4.343   4.843 -0.7244 -0.1225 -1.7697
17813TIP3   OH274853   6.772   4.886   0.447 -0.1968  0.1087  0.3302
17813TIP3    H174854   6.770   4.951   0.518 -1.7067  1.7137 -1.0541
17813TIP3    H274855   6.749   4.937   0.369 -2.4514 -2.2622 -0.6887
17814TIP3   OH274856   3.601   3.316   1.678  0.2893  0.0764  0.2979
17814TIP3    H174857   3.527   3.349   1.729  0.9577  1.3507  0.5005
17814TIP3    H274858   3.677   3.360   1.716  1.1869 -1.3956  0.2565
17815TIP3   OH274859   2.556   2.732  14.418 -0.0012 -0.1832  0.5075
17815TIP3    H174860   2.586   2.804  14.474  0.4511 -0.4487  0.6162
17815TIP3    H274861   2.518   2.668  14.478  1.7354 -1.1040  0.7073
17816TIP3   OH274862   5.381   0.551  14.790  0.3437  0.3716 -0.5251
17816TIP3    H174863   5.368   0.458  14.809  0.5151  0.5558  0.5680
17816TIP3    H274864   5.476   0.559  14.777  0.2539  0.2885 -1.2888
17817TIP3   OH274865   0.837   6.480  13.589  0.1032 -0.2936 -1.1917
17817TIP3    H174866   0.838   6.458  13.683 -0.5092  0.4922 -0.9934
17817TIP3    H274867   0.747   6.466  13.562 -0.0412  0.8261 -1.3271
17818TIP3   OH274868   0.815   0.354   2.588  0.0250 -0.5676 -0.2313
17818TIP3    H174869   0.802   0.413   2.662 -0.3973 -1.5240  0.4768
17818TIP3    H274870   0.745   0.377   2.526 -0.3975 -0.6162  0.2260
17819TIP3   OH274871   0.068   5.784  16.246 -0.4818  0.2542 -0.1915
17819TIP3    H174872   0.030   5.865  16.213  1.3750  0.7753 -1.1954
17819TIP3    H274873   0.041   5.780  16.338 -0.4815  2.0911 -0.0902
17820TIP3   OH274874   5.305   3.697  17.077  0.1643 -0.4522 -0.5814
17820TIP3    H174875   5.335   3.755  17.147  0.5453 -2.2958  0.8877
17820TIP3    H274876   5.246   3.751  17.025 -0.0000  1.0709  1.0686
17821TIP3   OH274877   5.682   6.756  11.059  0.4332 -0.6517 -0.3741
17821TIP3    H174878   5.730   6.735  10.979 -0.8245  1.7374 -1.8791
17821TIP3    H274879   5.604   6.801  11.029 -0.3041 -0.0183  2.2182
17822TIP3   OH274880   4.015   4.317  14.226 -0.0230  0.1373 -0.0358
17822TIP3    H174881   3.990   4.227  14.210 -0.3612 -0.0258  1.3143
17822TIP3    H274882   4.100   4.311  14.269  0.5515  0.5297 -1.0813
17823TIP3   OH274883   4.970   0.088   2.729  0.0273 -0.4095 -0.5979
17823TIP3    H174884   5.042   0.036   2.693  0.2087 -0.8376  0.3543
17823TIP3    H274885   5.008   0.174   2.744 -0.3647  0.1425 -2.5049
17824TIP3   OH274886   1.662   0.238  11.244 -0.0611  0.0354 -0.6965
17824TIP3    H174887   1.626   0.152  11.263 -0.2456  0.0271 -1.0829
17824TIP3    H274888   1.655   0.247  11.149 -0.6966  0.7615 -0.5909
17825TIP3   OH274889   0.596   1.446   0.928  0.8453 -0.2620  0.0340
17825TIP3    H174890   0.629   1.511   0.990  0.8528 -0.2444  0.0116
17825TIP3    H274891   0.556   1.498   0.858  2.9942 -0.2139 -1.2161
17826TIP3   OH274892   0.027   5.500   2.477 -0.2211  0.6375  0.1867
17826TIP3    H174893   0.030   5.408   2.452  0.3181  0.9756 -1.0957
17826TIP3    H274894   0.092   5.542   2.421 -1.7970  2.0912 -0.6636
17827TIP3   OH274895   2.920   6.509  10.891 -0.4187 -1.0337  0.2446
17827TIP3    H174896   2.904   6.554  10.809  0.4731 -0.5342  0.3256
17827TIP3    H274897   2.836   6.508  10.936 -0.3390  1.1967  0.5502
17828TIP3   OH274898   5.238   4.136   2.757  0.3217  0.2773 -0.0259
17828TIP3    H174899   5.165   4.184   2.718 -0.3025 -0.5512  0.0946
17828TIP3    H274900   5.312   4.155   2.700  0.1950  1.7142  0.2640
17829TIP3   OH274901   1.080   1.050  15.177  0.3400 -0.5145  0.2225
17829TIP3    H174902   1.083   0.964  15.135  1.9867 -0.4816  0.2021
17829TIP3    H274903   1.081   1.030  15.271  2.2696 -0.5476  0.2388
17830TIP3   OH274904   3.959   6.543   2.164  0.0110  0.1814 -0.8680
17830TIP3    H174905   3.919   6.507   2.084 -0.1924 -1.4002 -0.0905
17830TIP3    H274906   3.904   6.510   2.235  0.1638  1.6070 -0.0560
17831TIP3   OH274907   0.351   0.267  15.056  0.7298  0.0918  0.1597
17831TIP3    H174908   0.369   0.262  15.150  0.0307  1.1477  0.3772
17831TIP3    H274909   0.259   0.243  15.048  0.8925 -0.3879 -0.3084
17832TIP3   OH274910   5.981   4.562   5.346 -0.0613 -0.7194 -0.4744
17832TIP3    H174911   5.943   4.608   5.271 -1.1952 -0.3274  0.2991
17832TIP3    H274912   5.906   4.545   5.403  1.0313  1.0995  1.6753
17833TIP3   OH274913   1.529   0.115  14.544 -0.4274  0.1601  0.0893
17833TIP3    H174914   1.512   0.197  14.497 -0.2637 -0.1631 -0.5488
17833TIP3    H274915   1.549   0.142  14.633 -2.7995  0.6528  0.5261
17834TIP3   OH274916   0.035   2.852   5.301 -0.1730 -0.1810 -0.0957
17834TIP3    H174917   0.047   2.811   5.216  1.5465  0.4674 -0.1941
17834TIP3    H274918   0.082   2.797   5.363  1.0645  0.8984 -0.0339
17835TIP3   OH274919   3.596   1.002  16.496 -0.3236 -0.7655 -0.0033
17835TIP3    H174920   3.541   1.080  16.505  1.6372  0.6221  0.7685
17835TIP3    H274921   3.556   0.937  16.554 -0.8142  0.4046  1.0042
17836TIP3   OH274922   1.649   3.630  16.119  0.9403  0.0258 -0.0723
17836TIP3    H174923   1.628   3.537  16.108  0.9927 -0.0669  0.5867
17836TIP3    H274924   1.571   3.668  16.160  0.2263  0.6380 -1.8866
17837TIP3   OH274925   4.058   0.516   4.983 -0.1214 -0.5591 -0.3787
17837TIP3    H174926   4.097   0.601   5.004 -1.9662  0.3027 -0.2219
17837TIP3    H274927   4.005   0.494   5.060 -2.2210 -0.2436 -1.6575
17838TIP3   OH274928   6.764   1.325   5.681  0.1505  0.2254  0.8301
17838TIP3    H174929   6.707   1.266   5.731 -0.4696  0.2832  0.2028
17838TIP3    H274930   6.790   1.274   5.604 -1.4542  1.1569 -0.4072
17839TIP3   OH274931   0.992   4.127  10.679 -0.1167 -0.2675  0.2584
17839TIP3    H174932   1.035   4.084  10.605 -1.2033  0.3521 -0.7812
17839TIP3    H274933   1.063   4.163  10.731  0.6532  0.2733 -1.1111
17840TIP3   OH274934   6.419   5.988  14.647  0.1986 -0.2011 -0.0513
17840TIP3    H174935   6.408   5.901  14.608 -0.1447 -0.2465  0.1436
17840TIP3    H274936   6.413   6.049  14.573  1.1464 -0.3854 -0.2842
17841TIP3   OH274937   0.892   3.405  16.476  0.0260  0.8003  0.1525
17841TIP3    H174938   0.801   3.381  16.457  0.2159  0.8092 -0.8391
17841TIP3    H274939   0.941   3.323  16.467  0.2812  1.0170 -0.5050
17842TIP3   OH274940   5.768   6.427  15.930 -0.1475  0.1655 -0.1582
17842TIP3    H174941   5.861   6.445  15.923  0.0680 -0.1505  1.5667
17842TIP3    H274942   5.727   6.483  15.863  1.3517 -0.6706 -1.8564
17843TIP3   OH274943   0.154   6.323   6.106  0.0798  0.0280 -0.1930
17843TIP3    H174944   0.242   6.360   6.113  0.2522  0.0362 -1.8996
17843TIP3    H274945   0.153   6.249   6.167  1.3799 -0.1704 -0.4024
17844TIP3   OH274946   0.181   5.832  14.538  0.1272 -0.0315 -0.0338
17844TIP3    H174947   0.108   5.893  14.534 -1.3515 -1.7091  0.0893
17844TIP3    H274948   0.206   5.831  14.631  1.0982  1.3744 -0.2471
17845TIP3   OH274949   4.722   0.126  13.691 -0.3400  0.1309 -0.0296
17845TIP3    H174950   4.803   0.076  13.679  0.1795  0.8213  0.5350
17845TIP3    H274951   4.667   0.069  13.744 -0.3710 -0.4903 -0.7105
17846TIP3   OH274952   5.646   5.710  11.829 -0.0013 -0.5220  0.4933
17846TIP3    H174953   5.589   5.722  11.752 -0.2087 -0.8590  0.5948
17846TIP3    H274954   5.709   5.644  11.801  0.9572  0.5455  0.0401
17847TIP3   OH274955   3.542   4.687   3.984 -0.2132  0.5398  0.2378
17847TIP3    H174956   3.627   4.723   4.009  0.1921 -0.1487 -0.1225
17847TIP3    H274957   3.506   4.652   4.066  0.1232  0.2831  0.2792
17848TIP3   OH274958   3.453   6.541  17.087 -0.2300 -0.0844 -0.0050
17848TIP3    H174959   3.441   6.469  17.149 -0.1455 -0.0958 -0.0023
17848TIP3    H274960   3.517   6.598  17.129 -0.0250 -0.1920 -0.1719
17849TIP3   OH274961   6.039   3.518   3.321  0.5799  0.1467 -0.1870
17849TIP3    H174962   6.077   3.605   3.309  0.6124  0.2061  0.3243
17849TIP3    H274963   6.060   3.495   3.412  2.1828 -1.1871 -0.8473
17850TIP3   OH274964   6.181   4.051   5.024  0.4821  0.1983  0.0630
17850TIP3    H174965   6.099   4.033   5.071  0.1064 -1.5692 -1.2078
17850TIP3    H274966   6.234   4.099   5.088 -2.1313  2.9695  0.4074
17851TIP3   OH274967   0.785   3.494   2.639 -0.5037 -0.4931  0.5497
17851TIP3    H174968   0.711   3.465   2.693 -1.5864 -0.1735 -0.6977
17851TIP3    H274969   0.839   3.546   2.699 -1.1753 -0.8901  1.5398
17852TIP3   OH274970   1.826   1.240   1.699 -0.6302  0.0203  0.0083
17852TIP3    H174971   1.898   1.179   1.719  0.0040  1.1384  1.2959
17852TIP3    H274972   1.814   1.232   1.604  0.2448 -1.2229 -0.0263
17853TIP3   OH274973   3.393   5.123   2.321  0.0241 -0.6183  0.0822
17853TIP3    H174974   3.307   5.164   2.319  0.6953  0.8276 -0.8312
17853TIP3    H274975   3.387   5.057   2.390 -1.1040  1.0633  1.6949
17854TIP3   OH274976   0.212   4.286  13.742 -0.3234  0.6381  0.2453
17854TIP3    H174977   0.120   4.311  13.745 -1.0434 -1.8842  2.6280
17854TIP3    H274978   0.230   4.248  13.828  2.7262  0.2516 -0.4451
17855TIP3   OH274979   3.644   0.771  15.327 -0.4604  0.7479 -0.7762
17855TIP3    H174980   3.707   0.707  15.292 -0.1434  1.3237 -1.2888
17855TIP3    H274981   3.622   0.826  15.252  0.2107  1.9957 -0.1075
17856TIP3   OH274982   5.883   1.017   5.908  0.1167  0.8001 -0.0144
17856TIP3    H174983   5.818   1.056   5.966  0.9702  2.9597 -0.3903
17856TIP3    H274984   5.914   0.940   5.955 -2.2474  0.0547  0.4277
17857TIP3   OH274985   1.389   4.668  15.771 -0.2746  0.1076  0.7223
17857TIP3    H174986   1.401   4.754  15.731 -0.0890 -1.0318 -1.8972
17857TIP3    H274987   1.474   4.625  15.762 -0.4994 -0.5257  1.5273
17858TIP3   OH274988   4.726   0.983   0.825  0.3391  0.6883 -0.6257
17858TIP3    H174989   4.756   0.963   0.736  0.4155  1.7295 -0.8558
17858TIP3    H274990   4.798   1.034   0.863  0.0785  0.7144 -0.1647
17859TIP3   OH274991   1.863   4.369   6.049 -0.3124  0.0686 -0.3702
17859TIP3    H174992   1.888   4.282   6.081 -0.3202  0.7131  1.5685
17859TIP3    H274993   1.893   4.372   5.959 -1.8133 -2.5445 -1.0486
17860TIP3   OH274994   3.036   5.553   3.714  0.0998  0.3849  0.4820
17860TIP3    H174995   3.107   5.585   3.770 -1.1736 -0.9932  3.1226
17860TIP3    H274996   2.966   5.618   3.723 -0.9721 -0.9077  2.5712
17861TIP3   OH274997   5.558   4.257  13.532 -0.0607  0.2196 -0.1612
17861TIP3    H174998   5.564   4.282  13.624  1.5605  2.5522 -0.8039
17861TIP3    H274999   5.627   4.191  13.521 -0.3823 -0.2086  0.2848
17862TIP3   OH275000   3.683   2.215  11.026 -0.5548 -0.3113  0.2969
17862TIP3    H175001   3.738   2.238  11.100 -1.1128  0.7633  0.3946
17862TIP3    H275002   3.604   2.177  11.064 -0.9701  0.5152  0.2814
17863TIP3   OH275003   1.518   1.879  13.435  0.2211 -0.2531 -0.1103
17863TIP3    H175004   1.514   1.901  13.528 -2.3436  0.3477 -0.2778
17863TIP3    H275005   1.444   1.820  13.421  0.2664  0.0428 -1.8564
17864TIP3   OH275006   5.579   0.219  15.578 -0.0074 -0.2934  0.4412
17864TIP3    H175007   5.490   0.192  15.557 -0.0212 -0.4247  0.6628
17864TIP3    H275008   5.593   0.298  15.525 -0.6024  0.2822  1.1125
17865TIP3   OH275009   6.209   0.339  16.239 -0.1976  0.0437 -0.3596
17865TIP3    H175010   6.279   0.402  16.225 -1.5386  1.6213 -0.3012
17865TIP3    H275011   6.165   0.333  16.154 -0.0301 -0.9034 -0.3869
17866TIP3   OH275012   3.875   0.122   5.544 -0.5589 -0.5369  0.0352
17866TIP3    H175013   3.844   0.031   5.540 -1.0042 -0.3292 -2.3462
17866TIP3    H275014   3.894   0.136   5.637 -1.3648 -2.7590  0.6041
17867TIP3   OH275015   4.930   0.228   3.441  0.4466 -0.3985  0.5294
17867TIP3    H175016   4.875   0.235   3.520  1.4100  0.5218  1.1575
17867TIP3    H275017   4.932   0.135   3.422 -3.2433 -0.3390 -0.9538
17868TIP3   OH275018   1.551   6.295   6.636  0.8248 -0.0992 -0.2430
17868TIP3    H175019   1.476   6.236   6.643  1.9915 -1.5141  1.2731
17868TIP3    H275020   1.627   6.236   6.634  1.9627  1.3234 -0.4208
17869TIP3   OH275021   4.990   3.669   3.403 -0.2480 -0.1095 -0.3880
17869TIP3    H175022   5.080   3.638   3.407 -0.5125 -0.8935 -0.3622
17869TIP3    H275023   4.967   3.665   3.310 -0.6681 -1.1521 -0.2543
17870TIP3   OH275024   4.710   5.587  11.386 -0.1537 -0.1763  0.0449
17870TIP3    H175025   4.792   5.634  11.374 -0.0312 -0.8551 -2.1724
17870TIP3    H275026   4.647   5.634  11.331 -1.2155  0.1608  1.4829
17871TIP3   OH275027   3.023   4.746   5.694  0.1107  0.5003 -0.1039
17871TIP3    H175028   2.998   4.753   5.602  0.3651 -0.0535 -0.2177
17871TIP3    H275029   2.945   4.775   5.742  1.0195  3.9716 -0.5049
17872TIP3   OH275030   0.615   1.578   4.102  0.3920 -0.5769 -0.5415
17872TIP3    H175031   0.584   1.506   4.048 -1.1297 -0.2732 -0.1019
17872TIP3    H275032   0.675   1.536   4.164  1.6287 -1.0287 -1.9579
17873TIP3   OH275033   5.974   1.455  13.035  0.2744  0.3579  0.1715
17873TIP3    H175034   6.025   1.430  13.111  0.8481 -0.0272 -0.3360
17873TIP3    H275035   6.033   1.508  12.982  1.0095 -2.0938 -1.6228
17874TIP3   OH275036   1.640   6.580  14.330  0.2575 -0.3710  0.3264
17874TIP3    H175037   1.687   6.557  14.250  0.4964  1.1910 -0.0114
17874TIP3    H275038   1.690   6.538  14.400  1.5601  0.3922 -0.1214
17875TIP3   OH275039   5.072   3.648  16.348 -0.0402  0.5493  0.2700
17875TIP3    H175040   5.155   3.697  16.347 -0.0943  0.6490  0.6245
17875TIP3    H275041   5.018   3.692  16.282  0.8129 -0.6194 -1.2966
17876TIP3   OH275042   4.143   0.049   1.051 -0.1156  0.2039  0.1661
17876TIP3    H175043   4.050   0.069   1.047 -0.0903  0.1520 -0.9326
17876TIP3    H275044   4.148  -0.046   1.041  0.0100  0.1150  1.0455
17877TIP3   OH275045   4.257   4.703  11.424 -0.9676 -0.7007 -0.2337
17877TIP3    H175046   4.336   4.669  11.382 -0.6738  0.3619 -0.5601
17877TIP3    H275047   4.257   4.796  11.404 -0.7721 -0.1174  2.2184
17878TIP3   OH275048   6.710   0.781  12.955  0.3729 -0.1426  0.1656
17878TIP3    H175049   6.806   0.781  12.953  0.3600 -0.3201 -0.7694
17878TIP3    H275050   6.688   0.841  13.027  1.1829 -1.0107  1.1678
17879TIP3   OH275051   1.928   4.525  15.465 -0.3511  0.0059 -0.1560
17879TIP3    H175052   2.001   4.587  15.472 -0.5449  0.1472  0.6694
17879TIP3    H275053   1.894   4.538  15.376  1.2077 -0.7292 -0.9185
17880TIP3   OH275054   4.171   0.863   5.798 -0.2266  0.2959 -0.3338
17880TIP3    H175055   4.145   0.922   5.869  1.8819  1.2812 -0.3050
17880TIP3    H275056   4.168   0.776   5.837 -0.4362  0.6832  0.5477
17881TIP3   OH275057   0.366   6.120   5.225 -0.5140 -0.6562  0.9076
17881TIP3    H175058   0.295   6.056   5.212  1.0264 -2.1911 -0.3323
17881TIP3    H275059   0.384   6.154   5.138 -1.7728  2.1033  1.6296
17882TIP3   OH275060   5.370   0.191   4.488 -0.0734 -0.2135  0.0284
17882TIP3    H175061   5.349   0.099   4.471  0.0587  0.1209 -2.1983
17882TIP3    H275062   5.465   0.196   4.474 -0.2822  0.5160 -1.1797
17883TIP3   OH275063   6.528   2.899   2.035 -0.0291 -0.4308 -0.3002
17883TIP3    H175064   6.514   2.822   1.980  0.0087  1.0353 -2.4458
17883TIP3    H275065   6.453   2.899   2.095  0.6871 -2.8639  0.7045
17884TIP3   OH275066   3.420   5.254  17.225 -0.4374  0.1351  0.1421
17884TIP3    H175067   3.332   5.258  17.190 -0.4799 -1.2355  0.0412
17884TIP3    H275068   3.432   5.162  17.250  0.3392  0.6343  1.7576
17885TIP3   OH275069   2.620   6.480   4.751  0.6762 -0.3376 -0.0314
17885TIP3    H175070   2.678   6.525   4.812  0.6596  1.2077 -1.0905
17885TIP3    H275071   2.533   6.491   4.787  0.8074 -0.7312  0.4172
17886TIP3   OH275072   3.007   5.128   1.138  0.4515 -0.2514 -0.4762
17886TIP3    H175073   3.066   5.203   1.145 -1.0805  1.0476 -0.7465
17886TIP3    H275074   3.030   5.087   1.055  1.7341 -0.4941 -0.0262
17887TIP3   OH275075   4.196   2.668  11.429 -0.0006  0.2982  0.1459
17887TIP3    H175076   4.237   2.584  11.450  0.2484  0.0938 -1.1248
17887TIP3    H275077   4.164   2.700  11.514  0.8340 -0.5699  0.8149
17888TIP3   OH275078   3.711   1.184  12.226 -0.4831 -0.2243 -0.0970
17888TIP3    H175079   3.694   1.232  12.146 -1.8836  1.3355  1.0541
17888TIP3    H275080   3.760   1.245  12.281  1.4550 -1.6575 -0.1180
17889TIP3   OH275081   3.283   3.795  14.276  0.0985  0.0161 -0.1695
17889TIP3    H175082   3.199   3.839  14.282  0.5549  0.9336 -0.3096
17889TIP3    H275083   3.343   3.862  14.244  1.4147  0.0756  2.2260
17890TIP3   OH275084   0.260   6.696  16.937  0.1188 -0.4222  0.1949
17890TIP3    H175085   0.231   6.629  17.000  0.7779 -0.8195  0.0834
17890TIP3    H275086   0.274   6.648  16.856  2.8750 -0.6341  0.7037
17891TIP3   OH275087   1.327   3.441  14.076  0.2393  0.1249  0.7325
17891TIP3    H175088   1.337   3.536  14.069  1.6651 -0.0763 -0.6712
17891TIP3    H275089   1.276   3.416  13.999  1.8687 -0.4461 -0.2226
17892TIP3   OH275090   3.842   1.909   2.839  0.1931 -0.1790 -0.1987
17892TIP3    H175091   3.782   1.864   2.899 -0.3201 -0.7655 -1.1240
17892TIP3    H275092   3.792   1.985   2.808  1.5734  1.9929  2.4981
17893TIP3   OH275093   0.594   6.188  13.236 -0.0941 -0.2838 -0.4105
17893TIP3    H175094   0.501   6.169  13.223 -0.7965  2.8247 -0.8792
17893TIP3    H275095   0.626   6.209  13.148  0.6165  0.2779 -0.0289
17894TIP3   OH275096   3.586   5.456   2.640  0.1883 -0.7486  0.5074
17894TIP3    H175097   3.644   5.514   2.592 -2.2046  2.7117  1.4317
17894TIP3    H275098   3.525   5.424   2.574 -1.3588  1.7353  0.6087
17895TIP3   OH275099   4.814   5.658   3.596 -0.3817  0.0301  0.1630
17895TIP3    H175100   4.735   5.625   3.639 -1.1987 -0.1436 -1.3699
17895TIP3    H275101   4.885   5.638   3.657 -1.4490 -0.2740  1.3557
17896TIP3   OH275102   5.431   0.897   3.700  0.1490  0.7436 -0.3840
17896TIP3    H175103   5.516   0.872   3.737 -0.1380  0.5518  0.1448
17896TIP3    H275104   5.416   0.833   3.630  0.3536  0.6695 -0.3624
17897TIP3   OH275105   5.287   0.537   2.323 -0.7384  0.5020 -0.2793
17897TIP3    H175106   5.203   0.553   2.281 -0.8747  2.3402  0.5900
17897TIP3    H275107   5.307   0.619   2.369  0.3309 -0.7276  1.5874
17898TIP3   OH275108   3.752   0.418   0.971 -0.1325  0.0717 -0.4260
17898TIP3    H175109   3.809   0.486   1.008  1.5881 -0.1089 -2.5300
17898TIP3    H275110   3.673   0.464   0.945 -0.7021  0.4898  1.7931
17899TIP3   OH275111   4.223   2.006  14.189 -0.3173  0.1299 -0.3809
17899TIP3    H175112   4.237   1.915  14.166  0.2089 -0.0185  0.4807
17899TIP3    H275113   4.251   2.013  14.281 -1.9911  0.7632  0.1178
17900TIP3   OH275114   4.646   3.350  11.451  0.7690 -0.4852 -0.5888
17900TIP3    H175115   4.711   3.416  11.475  0.0569 -0.0498  0.2051
17900TIP3    H275116   4.684   3.267  11.480  0.2907 -0.0652  1.3884
17901TIP3   OH275117   2.338   1.465  15.243 -0.5041 -0.0067 -0.3494
17901TIP3    H175118   2.422   1.428  15.218 -0.7612 -0.2219 -0.9252
17901TIP3    H275119   2.346   1.559  15.225 -0.6317 -0.1354 -1.1216
17902TIP3   OH275120   1.929   6.594  15.709  0.0530 -0.3811  0.0474
17902TIP3    H175121   1.989   6.586  15.782 -0.5011  0.5793  0.6208
17902TIP3    H275122   1.943   6.682  15.675  0.0578 -0.6927 -0.7851
17903TIP3   OH275123   1.623   1.286  12.337  0.3226  0.4107 -0.1318
17903TIP3    H175124   1.620   1.348  12.265 -2.1161  1.6411  0.8949
17903TIP3    H275125   1.573   1.210  12.306  0.7919  0.1887 -0.3496
17904TIP3   OH275126   3.395   6.348   5.471 -0.4490  0.6479  0.2667
17904TIP3    H175127   3.441   6.357   5.554 -1.5648 -1.2963  1.1557
17904TIP3    H275128   3.304   6.370   5.492 -0.8740 -0.5362 -0.2549
17905TIP3   OH275129   2.809   0.417   5.223  0.0328  0.5464 -0.6111
17905TIP3    H175130   2.758   0.410   5.304 -1.6338  1.2746 -1.5392
17905TIP3    H275131   2.832   0.510   5.217 -0.9267  0.7481 -1.5516
17906TIP3   OH275132   3.509   5.082   2.669 -0.1892 -0.0491  1.0557
17906TIP3    H175133   3.578   5.021   2.692  2.0341  1.0638 -1.9596
17906TIP3    H275134   3.524   5.159   2.724  0.6736 -0.0266  0.7932
17907TIP3   OH275135   2.044   0.328  12.869 -0.1757  0.1159 -0.2804
17907TIP3    H175136   2.046   0.423  12.868  0.8343  0.1280  0.7401
17907TIP3    H275137   2.098   0.301  12.795  0.8344  0.3659  0.3403
17908TIP3   OH275138   4.946   2.304   5.498 -0.0486 -0.5012 -0.0685
17908TIP3    H175139   5.021   2.362   5.513  0.4127 -0.5882 -1.7361
17908TIP3    H275140   4.916   2.279   5.585  1.5482 -0.0436  0.6441
17909TIP3   OH275141   4.188   3.009   3.555 -0.5981  0.0492 -0.1467
17909TIP3    H175142   4.115   2.984   3.499 -1.2838  2.1379 -0.2773
17909TIP3    H275143   4.199   3.103   3.540  1.0683  0.1098  1.0929
17910TIP3   OH275144   5.958   0.260  14.981 -0.1968  0.2220 -0.5537
17910TIP3    H175145   5.884   0.274  14.922  0.3509 -0.8828 -1.5411
17910TIP3    H275146   5.983   0.169  14.966  1.4848  0.6371 -0.3856
17911TIP3   OH275147   0.562   5.636   1.974  0.2086 -0.2220 -0.8482
17911TIP3    H175148   0.656   5.632   1.990  0.3980 -0.3368 -1.9345
17911TIP3    H275149   0.534   5.545   1.972 -0.0863 -0.1744  0.2825
17912TIP3   OH275150   2.872   6.053   4.003  0.0797 -0.0600  0.6693
17912TIP3    H175151   2.799   6.100   3.965  0.4194  1.4688  1.8047
17912TIP3    H275152   2.859   6.060   4.098  2.0034  0.8069  0.9248
17913TIP3   OH275153   3.869   2.095  16.938 -0.3886  0.4205 -0.4134
17913TIP3    H175154   3.908   2.054  17.015  0.4436  1.0318 -0.4963
17913TIP3    H275155   3.854   2.186  16.964 -0.2893  0.5796 -0.9007
17914TIP3   OH275156   6.060   3.270   3.181  0.7821 -0.6043  0.1697
17914TIP3    H175157   6.041   3.326   3.255 -0.7783 -2.0180  0.9227
17914TIP3    H275158   5.986   3.208   3.178  0.1365  0.0931 -3.2586
17915TIP3   OH275159   0.190   3.431  14.536  0.2728  0.3102  0.2371
17915TIP3    H175160   0.247   3.503  14.562  0.2357 -0.3630  2.3848
17915TIP3    H275161   0.134   3.416  14.612  1.5900 -3.2475  0.6776
17916TIP3   OH275162   1.250   0.031   1.790 -0.5863 -0.0711  0.3700
17916TIP3    H175163   1.291  -0.008   1.712 -2.1287  0.4902 -0.7944
17916TIP3    H275164   1.199  -0.041   1.828 -0.5511 -0.1236  0.3175
17917TIP3   OH275165   2.027   0.797   4.418  0.0207 -0.0633 -0.5377
17917TIP3    H175166   2.119   0.818   4.400  0.6986 -1.8985  0.4481
17917TIP3    H275167   2.004   0.854   4.492  0.2282  0.6538 -1.0087
17918TIP3   OH275168   3.439   2.430   5.152  0.3732 -0.3993 -0.3638
17918TIP3    H175169   3.499   2.422   5.226  0.9336 -0.2128 -0.7917
17918TIP3    H275170   3.430   2.524   5.138 -2.1618 -0.2997  1.3972
17919TIP3   OH275171   1.907   2.302  11.282 -0.1232  0.1345 -0.4499
17919TIP3    H175172   1.820   2.324  11.249 -0.2330 -0.4501 -0.5575
17919TIP3    H275173   1.964   2.303  11.205  0.5730  3.2584 -0.0499
17920TIP3   OH275174   3.376   6.696  12.219  0.0401 -0.7486  0.1132
17920TIP3    H175175   3.440   6.652  12.163  0.6413 -0.2219  0.3895
17920TIP3    H275176   3.426   6.758  12.271 -0.9233  1.3248 -1.2562
17921TIP3   OH275177   6.475   3.923  17.195 -0.7728  0.6212 -0.5215
17921TIP3    H175178   6.414   3.895  17.263  1.5106 -0.0477  1.3781
17921TIP3    H275179   6.492   3.843  17.145  0.2136  0.2567  0.3631
17922TIP3   OH275180   3.046   5.186   5.523  0.6655  0.5481  0.5656
17922TIP3    H175181   3.071   5.154   5.437 -1.0577  1.5771 -0.3829
17922TIP3    H275182   2.992   5.116   5.560  1.5769  0.0183  0.9256
17923TIP3   OH275183   4.247   1.628   5.037 -0.0219 -0.2696  0.3232
17923TIP3    H175184   4.289   1.634   4.951 -0.2400  0.0691  0.2384
17923TIP3    H275185   4.228   1.719   5.061 -1.3115 -0.4461  0.0548
17924TIP3   OH275186   2.432   0.145  13.138  0.4394 -0.1816  0.3500
17924TIP3    H175187   2.339   0.165  13.146  0.4459 -0.7920  3.1086
17924TIP3    H275188   2.472   0.229  13.114 -0.6254  0.6367  1.2855
17925TIP3   OH275189   4.918   5.941  12.902  0.2965  0.3029  0.0897
17925TIP3    H175190   4.990   5.949  12.840  1.2501  0.0249  1.1369
17925TIP3    H275191   4.868   6.022  12.891  2.0041  1.5333  0.8694
17926TIP3   OH275192   5.321   2.568  14.805 -0.2546 -0.4310  0.6211
17926TIP3    H175193   5.294   2.631  14.871  1.2974  0.1359  0.7586
17926TIP3    H275194   5.412   2.547  14.827 -0.2209 -1.4592 -0.3891
17927TIP3   OH275195   1.570   6.460  16.041  0.5274  0.2872  0.5844
17927TIP3    H175196   1.599   6.377  16.004 -1.1805 -0.1635  0.1593
17927TIP3    H275197   1.573   6.448  16.136  2.6086  0.6130  0.6015
17928TIP3   OH275198   3.947   3.993  15.076 -0.4481  0.0583 -0.9720
17928TIP3    H175199   4.004   4.042  15.017 -0.7514 -0.5756 -1.8077
17928TIP3    H275200   3.980   3.903  15.073  0.6663  0.3227  1.2406
17929TIP3   OH275201   0.935   3.036  12.521 -0.7241 -0.2759  0.3167
17929TIP3    H175202   0.982   2.953  12.535 -1.0831 -0.4845  0.2772
17929TIP3    H275203   0.866   3.036  12.587 -1.2548 -0.3990 -0.2339
17930TIP3   OH275204   3.155   1.227   1.316  0.0444 -0.3510 -0.4992
17930TIP3    H175205   3.153   1.151   1.258  0.1837  1.4441 -2.9966
17930TIP3    H275206   3.241   1.222   1.359  0.8270 -0.6620 -2.0308
17931TIP3   OH275207   5.699   3.650  16.393 -0.1533  0.4896  0.0752
17931TIP3    H175208   5.617   3.631  16.349  0.6247 -0.6519 -0.9577
17931TIP3    H275209   5.674   3.684  16.479 -1.6957 -1.4705  0.4706
17932TIP3   OH275210   0.750   4.816   4.804 -0.3445  0.4869  0.4545
17932TIP3    H175211   0.739   4.803   4.899  2.4283  1.6804  1.0362
17932TIP3    H275212   0.765   4.728   4.770 -0.9031  0.0941  1.1802
17933TIP3   OH275213   6.468   5.387  14.450 -0.2168 -0.6723 -0.7972
17933TIP3    H175214   6.557   5.358  14.468 -0.8375 -3.5066 -1.8158
17933TIP3    H275215   6.470   5.418  14.360 -0.4334 -1.7956 -1.2105
17934TIP3   OH275216   1.629   1.732  15.920 -0.0254  0.1697  0.0804
17934TIP3    H175217   1.713   1.770  15.946 -1.0073  1.9370  0.8860
17934TIP3    H275218   1.567   1.765  15.986 -1.2686 -1.5272 -0.1724
17935TIP3   OH275219   3.475   4.389   4.764  0.2856 -0.6213 -0.4813
17935TIP3    H175220   3.434   4.363   4.681  0.0460  3.5643 -1.9277
17935TIP3    H275221   3.565   4.357   4.757  0.4709  0.1898 -2.7672
17936TIP3   OH275222   1.753   5.197  11.921  0.0644 -0.0679 -0.1474
17936TIP3    H175223   1.659   5.181  11.912  0.3589 -1.2794 -1.3706
17936TIP3    H275224   1.775   5.161  12.007 -0.5363  0.0233  0.0516
17937TIP3   OH275225   5.701   3.130  13.943  0.6529 -0.5717 -0.2808
17937TIP3    H175226   5.686   3.216  13.904  1.3389 -0.6980 -0.8300
17937TIP3    H275227   5.698   3.145  14.037 -1.2459 -0.2978 -0.3459
17938TIP3   OH275228   1.273   3.519   4.265 -0.3138  0.1923 -0.0593
17938TIP3    H175229   1.210   3.581   4.230 -1.6867  0.0335  1.9432
17938TIP3    H275230   1.268   3.444   4.206 -0.6401  0.9115 -0.9663
17939TIP3   OH275231   6.657   5.406  12.030  0.0647 -0.2233  0.1633
17939TIP3    H175232   6.695   5.492  12.048  3.4683 -1.7833  1.4376
17939TIP3    H275233   6.635   5.371  12.117 -0.6163 -0.9112 -0.2701
17940TIP3   OH275234   5.567   3.751  16.937 -0.2223  0.1839  0.3534
17940TIP3    H175235   5.537   3.699  16.862 -0.2364 -0.9764  1.1321
17940TIP3    H275236   5.495   3.745  17.000  0.6748 -0.7146  1.3282
17941TIP3   OH275237   0.514   0.123   0.567 -0.1758  0.4756  0.1644
17941TIP3    H175238   0.552   0.036   0.577 -0.0580  0.5776  0.6466
17941TIP3    H275239   0.573   0.168   0.507  1.4869  1.1893  2.1860
17942TIP3   OH275240   0.422   1.898   1.792  0.4047 -0.0895 -0.5501
17942TIP3    H175241   0.485   1.826   1.797  2.1834  1.3616 -0.6926
17942TIP3    H275242   0.418   1.933   1.880 -0.4377 -0.3321 -0.4847
17943TIP3   OH275243   3.366   0.743   6.644 -0.4312  0.0185  0.6512
17943TIP3    H175244   3.285   0.758   6.595 -0.3877 -0.9253  0.2636
17943TIP3    H275245   3.348   0.665   6.696  0.7184 -1.1492 -0.6200
17944TIP3   OH275246   1.393   2.773  15.165  0.3453  0.7000 -0.5408
17944TIP3    H175247   1.375   2.720  15.087 -0.0635  0.9308 -0.6072
17944TIP3    H275248   1.328   2.843  15.161  0.3206  0.7125  0.0093
17945TIP3   OH275249   6.505   2.162  11.092  0.6026  0.0535  0.2020
17945TIP3    H175250   6.494   2.233  11.028  1.8575 -1.2499 -1.5786
17945TIP3    H275251   6.562   2.200  11.159  2.2097  0.4895 -1.2992
17946TIP3   OH275252   0.620   1.049  13.477  0.2858 -0.1354 -0.5188
17946TIP3    H175253   0.626   0.954  13.467 -0.5471 -0.5911  2.3285
17946TIP3    H275254   0.674   1.084  13.407  1.7916 -2.7486 -0.7982
17947TIP3   OH275255   6.714   5.220  11.309  0.7699  0.2746 -0.1726
17947TIP3    H175256   6.735   5.169  11.231  1.3006 -0.4831  0.4515
17947TIP3    H275257   6.719   5.158  11.381 -3.0063  0.1672  0.1649
17948TIP3   OH275258   0.379   5.329   5.591 -0.1406  0.8364 -0.3557
17948TIP3    H175259   0.437   5.294   5.659  0.0722  1.8766  0.0216
17948TIP3    H275260   0.427   5.317   5.509 -0.5439 -0.7410 -0.3954
17949TIP3   OH275261   3.083   0.253   6.019  0.0982 -0.3781 -0.1887
17949TIP3    H175262   3.117   0.325   5.966 -2.0942  0.5758 -0.4040
17949TIP3    H275263   3.140   0.179   5.998  0.3571  0.4064 -2.6087
17950TIP3   OH275264   5.315   3.132  14.492  0.1837  0.0536  0.0214
17950TIP3    H175265   5.268   3.048  14.500 -0.0530  0.2312  0.5187
17950TIP3    H275266   5.322   3.146  14.397  0.0807 -0.4496 -0.0649
17951TIP3   OH275267   4.265   4.977  16.445 -0.4338 -0.2605 -0.2774
17951TIP3    H175268   4.322   4.902  16.428 -1.9123 -1.8844  1.4347
17951TIP3    H275269   4.193   4.967  16.383 -2.1098 -2.0430  1.7662
17952TIP3   OH275270   2.429   4.213   6.366  0.5504 -0.1356 -0.6441
17952TIP3    H175271   2.420   4.121   6.342  1.2657 -0.3845  0.0113
17952TIP3    H275272   2.344   4.252   6.345  0.0052 -1.0870 -0.2537
17953TIP3   OH275273   0.013   3.622  10.525  0.2499 -0.0013  0.0625
17953TIP3    H175274  -0.044   3.551  10.496  1.2743 -0.2982 -1.3205
17953TIP3    H275275   0.006   3.688  10.457 -0.1129  0.9208  0.9666
17954TIP3   OH275276   2.721   6.719   0.552  0.1977  0.0305  0.2679
17954TIP3    H175277   2.748   6.661   0.624  0.8923 -0.9018 -0.7022
17954TIP3    H275278   2.688   6.659   0.484 -2.9536  1.0287  0.7672
17955TIP3   OH275279   5.746   1.849  15.625  0.3122 -0.7152 -0.1131
17955TIP3    H175280   5.763   1.760  15.657 -1.4917 -1.5474 -1.2954
17955TIP3    H275281   5.661   1.872  15.662  1.6530  1.4497  1.9157
17956TIP3   OH275282   3.033   5.803  14.472  0.0377  0.1236  0.2316
17956TIP3    H175283   2.956   5.849  14.439  0.8737  1.4677  0.0684
17956TIP3    H275284   3.063   5.750  14.399 -0.4364 -0.0264  0.1407
17957TIP3   OH275285   0.297   5.421   2.684  0.4827 -0.4032 -0.2800
17957TIP3    H175286   0.213   5.457   2.655 -0.1501 -0.6357  1.1950
17957TIP3    H275287   0.306   5.449   2.775  2.1196 -0.2031 -0.4635
17958TIP3   OH275288   5.396   3.990   3.859 -0.4335  0.0950  0.5122
17958TIP3    H175289   5.335   4.012   3.789 -1.4502 -0.2098  1.2688
17958TIP3    H275290   5.340   3.981   3.937  0.3396 -1.9095  0.8859
17959TIP3   OH275291   1.253   4.184  16.829  0.1838 -0.2109  0.4263
17959TIP3    H175292   1.266   4.203  16.922 -1.5295 -2.5332  1.2342
17959TIP3    H275293   1.175   4.235  16.805  1.9496  2.2462 -0.4696
17960TIP3   OH275294   3.759   0.301  11.644  0.1493  0.5301 -0.8262
17960TIP3    H175295   3.775   0.395  11.644 -3.4364  1.2816 -0.8538
17960TIP3    H275296   3.834   0.264  11.690  1.3278  3.4490 -0.1760
17961TIP3   OH275297   4.773   1.964   1.169  0.5683 -0.1238  0.0227
17961TIP3    H175298   4.832   2.008   1.230  1.2987  0.4184 -1.0432
17961TIP3    H275299   4.730   1.897   1.222  2.0173 -0.4303  0.8810
17962TIP3   OH275300   2.048   4.347   5.435 -0.1024 -0.7568  0.1200
17962TIP3    H175301   2.074   4.285   5.366 -0.7833 -1.3651  0.3913
17962TIP3    H275302   1.977   4.302   5.481 -0.2017 -0.0121  0.7044
17963TIP3   OH275303   1.267   2.860   1.446  0.1733 -0.0571  0.2737
17963TIP3    H175304   1.227   2.938   1.484 -0.7511 -0.8487  1.0153
17963TIP3    H275305   1.341   2.892   1.395  0.1941  1.2415  1.0767
17964TIP3   OH275306   5.223   6.284   5.944  0.1584 -0.3272  0.0208
17964TIP3    H175307   5.261   6.371   5.960  0.8097 -0.9914  2.5050
17964TIP3    H275308   5.297   6.224   5.956 -0.9686 -1.4323  1.7473
17965TIP3   OH275309   5.828   4.443  11.502  0.9328  0.1755 -0.7080
17965TIP3    H175310   5.816   4.501  11.577 -0.1412 -1.5743  0.5741
17965TIP3    H275311   5.793   4.492  11.428  0.8617  1.4915  0.1651
17966TIP3   OH275312   3.301   2.799   2.949 -0.3087  0.2143  0.0745
17966TIP3    H175313   3.259   2.746   2.881  1.2519 -3.4327  1.6663
17966TIP3    H275314   3.236   2.804   3.019 -0.0242 -0.8974  0.4500
17967TIP3   OH275315   1.695   5.344   3.208 -0.4759 -0.1381 -0.0286
17967TIP3    H175316   1.625   5.283   3.230  0.0014 -0.3671  0.8932
17967TIP3    H275317   1.763   5.289   3.169  0.0048 -0.2305  0.9144
17968TIP3   OH275318   5.362   5.870   3.665 -0.5104  0.0541  0.2628
17968TIP3    H175319   5.284   5.891   3.613 -0.0043 -1.5811 -1.2565
17968TIP3    H275320   5.434   5.915   3.621  0.2888 -3.0799 -1.9651
17969TIP3   OH275321   4.350   4.670   4.691 -0.2576 -0.1788  0.2809
17969TIP3    H175322   4.355   4.576   4.712 -2.0570 -0.7770 -1.6171
17969TIP3    H275323   4.297   4.707   4.761 -1.2518 -1.0070  0.0057
17970TIP3   OH275324   4.237   4.709  16.519  0.2378  0.3026 -0.0640
17970TIP3    H175325   4.301   4.664  16.573 -0.2653  0.6266  0.8170
17970TIP3    H275326   4.193   4.639  16.470  0.3444 -0.0455  0.3344
17971TIP3   OH275327   3.836   6.397   5.752 -0.3082 -0.2193  0.2505
17971TIP3    H175328   3.905   6.360   5.807  0.4653  0.4986 -0.2338
17971TIP3    H275329   3.769   6.328   5.749 -0.6767 -0.0636  2.6178
17972TIP3   OH275330   0.355   5.767   4.659 -0.1449 -0.4177  0.2865
17972TIP3    H175331   0.328   5.729   4.575  1.1215 -0.4172 -0.1531
17972TIP3    H275332   0.377   5.692   4.714  0.8882 -0.3880 -0.0618
17973TIP3   OH275333   2.310   5.643  13.686 -0.2069 -0.2212  0.4000
17973TIP3    H175334   2.266   5.663  13.769  1.0204 -0.0126  1.0100
17973TIP3    H275335   2.301   5.548  13.676 -0.7669 -0.1873  0.5154
17974TIP3   OH275336   2.178   3.099  15.078 -0.1217 -0.5247 -0.8785
17974TIP3    H175337   2.237   3.056  15.017  0.6601 -0.9091  0.1093
17974TIP3    H275338   2.236   3.147  15.138 -0.7953 -0.8118  0.0399
17975TIP3   OH275339   1.837   1.840   1.435  0.1192 -0.4254 -0.1024
17975TIP3    H175340   1.808   1.920   1.391  0.5177  0.0901  0.5509
17975TIP3    H275341   1.912   1.811   1.384  0.1825 -0.1908 -0.1458
17976TIP3   OH275342   1.524   5.767  14.816 -0.5264  0.0753 -0.1596
17976TIP3    H175343   1.553   5.856  14.797  1.7970 -0.0905  1.9275
17976TIP3    H275344   1.590   5.711  14.774 -0.2500 -0.4990  0.9704
17977TIP3   OH275345   5.885   0.230  12.193  0.9258  0.0824 -0.2490
17977TIP3    H175346   5.958   0.170  12.178  0.3142 -0.5566 -0.7425
17977TIP3    H275347   5.911   0.280  12.271  2.0658  0.1560 -0.6479
17978TIP3   OH275348   2.858   2.235  11.471  0.9894  0.1372 -0.2749
17978TIP3    H175349   2.906   2.193  11.399  0.6234  0.1658 -0.5379
17978TIP3    H275350   2.766   2.218  11.452  0.8115  1.4184 -0.6238
17979TIP3   OH275351   0.475   3.031  14.011  0.0926  0.1366  0.1729
17979TIP3    H175352   0.554   3.075  14.041  0.2376 -0.0935  0.1242
17979TIP3    H275353   0.506   2.959  13.956 -0.1637  0.4172 -0.3467
17980TIP3   OH275354   5.670   1.997   3.635 -0.0033 -0.4587 -0.4724
17980TIP3    H175355   5.658   1.913   3.680 -0.5935  0.9605  2.2787
17980TIP3    H275356   5.588   2.044   3.652  1.0243  1.3472 -0.2985
17981TIP3   OH275357   5.458   3.549  16.774 -0.2647 -0.2778  0.1323
17981TIP3    H175358   5.524   3.486  16.804  0.6891 -0.1764 -1.6165
17981TIP3    H275359   5.391   3.496  16.732  0.1083 -0.1964 -0.5739
17982TIP3   OH275360   2.148   2.855   5.108 -0.1016  0.5304 -0.4016
17982TIP3    H175361   2.097   2.926   5.069 -0.0121  0.7666 -0.0883
17982TIP3    H275362   2.188   2.811   5.033 -2.6184 -1.1194 -0.8822
17983TIP3   OH275363   1.309   0.374   3.665 -0.8622  0.0904  0.2760
17983TIP3    H175364   1.321   0.469   3.662 -0.6338  0.1133  1.4057
17983TIP3    H275365   1.224   0.359   3.623 -1.9200  1.0251  1.9824
17984TIP3   OH275366   4.510   6.424   2.709  0.2260 -0.5666 -0.9422
17984TIP3    H175367   4.491   6.353   2.648  4.6591 -3.4073  0.4436
17984TIP3    H275368   4.533   6.499   2.654 -0.4594 -1.5393 -2.6143
17985TIP3   OH275369   2.565   1.611  14.760 -0.0840  0.3313 -0.3071
17985TIP3    H175370   2.599   1.527  14.793  1.5622  0.8643 -0.5589
17985TIP3    H275371   2.506   1.642  14.829  0.5766 -0.2517  0.5443
17986TIP3   OH275372   4.632   2.012  15.270 -0.7004 -0.2223  0.0383
17986TIP3    H175373   4.566   1.978  15.330  0.2027 -2.0804  0.0501
17986TIP3    H275374   4.590   2.088  15.229 -2.1484 -0.2555  1.3557
17987TIP3   OH275375   2.598   0.402   4.953 -0.0410 -0.5219  0.0836
17987TIP3    H175376   2.574   0.491   4.979 -2.3321 -0.6899 -1.2185
17987TIP3    H275377   2.563   0.346   5.022  0.2309 -0.4958  0.2420
17988TIP3   OH275378   4.710   3.041   1.573 -0.1052  0.5497 -0.0390
17988TIP3    H175379   4.759   3.109   1.526 -1.5404  3.2070  2.0196
17988TIP3    H275380   4.625   3.082   1.591 -0.4093 -1.1188  2.8276
17989TIP3   OH275381   2.027   1.700  17.238  0.1473 -0.1933 -0.0702
17989TIP3    H175382   2.101   1.726  17.183  0.7838 -0.0398  0.8331
17989TIP3    H275383   1.950   1.732  17.191  0.7658  1.2909 -0.1416
17990TIP3   OH275384   3.382   0.190   6.016  0.8286 -0.4144 -0.3523
17990TIP3    H175385   3.477   0.190   6.025  0.7075  0.1585  1.1932
17990TIP3    H275386   3.364   0.252   5.946  1.4874  1.6220  1.1932
17991TIP3   OH275387   0.034   3.584   3.095  0.6968  0.7867 -0.2195
17991TIP3    H175388  -0.054   3.548   3.105  0.3777  1.4914 -0.4036
17991TIP3    H275389   0.087   3.511   3.062 -0.1073  0.7006 -1.3660
17992TIP3   OH275390   5.185   3.854   0.521 -0.2404  0.7097  0.5876
17992TIP3    H175391   5.230   3.774   0.550  0.1201  0.3580 -0.8876
17992TIP3    H275392   5.105   3.857   0.574 -0.0983 -0.4577  0.8962
17993TIP3   OH275393   5.216   6.629  12.403 -0.0153  0.3092  0.2343
17993TIP3    H175394   5.236   6.553  12.458  0.0081 -1.0066 -1.5190
17993TIP3    H275395   5.302   6.664  12.379  0.0364 -0.4099 -0.6702
17994TIP3   OH275396   6.306   5.844   4.307  0.2008  0.3865 -0.1633
17994TIP3    H175397   6.240   5.866   4.372  0.1915  1.3070 -0.4779
17994TIP3    H275398   6.275   5.762   4.268 -0.1818  0.2342  0.4540
17995TIP3   OH275399   0.882   6.575   1.564 -0.2736  0.3341 -0.4663
17995TIP3    H175400   0.952   6.566   1.628 -0.8227  0.5774  0.1795
17995TIP3    H275401   0.924   6.612   1.487  1.1998 -3.2735 -1.6225
17996TIP3   OH275402   2.325   0.320   3.641  0.3493 -0.0869  0.4089
17996TIP3    H175403   2.346   0.272   3.561 -1.2734  0.2142 -0.2455
17996TIP3    H275404   2.238   0.357   3.625  1.1711  2.4026  1.2077
17997TIP3   OH275405   1.350   4.301   6.274  0.7522 -0.3261  0.0847
17997TIP3    H175406   1.379   4.347   6.195  1.1921 -2.0800 -0.8325
17997TIP3    H275407   1.413   4.230   6.284 -0.3153 -1.1612  1.0168
17998TIP3   OH275408   5.812   3.657   1.218 -0.2902 -0.4900 -0.3795
17998TIP3    H175409   5.809   3.627   1.127 -2.0855  0.8096 -0.7933
17998TIP3    H275410   5.738   3.614   1.260  1.9566 -3.0747  1.2046
17999TIP3   OH275411   2.263   0.966  14.813  0.3228  0.0864 -0.2636
17999TIP3    H175412   2.349   0.954  14.772  1.2759  1.7901  1.1081
17999TIP3    H275413   2.224   1.040  14.767 -1.4322 -1.9710 -2.3298
18000TIP3   OH275414   6.431   6.646   1.814 -0.0587 -0.2242 -0.3863
18000TIP3    H175415   6.385   6.680   1.890  2.0314  0.8911  0.4684
18000TIP3    H275416   6.493   6.715   1.790 -0.7766 -0.4245 -3.2891
18001TIP3   OH275417   2.462   3.354   5.178 -0.6361 -0.0993 -0.3498
18001TIP3    H175418   2.491   3.425   5.122  1.6388 -0.5517  0.1698
18001TIP3    H275419   2.410   3.298   5.121  0.1121  0.3963 -1.5433
18002TIP3   OH275420   6.728   1.078   4.008 -0.0626  0.3656 -1.0267
18002TIP3    H175421   6.685   1.014   4.065  2.4874 -1.2786 -0.7889
18002TIP3    H275422   6.656   1.126   3.967 -2.0888 -2.1875 -0.6963
18003TIP3   OH275423   1.234   6.451  11.583 -0.5252  0.6945  0.1748
18003TIP3    H175424   1.313   6.409  11.551 -0.6366 -0.3757  1.2476
18003TIP3    H275425   1.245   6.543  11.560  1.1564  0.6185  0.5382
18004TIP3   OH275426   3.863   2.348  16.124  0.4805  0.1712  0.4251
18004TIP3    H175427   3.902   2.406  16.058 -1.1634 -0.0525 -0.7995
18004TIP3    H275428   3.899   2.378  16.207  2.7415  0.3747 -0.5504
18005TIP3   OH275429   4.340   2.503  15.256  0.2832  0.5046  0.0573
18005TIP3    H175430   4.313   2.479  15.345  0.1869 -1.8419 -0.5406
18005TIP3    H275431   4.309   2.431  15.201 -0.8644  2.5472 -2.1232
18006TIP3   OH275432   4.859   3.342  15.200  0.0375  0.1006  0.3738
18006TIP3    H175433   4.935   3.284  15.206 -0.6560 -0.7097  2.0842
18006TIP3    H275434   4.897   3.430  15.193  1.2207 -0.1275  2.7624
18007TIP3   OH275435   3.067   0.655   1.517  0.2684 -0.5359  0.3608
18007TIP3    H175436   3.086   0.747   1.534 -0.2760 -0.5846  1.3272
18007TIP3    H275437   3.145   0.622   1.472  0.5029  0.3661  0.0921
18008TIP3   OH275438   4.251   6.758   1.880  0.2654 -0.3032 -0.0569
18008TIP3    H175439   4.179   6.785   1.822  0.1405 -0.6900 -0.0885
18008TIP3    H275440   4.228   6.668   1.904  2.3718 -1.7058 -2.6890
18009TIP3   OH275441   4.211   5.067  12.086 -0.0438  0.5732 -0.0406
18009TIP3    H175442   4.246   5.126  12.019  1.0633 -0.4393 -0.3891
18009TIP3    H275443   4.247   5.100  12.168 -0.2759  0.9983 -0.1098
18010TIP3   OH275444   0.623   0.469   1.050 -0.8278  0.2466  0.0857
18010TIP3    H175445   0.650   0.547   1.002 -2.0576  0.5974 -0.0715
18010TIP3    H275446   0.558   0.427   0.993  0.3415 -1.2976 -0.1622
18011TIP3   OH275447   5.525   6.534  15.194 -0.2096 -0.8827  0.1795
18011TIP3    H175448   5.567   6.530  15.108  1.7160 -1.6852  1.0901
18011TIP3    H275449   5.431   6.535  15.176  0.1630 -0.0847 -1.9448
18012TIP3   OH275450   5.874   0.176  13.729  0.3178 -0.9842 -0.2523
18012TIP3    H175451   5.846   0.256  13.773  0.7001 -0.4534 -0.9527
18012TIP3    H275452   5.960   0.157  13.768  1.1599  0.0955 -1.4963
18013TIP3   OH275453   2.502   6.761   2.301  0.1651  0.3146  0.1534
18013TIP3    H175454   2.550   6.830   2.346  0.2579 -0.3252  1.0458
18013TIP3    H275455   2.549   6.749   2.218  2.6742 -1.5139  1.7282
18014TIP3   OH275456   3.471   6.143   1.851  0.3329 -0.3331 -0.0956
18014TIP3    H175457   3.507   6.054   1.855  1.3167  0.0690  0.2827
18014TIP3    H275458   3.534   6.192   1.798  0.8024  0.5805  1.2607
18015TIP3   OH275459   5.909   3.702  14.397  0.0072  0.2751  0.6520
18015TIP3    H175460   5.978   3.768  14.403 -0.4969  0.6811  2.7558
18015TIP3    H275461   5.840   3.733  14.455 -2.3364  0.2501 -1.8908
18016TIP3   OH275462   4.521   3.541   4.209  0.4614 -0.0045  0.0054
18016TIP3    H175463   4.617   3.545   4.212  0.6490 -2.2139 -1.5294
18016TIP3    H275464   4.498   3.579   4.125  0.1062 -0.8266 -0.2758
18017TIP3   OH275465   0.773   6.528  12.981  0.1318  0.1919 -0.2748
18017TIP3    H175466   0.685   6.564  12.966  0.3149  0.4981 -0.6379
18017TIP3    H275467   0.760   6.434  12.988 -0.5214  0.3685  1.7737
18018TIP3   OH275468   1.647   2.833  13.952  0.5142 -0.0271  0.2429
18018TIP3    H175469   1.647   2.908  13.893  2.3190 -0.2000 -0.0131
18018TIP3    H275470   1.568   2.844  14.005 -0.5903  0.6910 -1.4787
18019TIP3   OH275471   5.438   3.673  11.085 -0.2981  0.1030  0.6157
18019TIP3    H175472   5.346   3.657  11.065  0.1293  0.4840 -2.1865
18019TIP3    H275473   5.481   3.588  11.071  0.1041  0.5174 -0.9684
18020TIP3   OH275474   0.750   6.565  14.465  0.4158 -0.1984 -0.3577
18020TIP3    H175475   0.773   6.472  14.465  0.1408 -0.2776  1.1602
18020TIP3    H275476   0.674   6.571  14.522  1.8509  1.2775  1.5282
18021TIP3   OH275477   6.367   4.502   5.771 -0.2465 -0.0994 -0.0438
18021TIP3    H175478   6.394   4.460   5.689 -1.2688 -0.4387 -0.2221
18021TIP3    H275479   6.448   4.515   5.820  0.1245 -2.0496 -0.0896
18022TIP3   OH275480   1.948   5.014  14.733  0.0685 -0.5330  0.1395
18022TIP3    H175481   1.989   4.930  14.753 -0.7885 -1.2601 -1.0220
18022TIP3    H275482   1.925   5.007  14.640 -0.0720  0.9637  0.0478
18023TIP3   OH275483   4.735   1.475   3.706 -0.4570  0.0168 -0.4660
18023TIP3    H175484   4.751   1.446   3.796  0.4153  0.4481 -0.4698
18023TIP3    H275485   4.669   1.543   3.714 -0.6993 -0.2459 -0.2008
18024TIP3   OH275486   2.392   2.923   4.855 -0.0436 -0.0944 -0.2185
18024TIP3    H175487   2.430   2.845   4.895 -1.1317 -1.1687 -1.1776
18024TIP3    H275488   2.450   2.944   4.782 -1.1924 -1.7249 -1.6758
18025TIP3   OH275489   2.658   6.385  12.571 -0.0114 -0.1268  0.4365
18025TIP3    H175490   2.720   6.322  12.607  0.8248  0.8625  0.7713
18025TIP3    H275491   2.676   6.387  12.477  1.1561  0.8608  0.6571
18026TIP3   OH275492   5.617   3.158   2.840 -0.5662 -0.0891 -0.2779
18026TIP3    H175493   5.574   3.101   2.776  0.4291 -1.1542 -0.0199
18026TIP3    H275494   5.710   3.150   2.820 -0.3803  1.2010 -0.0134
18027TIP3   OH275495   0.331   1.372  12.559  0.7896 -0.5067  0.5214
18027TIP3    H175496   0.353   1.318  12.635  1.0328 -1.5948 -0.2936
18027TIP3    H275497   0.412   1.378  12.508  0.4156 -0.5466 -0.0972
18028TIP3   OH275498   4.891   5.754   4.979 -0.6442 -0.5792 -0.1222
18028TIP3    H175499   4.953   5.681   4.987 -0.1298 -0.1089  0.2351
18028TIP3    H275500   4.841   5.752   5.061  0.9983  0.9296  0.9894
18029TIP3   OH275501   2.525   5.364   2.970 -0.1850  0.0106  0.3016
18029TIP3    H175502   2.459   5.431   2.952 -0.5710 -0.6278 -0.8079
18029TIP3    H275503   2.485   5.283   2.936  0.6474 -0.6107  0.7781
18030TIP3   OH275504   1.895   2.936  13.325  0.3212  0.2672  0.2489
18030TIP3    H175505   1.940   2.886  13.393  0.4155  1.4332  1.0863
18030TIP3    H275506   1.948   2.923  13.246  0.4384 -0.7739  0.4835
18031TIP3   OH275507   4.411   4.361   6.615 -0.1964 -0.3830  0.3509
18031TIP3    H175508   4.397   4.354   6.710  1.4985  0.2197  0.6813
18031TIP3    H275509   4.324   4.376   6.579 -0.8907 -0.7460  1.7988
18032TIP3   OH275510   6.361   0.287  13.060 -0.0844 -0.5918 -0.1009
18032TIP3    H175511   6.430   0.353  13.069  1.7401 -2.2854 -0.9888
18032TIP3    H275512   6.334   0.268  13.150  0.1512  0.5298  0.2176
18033TIP3   OH275513   5.464   1.117  15.184 -0.0887 -0.6014 -0.7683
18033TIP3    H175514   5.410   1.095  15.260 -1.8440  1.1274 -1.4218
18033TIP3    H275515   5.548   1.145  15.221 -0.9832  0.4162  0.5775
18034TIP3   OH275516   1.329   2.314   3.010 -0.1183  0.4084  0.0361
18034TIP3    H175517   1.397   2.292   2.945  0.8316 -2.1296  1.7614
18034TIP3    H275518   1.247   2.302   2.963  0.5591 -0.4890 -0.9724
18035TIP3   OH275519   4.381   0.617   3.491  0.4168  0.0255  0.1613
18035TIP3    H175520   4.297   0.611   3.445  0.8174  1.2086 -0.7753
18035TIP3    H275521   4.430   0.540   3.460  0.3164  0.2720 -0.6400
18036TIP3   OH275522   1.886   5.093  16.900  0.5029 -1.2399  0.1911
18036TIP3    H175523   1.897   5.056  16.987 -1.6705 -2.1690  0.1590
18036TIP3    H275524   1.897   5.187  16.912 -1.7343 -1.0977  1.9656
18037TIP3   OH275525   6.438   0.102  11.084  0.0863  0.0615  0.5497
18037TIP3    H175526   6.479   0.016  11.092  0.5778  0.3780  1.5375
18037TIP3    H275527   6.492   0.149  11.022 -0.4660 -0.4985 -0.3740
18038TIP3   OH275528   3.482   0.118  16.490  0.8825  0.6975 -0.4702
18038TIP3    H175529   3.517   0.091  16.405  0.7447 -0.7373 -0.0951
18038TIP3    H275530   3.471   0.213  16.482  0.4791  0.5491 -2.2044
18039TIP3   OH275531   2.364   4.300   5.050 -0.1575 -0.0140  0.2822
18039TIP3    H175532   2.356   4.337   5.138 -1.8498  0.9147 -0.2122
18039TIP3    H275533   2.456   4.277   5.041 -0.0661 -0.7771  2.5491
18040TIP3   OH275534   6.491   2.333   1.181  0.7154  0.5199  0.8949
18040TIP3    H175535   6.528   2.244   1.179 -0.6274 -0.0962 -2.0705
18040TIP3    H275536   6.566   2.390   1.164  1.2640 -0.2053  0.8068
18041TIP3   OH275537   0.617   2.342  16.967 -0.0258 -1.0779 -0.3523
18041TIP3    H175538   0.662   2.257  16.971  0.4387 -0.8314 -0.2615
18041TIP3    H275539   0.547   2.329  16.903  0.0847 -1.5119 -0.3869
18042TIP3   OH275540   2.094   3.741  14.848 -0.1609  0.0785 -0.4696
18042TIP3    H175541   2.153   3.806  14.811 -0.0963  0.9889  1.1799
18042TIP3    H275542   2.096   3.756  14.942 -0.7059 -1.8501 -0.1058
18043TIP3   OH275543   3.703   3.523  11.182  0.0095 -0.5218 -0.3857
18043TIP3    H175544   3.679   3.522  11.089  1.1691 -0.4491 -0.7031
18043TIP3    H275545   3.730   3.613  11.198  1.2218 -0.8767 -0.3679
18044TIP3   OH275546   1.537   2.904  11.069 -0.1318 -0.2091 -0.5234
18044TIP3    H175547   1.604   2.910  11.001  0.4137  0.4488  0.0596
18044TIP3    H275548   1.512   2.811  11.070  0.9888 -0.5262 -0.5513
18045TIP3   OH275549   2.526   1.866  15.333  0.1628 -0.2391  0.0810
18045TIP3    H175550   2.455   1.807  15.360  0.6366 -0.4590  0.8631
18045TIP3    H275551   2.486   1.921  15.266 -0.4452 -1.0824 -0.2744
18046TIP3   OH275552   1.019   1.203   1.687  0.3559 -0.0738 -0.9832
18046TIP3    H175553   1.102   1.213   1.735 -0.9821 -1.0657  1.7685
18046TIP3    H275554   1.002   1.109   1.688 -1.5553  0.2342 -0.0318
18047TIP3   OH275555   3.756   3.350   5.516  0.3772  0.1275 -0.3868
18047TIP3    H175556   3.684   3.297   5.550 -0.5009  1.2981 -0.3770
18047TIP3    H275557   3.822   3.286   5.490 -0.9804 -1.0167 -1.1385
18048TIP3   OH275558   1.159   6.592   5.444 -0.8204  0.0587  0.6250
18048TIP3    H175559   1.236   6.604   5.389 -0.3473 -2.1217  0.7139
18048TIP3    H275560   1.137   6.680   5.475  2.0772  0.6636  1.2180
18049TIP3   OH275561   6.169   6.072   6.120 -0.3409  0.4137  0.4715
18049TIP3    H175562   6.102   6.135   6.093  0.5806  2.5852  2.8355
18049TIP3    H275563   6.120   5.996   6.150 -1.6662  1.2865  0.5850
18050TIP3   OH275564   5.315   6.277  13.012 -0.2435  0.5592 -0.2520
18050TIP3    H175565   5.371   6.285  12.935  1.0424  1.0225  0.6978
18050TIP3    H275566   5.316   6.365  13.051  0.7455 -0.1293  1.3698
18051TIP3   OH275567   2.015   1.797   3.139 -0.2009 -0.1966 -0.4142
18051TIP3    H175568   1.959   1.862   3.180  0.9533 -0.1795  1.2313
18051TIP3    H275569   2.098   1.842   3.125 -0.0080 -0.7476 -1.0987
18052TIP3   OH275570   3.117   4.550  15.634  0.3723 -0.7703 -0.7678
18052TIP3    H175571   3.049   4.488  15.608  1.3939 -1.9812 -0.6684
18052TIP3    H275572   3.127   4.536  15.728  0.2468 -0.0722 -0.6498
18053TIP3   OH275573   4.739   0.992  14.221 -0.0442 -0.0404 -0.1606
18053TIP3    H175574   4.793   1.070  14.214 -1.9475  1.1798 -3.0478
18053TIP3    H275575   4.659   1.022  14.264  0.1064 -0.9768  0.8061
18054TIP3   OH275576   6.352   2.787  14.665  0.3300 -0.0154 -0.4563
18054TIP3    H175577   6.281   2.755  14.721  0.4263  1.7839  0.7369
18054TIP3    H275578   6.431   2.745  14.699  0.6085  2.1216  1.7516
18055TIP3   OH275579   3.612   3.640  14.551 -0.2984 -0.1389  0.0353
18055TIP3    H175580   3.706   3.657  14.555 -0.4087  0.2481  1.6171
18055TIP3    H275581   3.605   3.553  14.512  0.8434 -1.0267  1.6905
18056TIP3   OH275582   2.672   4.674   0.422 -0.1418 -0.1124  0.4188
18056TIP3    H175583   2.731   4.683   0.496 -0.8499  0.6886  0.8986
18056TIP3    H275584   2.702   4.739   0.358 -1.2368  1.2127  1.1849
18057TIP3   OH275585   3.076   5.819   5.654  0.3254 -0.3716 -0.1011
18057TIP3    H175586   3.151   5.827   5.713 -0.0252 -0.5456  0.3649
18057TIP3    H275587   3.015   5.887   5.683  0.3024 -0.2213 -0.4891
18058TIP3   OH275588   4.057   4.350   4.267  0.1652  0.2921  1.0904
18058TIP3    H175589   4.009   4.331   4.348  0.0260  1.1400  1.2152
18058TIP3    H275590   4.008   4.305   4.199  0.2690 -0.4103  1.4734
18059TIP3   OH275591   5.843   4.867   3.988  0.0197 -0.4219 -0.6540
18059TIP3    H175592   5.842   4.962   3.977  2.3487 -0.1419  0.8667
18059TIP3    H275593   5.753   4.840   3.967 -1.0426  2.2244  0.0372
18060TIP3   OH275594   5.019   0.884   5.169 -0.0581  0.0938  0.5010
18060TIP3    H175595   4.955   0.915   5.106  1.3169  0.3912 -0.8009
18060TIP3    H275596   5.009   0.789   5.170  1.3436 -0.1380 -1.8413
18061TIP3   OH275597   4.611   2.413   5.605 -0.4698  0.1175  0.4293
18061TIP3    H175598   4.548   2.480   5.577 -1.2938 -1.4471 -1.6766
18061TIP3    H275599   4.612   2.420   5.701 -0.8596  2.8009  0.3165
18062TIP3   OH275600   2.584   4.369  14.050 -0.1439 -0.3005 -0.2348
18062TIP3    H175601   2.579   4.273  14.055 -1.0216 -0.3763 -1.7833
18062TIP3    H275602   2.495   4.397  14.030  0.2220  0.8018 -0.4105
18063TIP3   OH275603   3.126   2.693   0.861 -0.2713 -0.4356  0.0536
18063TIP3    H175604   3.168   2.772   0.896  2.7923 -1.9273  0.0080
18063TIP3    H275605   3.118   2.711   0.767  1.3308 -0.5007 -0.1259
18064TIP3   OH275606   6.339   3.928  16.630 -0.1380  0.2557 -0.6023
18064TIP3    H175607   6.286   3.920  16.551 -0.7627 -1.5892 -0.0573
18064TIP3    H275608   6.279   3.967  16.695  0.2231  1.2908 -0.8595
18065TIP3   OH275609   1.907   1.253  14.255 -0.5859 -0.1370  0.2666
18065TIP3    H175610   1.929   1.286  14.168  2.1595 -0.3932  0.7668
18065TIP3    H275611   1.866   1.168  14.239  1.9669 -1.2746 -0.8125
18066TIP3   OH275612   3.198   2.162   4.933  0.1389 -0.0322  0.4740
18066TIP3    H175613   3.167   2.080   4.894  1.3631 -1.3688  2.1537
18066TIP3    H275614   3.145   2.171   5.012 -0.0928  0.9128  0.2223
18067TIP3   OH275615   0.580   1.161   0.896 -0.7445  0.7077  0.7486
18067TIP3    H175616   0.596   1.251   0.927 -1.9852  0.8155  1.1242
18067TIP3    H275617   0.623   1.157   0.811 -2.9019  2.5525 -0.5524
18068TIP3   OH275618   5.301   3.574  14.106 -0.3039 -0.3005  0.6636
18068TIP3    H175619   5.393   3.573  14.129  0.1586 -1.4797 -1.0408
18068TIP3    H275620   5.297   3.624  14.024 -1.5847  1.9915  2.0258
18069TIP3   OH275621   0.540   3.786   3.518 -0.3266 -0.1821  0.1064
18069TIP3    H175622   0.610   3.848   3.536 -1.0060  0.5415  0.3054
18069TIP3    H275623   0.501   3.816   3.436  0.1665 -1.1172 -0.4983
18070TIP3   OH275624   4.277   4.167   2.155  0.2816 -0.5577  0.0098
18070TIP3    H175625   4.211   4.152   2.088  0.2827 -0.5609  0.0096
18070TIP3    H275626   4.294   4.080   2.192 -1.4938 -0.2500  1.6949
18071TIP3   OH275627   3.164   1.573  14.256  0.2243 -0.1216  0.1725
18071TIP3    H175628   3.149   1.528  14.339 -2.9065  0.0550 -0.1949
18071TIP3    H275629   3.083   1.561  14.207  1.0493  1.9172 -1.8720
18072TIP3   OH275630   3.364   1.549  13.828  0.0072 -0.0020 -0.3040
18072TIP3    H175631   3.442   1.495  13.844  0.3251  0.8410  1.1583
18072TIP3    H275632   3.290   1.492  13.849  0.3546  0.3454  2.2242
18073TIP3   OH275633   0.044   2.709  12.082  0.4487 -0.1055 -0.2432
18073TIP3    H175634  -0.030   2.665  12.042  1.9409 -0.3535 -2.9773
18073TIP3    H275635   0.077   2.648  12.148 -1.2454 -0.3059  0.4582
18074TIP3   OH275636   4.412   2.033   4.879 -0.1579  0.2463 -0.2230
18074TIP3    H175637   4.355   2.065   4.808  0.5267 -1.0476 -1.4170
18074TIP3    H275638   4.498   2.028   4.838  0.3105 -0.2299  0.8142
18075TIP3   OH275639   3.614   6.103   5.048 -0.7679  0.6036 -0.1438
18075TIP3    H175640   3.616   6.141   5.136  0.5131  0.2595 -0.0044
18075TIP3    H275641   3.536   6.047   5.048 -0.2263 -0.1928  1.1330
18076TIP3   OH275642   1.769   6.086   1.718 -0.1894  0.0172  0.3447
18076TIP3    H175643   1.788   6.179   1.708 -2.8014  0.7021  1.0382
18076TIP3    H275644   1.777   6.069   1.812  0.5741 -0.5594  0.1886
18077TIP3   OH275645   0.320   6.719  14.115 -0.3832  0.0383 -0.5269
18077TIP3    H175646   0.403   6.766  14.110  0.4998 -1.5428 -3.3527
18077TIP3    H275647   0.284   6.742  14.200  2.1198  2.1362  0.0969
18078TIP3   OH275648   4.410   4.464   1.833  0.1056  0.0226 -0.3259
18078TIP3    H175649   4.418   4.498   1.744 -0.1747  1.9199  0.3259
18078TIP3    H275650   4.360   4.531   1.880 -0.3388 -1.2454  1.1080
18079TIP3   OH275651   1.174   3.506  14.733 -0.2785  0.4246  0.5565
18079TIP3    H175652   1.227   3.586  14.730  1.6248 -0.7683 -1.7702
18079TIP3    H275653   1.224   3.446  14.788 -0.3512  0.0296  0.2051
18080TIP3   OH275654   4.867   2.203   0.550  0.2847 -0.2592  0.1745
18080TIP3    H175655   4.829   2.116   0.538  1.1375 -0.6989  0.5605
18080TIP3    H275656   4.834   2.254   0.477 -1.0976 -0.5930  0.5350
18081TIP3   OH275657   1.255   3.776   4.643  0.5175 -0.5271  0.2211
18081TIP3    H175658   1.304   3.806   4.718  0.1585 -0.5815  0.4820
18081TIP3    H275659   1.163   3.776   4.672  0.2453  0.5540 -0.5656
18082TIP3   OH275660   3.955   2.336   1.127  0.2041  0.0517  0.3467
18082TIP3    H175661   4.049   2.320   1.117  0.4719  1.8638 -0.5140
18082TIP3    H275662   3.944   2.428   1.104 -1.7816 -0.0842  0.5658
18083TIP3   OH275663   2.979   5.322  13.311 -0.7721 -0.3334  0.5109
18083TIP3    H175664   2.888   5.341  13.290 -0.4582  1.2240  0.4546
18083TIP3    H275665   2.988   5.345  13.404 -0.5508 -0.9619  0.6514
18084TIP3   OH275666   0.726   0.565   5.355  0.0123 -0.1519  0.4080
18084TIP3    H175667   0.772   0.617   5.289 -1.8310 -0.8173 -1.5051
18084TIP3    H275668   0.758   0.476   5.341  0.8251 -0.0770  1.5825
18085TIP3   OH275669   3.391   4.599  11.771  0.1782  0.1775  0.0369
18085TIP3    H175670   3.395   4.536  11.700  1.0646  0.0906  0.1611
18085TIP3    H275671   3.301   4.593  11.803  0.2819 -1.1050  0.1231
18086TIP3   OH275672   3.108   1.351  12.390 -0.1062 -0.5399 -0.6014
18086TIP3    H175673   3.114   1.321  12.299  1.2953 -1.1432 -0.3455
18086TIP3    H275674   3.137   1.442  12.388  0.4062 -0.7023 -0.6989
18087TIP3   OH275675   1.863   4.483  17.163  0.5304 -0.2085  0.6170
18087TIP3    H175676   1.952   4.470  17.195  0.6069 -0.4366  0.3078
18087TIP3    H275677   1.873   4.521  17.076  0.3462 -1.1911  0.1520
18088TIP3   OH275678   6.385   6.240   3.712  0.2747  0.0912  0.3584
18088TIP3    H175679   6.435   6.198   3.781  0.1722 -0.6246  0.0135
18088TIP3    H275680   6.445   6.244   3.637 -0.3244 -1.2857 -0.2351
18089TIP3   OH275681   3.621   4.717   3.714 -0.3742 -0.2139  0.3965
18089TIP3    H175682   3.587   4.673   3.792  1.6618 -1.2601  0.7560
18089TIP3    H275683   3.698   4.666   3.688 -0.9531  0.1076 -2.3105
18090TIP3   OH275684   4.530   2.744  14.178  0.1274  0.3547 -0.5736
18090TIP3    H175685   4.447   2.751  14.130 -0.0381 -0.8280 -0.4918
18090TIP3    H275686   4.511   2.783  14.264 -0.7230 -0.9278 -0.1321
18091TIP3   OH275687   0.070   4.750   6.268  0.1477  0.1599  0.3383
18091TIP3    H175688   0.091   4.838   6.297  0.1857  0.1735  0.2713
18091TIP3    H275689   0.034   4.706   6.345  1.1904 -0.1194  0.6854
18092TIP3   OH275690   4.852   1.404  12.032 -0.2748 -0.0178  0.6462
18092TIP3    H175691   4.769   1.406  12.081 -1.1948  0.4230 -0.8627
18092TIP3    H275692   4.842   1.473  11.966  0.9426 -0.5671 -0.1373
18093TIP3   OH275693   6.507   5.037  17.026  0.5055  0.0585  0.1371
18093TIP3    H175694   6.505   5.062  16.934 -0.3823  3.2594  0.9038
18093TIP3    H275695   6.426   4.989  17.041  0.3453  0.1098 -0.5775
18094TIP3   OH275696   5.483   4.930  12.028  0.1131 -0.5680 -0.0298
18094TIP3    H175697   5.464   4.871  12.100  0.0601 -0.0880  0.3581
18094TIP3    H275698   5.441   4.891  11.952  1.7428 -2.0636 -0.2226
18095TIP3   OH275699   1.345   2.771   4.438  0.3737 -0.1356  0.1608
18095TIP3    H175700   1.318   2.740   4.525  1.2904 -1.9329 -0.1489
18095TIP3    H275701   1.423   2.824   4.454 -0.7404  1.4504  0.6154
18096TIP3   OH275702   2.864   2.178  12.645  0.2784 -0.3526 -0.0490
18096TIP3    H175703   2.942   2.137  12.682  0.9291  1.8565  1.1704
18096TIP3    H275704   2.826   2.228  12.717 -0.5663  1.0181 -1.3904
18097TIP3   OH275705   4.777   3.602  15.739  0.5806 -1.0597  0.3363
18097TIP3    H175706   4.699   3.608  15.794 -0.2419  1.1720 -0.9084
18097TIP3    H275707   4.839   3.664  15.778  0.9753 -1.3706  0.2048
18098TIP3   OH275708   4.080   4.057  13.344  0.4312 -0.3642  0.1487
18098TIP3    H175709   3.997   4.021  13.375 -0.7791  0.7006 -1.6425
18098TIP3    H275710   4.096   4.132  13.401 -1.3849  1.1446 -1.1907
18099TIP3   OH275711   1.708   3.364   1.761 -0.2103 -0.2941 -0.7224
18099TIP3    H175712   1.800   3.367   1.733  0.2894  0.5498  0.8568
18099TIP3    H275713   1.662   3.419   1.698  0.1319 -1.6620 -2.2301
18100TIP3   OH275714   3.590   3.797   0.659  0.0640 -0.3432  0.2257
18100TIP3    H175715   3.508   3.782   0.613 -0.6017  1.5829  0.6983
18100TIP3    H275716   3.602   3.719   0.714 -0.2919 -1.6255 -1.4445
18101TIP3   OH275717   2.010   4.494   3.526  0.1861  0.4821  0.1969
18101TIP3    H175718   1.916   4.510   3.525  0.0573 -0.2426  0.1142
18101TIP3    H275719   2.021   4.423   3.589  0.6652  0.4849  0.1189
18102TIP3   OH275720   4.330   3.149  15.577  0.2352  0.0467  0.3361
18102TIP3    H175721   4.307   3.120  15.665  0.8779  0.1047  0.5339
18102TIP3    H275722   4.347   3.068  15.529  0.4443  0.0325  0.4306
18103TIP3   OH275723   5.233   2.748  11.880  0.0379  0.6171 -0.0331
18103TIP3    H175724   5.293   2.821  11.864  1.2710 -0.4996 -0.6459
18103TIP3    H275725   5.282   2.688  11.936 -1.2719  0.6113  1.1801
18104TIP3   OH275726   2.455   1.561   1.996  0.4481 -0.0327  0.0427
18104TIP3    H175727   2.458   1.474   1.955 -0.9769  0.5573 -1.4589
18104TIP3    H275728   2.476   1.621   1.925 -1.4044  1.0036  0.3069
18105TIP3   OH275729   5.487   1.359   2.152 -0.1990  0.0617 -0.1676
18105TIP3    H175730   5.428   1.306   2.206  0.2434 -1.7339 -1.3274
18105TIP3    H275731   5.429   1.406   2.092 -0.5309 -1.5755 -1.2046
18106TIP3   OH275732   5.245   1.156  13.346  0.5372 -0.2397  0.0657
18106TIP3    H175733   5.278   1.098  13.277  0.6719  1.8154 -1.6972
18106TIP3    H275734   5.186   1.216  13.301  1.2313  1.6813  1.5619
18107TIP3   OH275735   5.583   0.008  11.964 -0.1617  0.4623  0.5977
18107TIP3    H175736   5.559  -0.026  11.877  0.3373 -1.7818  1.2699
18107TIP3    H275737   5.600   0.101  11.949  0.8788 -0.0254 -1.9304
18108TIP3   OH275738   3.507   6.541   4.927 -0.1500 -0.3263 -0.0337
18108TIP3    H175739   3.437   6.588   4.881 -0.2877 -1.2513 -0.7957
18108TIP3    H275740   3.481   6.544   5.019 -0.8239 -0.0418 -0.2264
18109TIP3   OH275741   1.262   4.175   2.101 -0.2831  0.2129 -0.1357
18109TIP3    H175742   1.336   4.144   2.154 -2.1637 -1.3114  1.7760
18109TIP3    H275743   1.238   4.100   2.047 -1.3807  0.1266  0.4324
18110TIP3   OH275744   0.275   0.227  13.196 -0.7538 -0.4880  0.2950
18110TIP3    H175745   0.302   0.299  13.140 -1.1889  0.3256  1.0953
18110TIP3    H275746   0.346   0.163  13.189  0.2076  0.5244  0.4519
18111TIP3   OH275747   0.306   5.193   2.530  0.4407  0.0446  0.4475
18111TIP3    H175748   0.366   5.126   2.563 -0.3610  0.2460  2.4127
18111TIP3    H275749   0.331   5.273   2.574  2.0642  1.4292 -2.6553
18112TIP3   OH275750   2.408   5.849  14.684 -0.9306 -0.0860  0.2414
18112TIP3    H175751   2.494   5.887  14.698 -0.2622 -0.7640 -1.6463
18112TIP3    H275752   2.348   5.907  14.731  0.4944  0.6862  1.1678
18113TIP3   OH275753   3.740   2.001   1.701 -0.0191 -0.3515 -0.1266
18113TIP3    H175754   3.665   2.019   1.644  0.2894 -0.6025 -0.6204
18113TIP3    H275755   3.723   1.912   1.735 -2.1643  1.1473  3.2789
18114TIP3   OH275756   2.926   4.020  16.163  0.9345 -0.4941 -0.2833
18114TIP3    H175757   2.929   4.078  16.239  2.0363  0.0671 -0.7269
18114TIP3    H275758   2.941   4.078  16.088  2.3224 -1.3749 -0.7191
18115TIP3   OH275759   6.774   4.399  15.025 -0.0410  0.2985  0.0974
18115TIP3    H175760   6.774   4.421  14.932  1.3016  0.4533  0.1101
18115TIP3    H275761   6.771   4.484  15.069  0.9891  0.3186  0.1656
18116TIP3   OH275762   3.367   5.159  14.431 -0.4417 -0.8951  0.2442
18116TIP3    H175763   3.459   5.185  14.437 -0.7611  0.0216  2.8951
18116TIP3    H275764   3.368   5.071  14.394  1.5455 -1.1337  0.7714
18117TIP3   OH275765   0.160   0.299   0.033 -0.0306  0.6287 -0.6440
18117TIP3    H175766   0.083   0.255   0.070  1.8894 -1.1006  1.6491
18117TIP3    H275767   0.198   0.235  -0.027  0.6884  0.6561 -0.2285
18118TIP3   OH275768   5.138   0.326   1.671  0.1532  0.1847 -0.1676
18118TIP3    H175769   5.162   0.321   1.763 -1.1466  0.4999  0.2146
18118TIP3    H275770   5.221   0.321   1.624  0.9321  1.0704  1.0553
18119TIP3   OH275771   4.684   0.775  12.099 -0.5992  0.5183 -0.0299
18119TIP3    H175772   4.724   0.761  12.013 -0.7225  0.2559 -0.0449
18119TIP3    H275773   4.727   0.710  12.155  1.0852  2.0933  0.6241
18120TIP3   OH275774   0.506   2.053   2.049  0.2500  0.3662  0.5625
18120TIP3    H175775   0.448   2.040   2.124  1.7028 -3.0826  1.2780
18120TIP3    H275776   0.574   2.111   2.081  1.6654 -2.1853  2.5816
18121TIP3   OH275777   3.293   0.562   0.401 -0.1527  0.6482 -0.4686
18121TIP3    H175778   3.346   0.642   0.410  0.0007  0.4258  0.6514
18121TIP3    H275779   3.229   0.568   0.471  0.4969 -0.7063  0.2611
18122TIP3   OH275780   2.931   4.751  12.994  0.0516  0.0108  0.0872
18122TIP3    H175781   2.837   4.770  12.989  0.0807  0.0130 -0.6073
18122TIP3    H275782   2.957   4.739  12.903  0.8362  0.5155  0.2377
18123TIP3   OH275783   6.556   6.612  11.046 -0.4853  0.0314  0.4308
18123TIP3    H175784   6.500   6.625  10.969  0.3633 -1.6058 -0.4921
18123TIP3    H275785   6.635   6.570  11.012  0.8087  1.1708  1.9030
18124TIP3   OH275786   4.689   6.088   2.774 -0.2959  0.0075 -0.1144
18124TIP3    H175787   4.605   6.104   2.730 -0.2663  0.4850  0.0002
18124TIP3    H275788   4.745   6.052   2.705 -1.6266 -3.8036  0.5537
18125TIP3   OH275789   6.610   5.969   0.350 -0.2214 -0.5521 -0.0945
18125TIP3    H175790   6.573   6.032   0.412 -0.5362 -1.6390  0.8515
18125TIP3    H275791   6.702   5.996   0.340 -0.1984 -0.2832  0.7571
18126TIP3   OH275792   0.337   6.439   5.783 -0.1373  0.0750  0.1891
18126TIP3    H175793   0.427   6.409   5.778 -0.1099 -0.3621  2.3552
18126TIP3    H275794   0.285   6.359   5.797 -0.8726  0.3303 -0.9232
18127TIP3   OH275795   3.988   1.692   1.686 -0.2339 -0.5817  0.5641
18127TIP3    H175796   3.987   1.656   1.775 -0.1775 -2.1121 -0.0343
18127TIP3    H275797   4.056   1.760   1.689 -0.4351 -0.3981  1.7497
18128TIP3   OH275798   2.916   2.956  13.953  0.3330 -0.2778 -0.2054
18128TIP3    H175799   2.841   2.995  13.998  0.4205 -0.7010  0.3119
18128TIP3    H275800   2.902   2.977  13.861  1.5062  2.9023  0.2248
18129TIP3   OH275801   2.700   5.705  11.093 -0.0867 -0.2738 -0.3823
18129TIP3    H175802   2.720   5.769  11.025  0.3925 -0.1728 -0.1492
18129TIP3    H275803   2.624   5.657  11.060  0.0390 -0.1106 -0.9069
18130TIP3   OH275804   3.629   4.100   0.493 -0.2065 -0.4338  1.1312
18130TIP3    H175805   3.661   4.022   0.538  0.0091 -1.6188 -0.9014
18130TIP3    H275806   3.541   4.115   0.529 -0.4658 -1.9556  1.2101
18131TIP3   OH275807   5.744   4.494   4.307 -0.2303  0.2034 -0.3905
18131TIP3    H175808   5.786   4.408   4.313  0.6264  0.7196  2.5764
18131TIP3    H275809   5.726   4.505   4.214  0.1954 -2.8980 -0.9505
18132TIP3   OH275810   2.947   1.793   1.815 -0.5952  0.1306  0.4452
18132TIP3    H175811   2.937   1.701   1.838  0.5623 -0.0340  0.3287
18132TIP3    H275812   3.033   1.818   1.848 -1.2709  1.4565  1.3501
18133TIP3   OH275813   6.278   6.615   0.567 -0.4720 -0.0674  0.4878
18133TIP3    H175814   6.203   6.557   0.582 -1.7832  1.3865 -0.1182
18133TIP3    H275815   6.256   6.695   0.615  0.2026  0.7583 -0.5404
18134TIP3   OH275816   6.480   0.668   4.660 -0.2774 -0.7092 -0.0089
18134TIP3    H175817   6.389   0.677   4.688 -0.4504 -1.4612 -0.3058
18134TIP3    H275818   6.532   0.682   4.739 -0.6365 -0.0001  0.1043
18135TIP3   OH275819   5.869   0.095  10.620  0.5034  0.6760 -0.4832
18135TIP3    H175820   5.869   0.053  10.534  0.7503 -1.4527  0.4881
18135TIP3    H275821   5.837   0.184  10.604 -1.2397 -0.2334 -2.4962
18136TIP3   OH275822   0.518   5.759   3.809  0.0708  0.0835 -0.1225
18136TIP3    H175823   0.502   5.782   3.900 -0.2956 -0.1157 -0.1344
18136TIP3    H275824   0.608   5.727   3.808  0.5036  1.2858 -0.0712
18137TIP3   OH275825   4.162   1.483   0.534  0.4817  0.1497  0.3997
18137TIP3    H175826   4.143   1.566   0.490 -0.5536  0.0864  0.7008
18137TIP3    H275827   4.106   1.419   0.490  0.2260 -0.1152  1.0924
18138TIP3   OH275828   5.174   4.600  12.798 -0.3404  0.3362  0.2135
18138TIP3    H175829   5.113   4.607  12.871  0.6231  0.7630  1.0033
18138TIP3    H275830   5.243   4.541  12.831  0.2304  0.7329 -0.2466
18139TIP3   OH275831   1.400   6.091  13.046  0.4162  0.0779  0.0501
18139TIP3    H175832   1.408   6.187  13.054  1.4995 -0.0168  0.2724
18139TIP3    H275833   1.351   6.065  13.123  1.7426  0.2751  0.9878
18140TIP3   OH275834   5.425   0.415   5.827 -0.3508  0.6993  0.5299
18140TIP3    H175835   5.454   0.505   5.821  1.6774  0.1132  0.8795
18140TIP3    H275836   5.493   0.370   5.878 -0.6471 -1.2763 -0.6914
18141TIP3   OH275837   1.314   4.394   0.873  0.4529 -0.1306 -0.2542
18141TIP3    H175838   1.382   4.461   0.881  0.3530  0.0304 -0.7026
18141TIP3    H275839   1.333   4.332   0.943  0.0386  0.8154  0.7137
18142TIP3   OH275840   1.532   0.983   1.227 -0.4958 -0.5776  0.1605
18142TIP3    H175841   1.487   0.909   1.268 -2.0944  2.3171  4.2906
18142TIP3    H275842   1.469   1.014   1.161 -0.5334 -1.8327 -0.4274
18143TIP3   OH275843   6.398   2.529   5.981 -0.1439  0.5124 -0.0564
18143TIP3    H175844   6.340   2.486   5.918  1.1146 -1.5258  0.0837
18143TIP3    H275845   6.486   2.506   5.952  0.5096 -1.3610  2.9039
18144TIP3   OH275846   4.157   2.740  12.573  0.5100  0.4488  0.0373
18144TIP3    H175847   4.232   2.733  12.513 -0.3697  0.9264 -1.1584
18144TIP3    H275848   4.096   2.673  12.543  0.1295  0.5783  0.5123
18145TIP3   OH275849   0.138   3.570  11.882  0.7932 -1.0066 -0.0430
18145TIP3    H175850   0.089   3.640  11.840 -0.7176 -1.5849  0.6825
18145TIP3    H275851   0.213   3.613  11.922  0.7487 -0.0547 -0.9688
18146TIP3   OH275852   0.652   5.939  12.138  0.7750  0.1104 -0.1373
18146TIP3    H175853   0.697   5.941  12.054  0.9327  1.8443 -0.0504
18146TIP3    H275854   0.720   5.964  12.201  0.0909  1.2220  0.1858
18147TIP3   OH275855   0.462   3.416  13.390  0.1783  0.0928  0.7951
18147TIP3    H175856   0.512   3.484  13.344  2.2072 -0.0400  2.6073
18147TIP3    H275857   0.391   3.463  13.434  0.6554  0.8417  0.7884
18148TIP3   OH275858   0.335   2.774   1.188  0.7287  0.6552 -0.3421
18148TIP3    H175859   0.406   2.777   1.124  2.1576 -2.1398  0.9786
18148TIP3    H275860   0.361   2.836   1.256  2.4426 -1.0174  0.5852
18149TIP3   OH275861   4.346   0.887  13.305 -0.0949 -0.3751  0.1661
18149TIP3    H175862   4.262   0.900  13.260  0.1287 -0.0137 -0.1493
18149TIP3    H275863   4.409   0.875  13.235  0.3167  0.5360  0.3617
18150TIP3   OH275864   4.263   1.023  14.600 -0.0046 -0.1514 -0.2085
18150TIP3    H175865   4.232   1.060  14.517 -0.7982  1.2291  0.6752
18150TIP3    H275866   4.185   0.984  14.639 -0.1616  1.1913  0.8958
18151TIP3   OH275867   0.274   3.733   1.657 -0.2073  0.5949 -0.4231
18151TIP3    H175868   0.226   3.689   1.727  0.7847  0.8695  0.4652
18151TIP3    H275869   0.277   3.669   1.586  0.8559 -0.6624  0.6879
18152TIP3   OH275870   1.010   3.751  12.126  0.4341  0.2762  0.3217
18152TIP3    H175871   1.064   3.761  12.205  0.9871  1.4598 -0.1842
18152TIP3    H275872   1.044   3.672  12.084  1.6671  0.9092  0.1028
18153TIP3   OH275873   3.805   5.005   4.058  0.6375  0.2489 -0.7588
18153TIP3    H175874   3.899   5.021   4.070  0.1669  1.8565  1.5028
18153TIP3    H275875   3.771   5.087   4.023  0.1676 -0.6631 -2.5469
18154TIP3   OH275876   5.686   6.518  16.657  0.1137 -0.6009  0.5005
18154TIP3    H175877   5.628   6.486  16.727 -0.3424  0.4529  0.6313
18154TIP3    H275878   5.689   6.613  16.671  0.7514 -0.4883 -0.3635
18155TIP3   OH275879   1.780   6.265   3.369 -0.1229  0.2992 -0.2045
18155TIP3    H175880   1.771   6.192   3.308 -3.3679 -0.3100  0.8437
18155TIP3    H275881   1.777   6.343   3.313 -0.6350 -0.2790 -1.0071
18156TIP3   OH275882   6.260   1.688   5.823 -0.2434 -0.0304  0.4810
18156TIP3    H175883   6.215   1.662   5.903  2.5960  1.0983  2.5771
18156TIP3    H275884   6.212   1.766   5.794  0.0551  0.9539  2.4611
18157TIP3   OH275885   0.767   0.559  13.526 -0.2262  0.4494  0.0438
18157TIP3    H175886   0.771   0.505  13.446 -1.0760  0.0257  0.2833
18157TIP3    H275887   0.688   0.530  13.570 -1.6356  3.0400 -0.6181
18158TIP3   OH275888   2.073   2.982  12.376  0.2490  0.2006  0.3492
18158TIP3    H175889   2.052   3.073  12.356  2.6983  0.9169  0.7410
18158TIP3    H275890   2.128   2.953  12.303 -0.0420 -0.7911  0.5101
18159TIP3   OH275891   3.185   0.829  14.932  0.3027  0.3934  0.8430
18159TIP3    H175892   3.197   0.734  14.935 -1.3090  0.1101 -0.2339
18159TIP3    H275893   3.090   0.841  14.934  0.4858  2.0106  1.3116
18160TIP3   OH275894   4.802   0.818   3.371  0.2650  0.1058  0.2522
18160TIP3    H175895   4.875   0.796   3.428  0.6840 -0.1809 -0.3776
18160TIP3    H275896   4.763   0.734   3.347  0.0148  0.2302  0.2133
18161TIP3   OH275897   0.998   5.444   6.195 -0.6859 -0.8310  0.4302
18161TIP3    H175898   0.910   5.466   6.165 -0.8676 -2.1283 -0.0580
18161TIP3    H275899   0.985   5.378   6.263 -0.1268 -0.3535  1.0081
18162TIP3   OH275900   4.378   1.048   2.383 -0.5466 -0.1568  0.2642
18162TIP3    H175901   4.376   1.065   2.477  1.2431  1.4588  0.0610
18162TIP3    H275902   4.297   1.000   2.366 -0.8318 -0.6441  2.6409
18163TIP3   OH275903   3.474   6.648   5.669 -0.1600  0.2478 -0.0213
18163TIP3    H175904   3.440   6.602   5.746  0.6485 -0.0337  0.1793
18163TIP3    H275905   3.507   6.579   5.612 -1.9623  0.3579 -1.2473
18164TIP3   OH275906   0.131   0.394   3.324 -0.0295  0.3789  0.8968
18164TIP3    H175907   0.156   0.440   3.404 -0.5369  1.9906  0.1690
18164TIP3    H275908   0.036   0.400   3.321 -0.4040 -3.1838  2.1614
18165TIP3   OH275909   2.452   4.132   1.021 -0.0298 -0.5928 -0.1809
18165TIP3    H175910   2.471   4.224   1.005 -1.5009 -0.3061 -0.4222
18165TIP3    H275911   2.381   4.111   0.960  0.3179 -1.9108 -0.1720
18166TIP3   OH275912   1.342   2.924  12.306  0.4339  0.3266  0.2062
18166TIP3    H175913   1.326   2.836  12.340 -1.3239  0.9616  1.1177
18166TIP3    H275914   1.397   2.966  12.372  1.3366 -0.0749 -0.2646
18167TIP3   OH275915   1.376   0.240  12.814 -0.2790  0.3327 -0.0645
18167TIP3    H175916   1.394   0.257  12.721 -1.0386  1.2747 -0.0539
18167TIP3    H275917   1.370   0.327  12.854 -1.1848 -0.0199  0.6149
18168TIP3   OH275918   4.925   5.143   5.735 -0.5722 -0.0321 -0.0013
18168TIP3    H175919   4.962   5.061   5.769 -0.1497 -0.0706 -0.5377
18168TIP3    H275920   4.961   5.150   5.647 -0.6148  0.7295  0.0371
18169TIP3   OH275921   4.965   1.022  13.430 -0.3530 -0.3600 -0.0173
18169TIP3    H175922   4.897   0.969  13.389  1.5286 -1.4466 -2.0065
18169TIP3    H275923   5.008   1.066  13.357 -0.2447  1.9706  1.3731
18170TIP3   OH275924   4.532   6.611   5.843  0.0322  0.2857 -0.2587
18170TIP3    H175925   4.594   6.538   5.837 -1.8543 -1.5141  1.0200
18170TIP3    H275926   4.506   6.613   5.935 -2.0414  0.7510 -0.8078
18171TIP3   OH275927   1.566   6.136  16.690 -0.3944  0.1087 -0.0472
18171TIP3    H175928   1.651   6.093  16.703 -0.8482 -0.5465  0.8562
18171TIP3    H275929   1.522   6.082  16.623  0.2036  0.9301 -1.1425
18172TIP3   OH275930   6.418   3.587   1.067  0.0775  0.4139  0.5285
18172TIP3    H175931   6.435   3.494   1.080 -0.0913  0.1770 -0.8214
18172TIP3    H275932   6.350   3.590   1.000 -0.4743  1.5051  1.1100
18173TIP3   OH275933   1.961   2.375  16.761 -0.6411  0.5074  0.0799
18173TIP3    H175934   1.916   2.410  16.684 -1.4152 -0.4420  0.0887
18173TIP3    H275935   2.033   2.437  16.776  1.4337 -0.8106 -3.2030
18174TIP3   OH275936   2.242   5.805   3.863  0.3095 -0.5960  1.0998
18174TIP3    H175937   2.279   5.773   3.945  2.1426  0.8371  0.9088
18174TIP3    H275938   2.158   5.844   3.888  0.6933 -0.4673  2.2599
18175TIP3   OH275939   4.238   3.639  16.027 -0.5574 -0.5967 -0.2123
18175TIP3    H175940   4.248   3.544  16.025 -2.2458 -0.8099  0.2715
18175TIP3    H275941   4.272   3.668  15.942  0.9956 -1.4888  0.0526
18176TIP3   OH275942   5.080   5.495   2.623 -0.2071 -0.9075 -0.1013
18176TIP3    H175943   5.085   5.584   2.657 -0.5621 -1.1539  0.6309
18176TIP3    H275944   5.140   5.494   2.549  0.4585 -0.3000  0.4129
18177TIP3   OH275945   1.118   4.435  14.130  0.2643 -0.4110 -0.4343
18177TIP3    H175946   1.086   4.396  14.211 -0.5697  1.7404  0.3644
18177TIP3    H275947   1.039   4.466  14.085  0.9095  2.0109 -0.0495
18178TIP3   OH275948   4.152   3.028  12.409 -0.4763 -0.2496  0.0036
18178TIP3    H175949   4.094   3.091  12.366 -2.2218 -1.3883  0.6223
18178TIP3    H275950   4.131   3.034  12.502  0.7524 -0.3546  0.3093
18179TIP3   OH275951   3.572   1.272   0.437  0.8224 -0.3456 -0.4330
18179TIP3    H175952   3.612   1.336   0.495  1.1844 -0.2036 -0.8322
18179TIP3    H275953   3.485   1.307   0.418  1.0865  0.1186 -0.7952
18180TIP3   OH275954   3.005   6.341   3.112  0.6324  0.2951  0.5481
18180TIP3    H175955   2.916   6.367   3.135  0.5319 -0.2296  0.7544
18180TIP3    H275956   3.055   6.423   3.113 -0.0202  0.7193 -0.4193
18181TIP3   OH275957   1.295   1.219   4.250 -0.0001  0.3220  0.0118
18181TIP3    H175958   1.217   1.178   4.211  0.2382  0.5352 -0.7017
18181TIP3    H275959   1.259   1.288   4.306 -0.3149  1.4602 -1.5067
18182TIP3   OH275960   0.226   6.356  13.609 -0.0570 -0.7221  0.7201
18182TIP3    H175961   0.289   6.396  13.671 -0.3387 -1.0745  1.2415
18182TIP3    H275962   0.201   6.274  13.651 -0.8528 -0.5918  0.5058
18183TIP3   OH275963   1.913   2.163   4.972  0.1587  0.1938 -0.2591
18183TIP3    H175964   1.831   2.179   4.925 -0.1986  1.8680  0.8514
18183TIP3    H275965   1.888   2.107   5.045  0.4939 -1.3780 -1.3028
18184TIP3   OH275966   0.317   5.786   2.043 -0.0649 -0.4877  0.2419
18184TIP3    H175967   0.393   5.730   2.036 -0.7731 -1.6890  1.5875
18184TIP3    H275968   0.295   5.810   1.953  0.0950 -2.6024 -0.3966
18185TIP3   OH275969   2.502   0.614   5.054  0.1214 -0.2182  0.3876
18185TIP3    H175970   2.508   0.614   5.150  0.6393 -1.4022  0.3659
18185TIP3    H275971   2.408   0.616   5.036  0.0273  1.0395  0.8968
18186TIP3   OH275972   4.618   6.229  17.277 -0.1257  0.4093  0.1646
18186TIP3    H175973   4.549   6.219  17.342 -1.8812  1.6571 -1.3968
18186TIP3    H275974   4.670   6.302  17.308  1.1704 -1.1466  1.8494
18187TIP3   OH275975   0.923   0.299  15.598 -0.6806 -0.4864 -0.0263
18187TIP3    H175976   0.968   0.285  15.681 -1.8942  3.3270  1.4912
18187TIP3    H275977   0.830   0.291  15.619 -1.0245  0.8996 -0.8714
18188TIP3   OH275978   5.610   5.385   2.846  0.0735  0.2714  0.3575
18188TIP3    H175979   5.657   5.407   2.926 -0.2360  0.4462  0.4892
18188TIP3    H275980   5.671   5.406   2.775  1.0715 -1.6047  0.6017
18189TIP3   OH275981   4.695   6.228  16.468  0.0910 -0.1979 -0.1615
18189TIP3    H175982   4.641   6.306  16.480 -0.1744 -0.4249  0.1435
18189TIP3    H275983   4.633   6.156  16.469  0.5485 -0.6236  2.0550
18190TIP3   OH275984   2.178   0.156  13.584  0.4573  0.6491  0.4405
18190TIP3    H175985   2.254   0.179  13.532  1.4116 -1.5461  0.7778
18190TIP3    H275986   2.105   0.160  13.522  0.9257  2.0291 -0.0623
18191TIP3   OH275987   4.747   4.552   5.247 -0.0906 -0.3008  0.0803
18191TIP3    H175988   4.807   4.488   5.285 -0.1686 -0.1713  0.4220
18191TIP3    H275989   4.729   4.519   5.159 -0.2197 -0.8027  0.2937
18192TIP3   OH275990   1.956   0.569   2.820 -0.3311 -0.7677 -0.0843
18192TIP3    H175991   1.920   0.587   2.907  3.3974  0.7586  1.3444
18192TIP3    H275992   1.944   0.650   2.771 -1.8272 -1.4065 -0.8252
18193TIP3   OH275993   5.994   1.828   4.928 -0.2493  0.1498 -0.3962
18193TIP3    H175994   6.067   1.889   4.942 -1.6683  1.3975  2.3355
18193TIP3    H275995   5.931   1.878   4.877  0.2033 -0.4776 -1.6100
18194TIP3   OH275996   0.227   1.528  12.130  0.0268 -0.0590 -0.1790
18194TIP3    H175997   0.303   1.473  12.117 -0.2943 -0.3462 -0.8797
18194TIP3    H275998   0.247   1.579  12.209  0.7651 -0.4152 -0.1328
18195TIP3   OH275999   1.284   4.995   5.477  0.0964  0.2247 -0.6012
18195TIP3    H176000   1.314   4.973   5.565 -1.1379  0.2478 -0.1621
18195TIP3    H276001   1.200   4.951   5.467  0.0985  0.4160 -1.6821
18196TIP3   OH276002   5.910   5.594  14.136  0.5204  0.0333  0.0814
18196TIP3    H176003   5.891   5.688  14.141  0.5114 -0.0215  1.4207
18196TIP3    H276004   5.927   5.578  14.043 -1.1593  1.0250 -0.4542
18197TIP3   OH276005   5.263   4.228  15.732  0.4462 -0.1337 -0.8389
18197TIP3    H176006   5.223   4.305  15.692  3.0369  0.1872 -3.1038
18197TIP3    H276007   5.346   4.218  15.687  0.8512 -3.4648  0.3746
18198TIP3   OH276008   4.343   0.626   4.849 -0.9251 -0.3050 -0.0394
18198TIP3    H176009   4.257   0.592   4.824 -2.1018  1.2248  1.6865
18198TIP3    H276010   4.326   0.714   4.881  1.2871  0.0155  0.4256
18199TIP3   OH276011   0.779   6.232   4.988 -0.3366  0.2850  0.5652
18199TIP3    H176012   0.698   6.253   5.035 -1.6816  1.2190 -1.9357
18199TIP3    H276013   0.830   6.313   4.989 -0.3317  0.2828  0.5231
18200TIP3   OH276014   3.033   2.202   0.236  0.4996 -0.1802 -0.0938
18200TIP3    H176015   2.973   2.133   0.206  0.0542  0.6465 -1.1795
18200TIP3    H276016   2.979   2.281   0.238  1.7279  0.7700 -1.9724
18201TIP3   OH276017   2.383   4.644   4.590 -0.0764  0.4450  0.0481
18201TIP3    H176018   2.376   4.668   4.682 -1.9070 -0.3332  0.1513
18201TIP3    H276019   2.371   4.726   4.542  0.4226  0.7750  0.4838
18202TIP3   OH276020   5.024   6.284  12.775  0.3144  0.2794 -0.2937
18202TIP3    H176021   5.042   6.355  12.713  1.2362  1.1167  0.8774
18202TIP3    H276022   5.000   6.329  12.856 -0.0408 -0.7801  0.2135
18203TIP3   OH276023   0.859   2.593  11.375 -0.4472  0.0079 -0.5094
18203TIP3    H176024   0.800   2.668  11.363 -1.2568 -0.4502  0.4258
18203TIP3    H276025   0.822   2.525  11.318  0.2387  0.2859 -1.2956
18204TIP3   OH276026   4.596   5.495  11.626  0.0662  0.1105  0.7124
18204TIP3    H176027   4.511   5.538  11.612  0.2783  0.9374  1.8386
18204TIP3    H276028   4.646   5.514  11.547 -0.8186 -0.4544 -0.0022
18205TIP3   OH276029   5.237   6.384  12.211  0.3878 -0.1280 -0.0598
18205TIP3    H176030   5.318   6.427  12.183 -0.1831  1.4946  0.6388
18205TIP3    H276031   5.246   6.377  12.306 -0.1887 -0.1464 -0.0023
18206TIP3   OH276032   0.917   5.491   5.212 -0.5834 -0.3797  1.0707
18206TIP3    H176033   0.905   5.534   5.297 -0.8785  1.6876  0.0530
18206TIP3    H276034   0.877   5.551   5.149 -0.8787 -2.1323 -0.4912
18207TIP3   OH276035   1.469   1.679  11.895 -0.7603  0.2273  0.2803
18207TIP3    H176036   1.507   1.762  11.865 -1.3034  0.1022 -0.8235
18207TIP3    H276037   1.451   1.692  11.988 -2.5449  2.0025 -0.2671
18208TIP3   OH276038   0.771   3.792   6.124  0.5354 -1.0259  0.6031
18208TIP3    H176039   0.781   3.697   6.120  0.4001 -1.0079 -0.6975
18208TIP3    H276040   0.684   3.805   6.161 -0.2359 -1.4833 -0.9355
18209TIP3   OH276041   3.788   3.239  16.437 -0.0955  0.5718  0.1914
18209TIP3    H176042   3.725   3.204  16.500  0.4469 -0.6344  0.0974
18209TIP3    H276043   3.770   3.191  16.356  0.6999  0.4565  0.0711
18210TIP3   OH276044   5.765   3.261  12.949 -0.6829  0.3809 -0.1702
18210TIP3    H176045   5.818   3.241  13.027 -2.3163 -1.1864  0.6018
18210TIP3    H276046   5.698   3.321  12.981 -1.5378 -0.4992 -0.2679
18211TIP3   OH276047   5.738   2.109   2.076  0.3393  0.1061 -0.3357
18211TIP3    H176048   5.755   2.188   2.127  0.9294  0.3230 -0.8410
18211TIP3    H276049   5.742   2.037   2.139  1.1002  0.3626 -0.0812
18212TIP3   OH276050   3.224   4.003  13.972 -0.5031  0.0200  0.0898
18212TIP3    H176051   3.186   4.038  14.053 -1.4887 -2.7094  0.9061
18212TIP3    H276052   3.285   3.935  14.002 -0.0561 -0.2971 -1.4509
18213TIP3   OH276053   6.020   5.270  13.695 -0.5048  0.0285  0.9217
18213TIP3    H176054   5.962   5.201  13.664  0.9064 -1.5813  1.7061
18213TIP3    H276055   6.031   5.327  13.619  0.1508 -1.9210 -0.5348
18214TIP3   OH276056   1.258   5.240  16.802  0.2784  0.1011  0.1208
18214TIP3    H176057   1.183   5.183  16.787 -0.4889  1.3171 -0.8883
18214TIP3    H276058   1.224   5.328  16.790  1.3524  0.8240  1.9806
18215TIP3   OH276059   6.368   1.558  13.976  0.1295 -0.4323 -0.3926
18215TIP3    H176060   6.282   1.519  13.993 -0.4644  1.1336  0.4159
18215TIP3    H276061   6.352   1.652  13.976  2.0973 -0.0277  1.3178
18216TIP3   OH276062   3.830   4.492   5.074  0.2331 -0.9595 -0.2397
18216TIP3    H176063   3.811   4.552   5.002  1.0015  0.3169  0.5643
18216TIP3    H276064   3.908   4.444   5.045  2.0741  1.2856  0.6255
18217TIP3   OH276065   1.038   1.177  16.725  0.2145 -0.3821  0.0450
18217TIP3    H176066   1.111   1.115  16.727  0.8303  0.3397  0.3092
18217TIP3    H276067   1.080   1.263  16.722 -0.6302  0.0299 -0.1096
18218TIP3   OH276068   5.757   3.094   5.255 -0.2853  0.1322  0.1152
18218TIP3    H176069   5.841   3.118   5.294  0.7115  0.0264 -1.8094
18218TIP3    H276070   5.750   2.999   5.269  0.2090  0.0436 -0.1856
18219TIP3   OH276071   6.084   0.433  14.703  0.3338 -0.1421 -0.5782
18219TIP3    H176072   6.120   0.504  14.649 -0.7096  0.7035 -0.1996
18219TIP3    H276073   6.078   0.358  14.643  1.7951 -0.0466 -0.8939
18220TIP3   OH276074   6.678   0.840   1.651 -0.1239 -0.3509 -0.1172
18220TIP3    H176075   6.745   0.819   1.586 -1.3002 -0.5044 -1.3180
18220TIP3    H276076   6.676   0.763   1.708  1.2011 -0.0499  0.3778
18221TIP3   OH276077   0.272   0.695  12.523  0.3273  0.1952  0.4781
18221TIP3    H176078   0.213   0.680  12.449  2.9823  0.1338 -1.7805
18221TIP3    H276079   0.235   0.642  12.593 -2.0879 -0.0864 -0.8775
18222TIP3   OH276080   3.416   4.437  14.382 -0.0182  0.2449 -0.0660
18222TIP3    H176081   3.397   4.395  14.466 -1.4711  1.3441  0.1998
18222TIP3    H276082   3.330   4.460  14.347  0.6597  2.1789 -0.5913
18223TIP3   OH276083   4.520   2.238  12.857 -0.0392 -0.0926  0.2355
18223TIP3    H176084   4.531   2.186  12.936  1.8078  1.1475  0.8721
18223TIP3    H276085   4.459   2.307  12.882  0.9740  0.6282  0.7908
18224TIP3   OH276086   3.593   3.137  14.685 -0.9268 -0.4980  0.4784
18224TIP3    H176087   3.630   3.052  14.661 -1.0824 -0.5757  0.5100
18224TIP3    H276088   3.603   3.142  14.780  0.0324 -0.0283  0.3677
18225TIP3   OH276089   0.071   1.583  13.262  0.3612 -0.3182 -0.3290
18225TIP3    H176090   0.097   1.499  13.300  0.5032  0.6883  2.0004
18225TIP3    H276091  -0.015   1.602  13.300  0.9481  1.2050  0.3543
18226TIP3   OH276092   2.214   2.245  11.253 -0.2467 -0.2897 -0.7022
18226TIP3    H176093   2.185   2.273  11.166  0.9410  0.9758 -0.7216
18226TIP3    H276094   2.208   2.325  11.307  0.4070 -0.7102  0.0109
18227TIP3   OH276095   5.107   3.961   3.282  0.7191  0.1191  0.1715
18227TIP3    H176096   5.090   4.003   3.198 -1.1577  1.0313  0.9307
18227TIP3    H276097   5.188   3.913   3.269 -0.0608 -0.6645 -2.4852
18228TIP3   OH276098   2.529   4.036  13.276  0.2741  0.5579  0.2849
18228TIP3    H176099   2.601   4.016  13.336  1.4041  2.1662 -0.4718
18228TIP3    H276100   2.535   4.130  13.262 -0.7436  0.4091 -1.3807
18229TIP3   OH276101   4.669   4.310  13.740 -0.1918 -0.2966  0.1984
18229TIP3    H176102   4.750   4.275  13.777  0.3836  0.2601 -0.5201
18229TIP3    H276103   4.605   4.300  13.811  1.1340  1.8070  1.8128
18230TIP3   OH276104   5.380   5.480  11.464  0.9021  0.2096 -0.0551
18230TIP3    H176105   5.333   5.458  11.545  3.1903 -0.4008  1.1803
18230TIP3    H276106   5.375   5.400  11.411  0.8542  0.0290  0.2191
18231TIP3   OH276107   1.815   4.559  12.875 -0.2189 -0.6286  0.3109
18231TIP3    H176108   1.805   4.476  12.922  1.0552 -0.8548  0.2106
18231TIP3    H276109   1.791   4.539  12.785  0.1799 -0.9138  0.2673
18232TIP3   OH276110   5.084   3.660  11.548 -0.2621 -0.5289 -0.2912
18232TIP3    H176111   5.095   3.743  11.501 -1.1298  0.2319  0.8062
18232TIP3    H276112   5.133   3.671  11.629 -0.9573 -0.8123  0.1774
18233TIP3   OH276113   6.635   3.517   6.537 -0.4164  0.0190  0.8109
18233TIP3    H176114   6.700   3.451   6.561 -0.6128 -1.1356 -1.5294
18233TIP3    H276115   6.569   3.512   6.606  0.6635 -0.6404  1.8348
18234TIP3   OH276116   6.290   0.589   6.404 -0.4510 -0.6350 -0.8202
18234TIP3    H176117   6.315   0.579   6.496 -0.6363  0.3757 -0.6519
18234TIP3    H276118   6.259   0.502   6.379 -0.0787 -1.0135 -0.0312
18235TIP3   OH276119   2.034   2.086  13.321  0.4381  1.1901 -0.1986
18235TIP3    H176120   1.994   1.999  13.329 -1.1675  1.7278 -1.6455
18235TIP3    H276121   2.092   2.094  13.397 -1.1408 -0.2341  1.2285
18236TIP3   OH276122   6.550   3.438  13.762  0.0254 -0.5417  0.2528
18236TIP3    H176123   6.531   3.395  13.846  0.9517 -0.7538  0.3627
18236TIP3    H276124   6.545   3.531  13.782  0.7443 -0.5843  0.6743
18237TIP3   OH276125   3.460   6.516  13.582  0.7817 -0.0369 -0.3093
18237TIP3    H176126   3.541   6.466  13.592  1.4478  0.6117 -1.9467
18237TIP3    H276127   3.465   6.585  13.648  1.7325  0.1635 -0.5742
18238TIP3   OH276128   4.662   0.589   3.592  0.2472  0.2302 -0.2746
18238TIP3    H176129   4.571   0.618   3.589  0.1325  0.1005  1.2220
18238TIP3    H276130   4.699   0.634   3.667  1.2711 -0.1597 -0.5317
18239TIP3   OH276131   3.487   6.077   5.879 -0.0988 -0.3940 -0.3776
18239TIP3    H176132   3.461   6.150   5.936  1.4283 -0.5653  0.6170
18239TIP3    H276133   3.405   6.044   5.843 -1.1934 -0.4871  2.0113
18240TIP3   OH276134   6.612   0.849   4.154 -0.5726  0.3116 -0.5685
18240TIP3    H176135   6.601   0.836   4.248  1.0975 -0.9616 -0.4886
18240TIP3    H276136   6.531   0.818   4.115 -0.0932 -2.2855  0.2879
18241TIP3   OH276137   4.109   6.761  17.026 -0.4665  0.2926  0.6719
18241TIP3    H176138   4.078   6.778  17.116  0.8308  2.4405  0.7773
18241TIP3    H276139   4.116   6.848  16.987 -0.4464 -0.5788 -1.3478
18242TIP3   OH276140   3.603   2.606   4.316 -0.0828  0.1520  0.2826
18242TIP3    H176141   3.557   2.597   4.399 -1.7253  0.0407 -0.5935
18242TIP3    H276142   3.650   2.523   4.305  0.3246  0.2570  1.1849
18243TIP3   OH276143   0.758   4.278   5.664 -0.4875 -0.0019  0.9422
18243TIP3    H176144   0.712   4.315   5.740 -0.6823  1.7910  0.0107
18243TIP3    H276145   0.843   4.322   5.665 -0.1254 -0.6966  0.6744
18244TIP3   OH276146   4.063   5.854  17.226 -0.4791 -0.2332 -0.3079
18244TIP3    H176147   4.126   5.875  17.157 -0.3690 -1.8786 -0.7484
18244TIP3    H276148   4.118   5.822  17.299 -0.6571  0.6131  0.2066
18245TIP3   OH276149   4.814   4.452  11.177  0.4407 -0.9361  0.4422
18245TIP3    H176150   4.718   4.457  11.179  0.4981  0.1827  1.5306
18245TIP3    H276151   4.833   4.359  11.173 -0.6933 -1.2240  1.2150
18246TIP3   OH276152   6.114   5.138  14.042 -0.2420  0.1602  0.3149
18246TIP3    H176153   6.134   5.198  14.114  1.8942 -0.8842  0.6883
18246TIP3    H276154   6.120   5.051  14.082 -1.2417 -0.3779 -0.6683
18247TIP3   OH276155   5.805   0.585   0.977 -0.2755  0.3867 -0.0112
18247TIP3    H176156   5.876   0.568   1.040 -1.0263 -1.7660  0.3585
18247TIP3    H276157   5.834   0.540   0.897  0.3938  2.5999 -1.0728
18248TIP3   OH276158   4.923   1.114  12.794 -0.5493  0.4424  0.4187
18248TIP3    H176159   5.001   1.096  12.848 -0.5831  0.1578  0.3712
18248TIP3    H276160   4.861   1.155  12.855 -0.2606  0.9275  0.3941
18249TIP3   OH276161   3.761   3.655  13.698 -0.4341  0.4281  0.1378
18249TIP3    H176162   3.798   3.593  13.761 -1.6282 -1.5723 -1.0042
18249TIP3    H276163   3.832   3.672  13.636  0.1435  0.8391  0.8964
18250TIP3   OH276164   6.660   3.664   2.523  0.5696 -0.2139 -0.0392
18250TIP3    H176165   6.709   3.624   2.451 -0.9808  0.1265 -1.3357
18250TIP3    H276166   6.599   3.725   2.481 -1.0391 -0.6740  1.4779
18251TIP3   OH276167   6.632   2.444   5.822 -0.1337  0.0247  0.0212
18251TIP3    H176168   6.660   2.511   5.760 -2.4032  2.7270  1.6686
18251TIP3    H276169   6.713   2.403   5.850  1.1529  0.3508 -2.8698
18252TIP3   OH276170   3.884   0.961  12.245  0.3430 -0.2248 -0.1207
18252TIP3    H176171   3.829   1.038  12.233  0.5259  0.0013  0.4712
18252TIP3    H276172   3.864   0.930  12.333  0.5775 -0.6109 -0.1970
18253TIP3   OH276173   5.944   0.731   3.351  0.4093 -0.2694 -0.5610
18253TIP3    H176174   5.917   0.820   3.376 -0.3549 -1.5188  3.8957
18253TIP3    H276175   6.031   0.743   3.312  0.6766  2.3783  0.6250
18254TIP3   OH276176   4.382   4.335   3.023 -0.0553 -0.4580  0.1134
18254TIP3    H176177   4.352   4.410   3.074  0.1159 -0.5071  0.2876
18254TIP3    H276178   4.471   4.319   3.054  0.8321  0.7964 -1.6277
18255TIP3   OH276179   4.657   0.161  13.215 -0.2779 -0.7033  0.0545
18255TIP3    H176180   4.645   0.111  13.297  1.1957 -1.5741 -0.2192
18255TIP3    H276181   4.633   0.099  13.146 -1.0298 -0.1348 -0.2010
18256TIP3   OH276182   5.910   5.203  11.056  0.0158 -0.1384 -0.3918
18256TIP3    H176183   5.874   5.115  11.069 -0.0013 -0.2963 -1.4277
18256TIP3    H276184   5.934   5.206  10.964 -2.2137  1.7381 -1.0120
18257TIP3   OH276185   0.014   4.122   2.321  0.2887 -0.9847  0.2673
18257TIP3    H176186  -0.046   4.194   2.302 -1.6414 -1.8480  2.5902
18257TIP3    H276187   0.092   4.165   2.357 -0.4792 -0.0029  0.8152
18258TIP3   OH276188   6.309   0.980   4.509 -0.3104 -0.6915 -0.4917
18258TIP3    H176189   6.386   1.021   4.550 -2.7521  2.8944  1.0331
18258TIP3    H276190   6.341   0.948   4.425  2.8602  0.5781  0.0748
18259TIP3   OH276191   5.514   6.749   1.328  0.3158 -0.0886 -0.2496
18259TIP3    H176192   5.523   6.818   1.394 -0.5894 -1.0040  0.8694
18259TIP3    H276193   5.601   6.711   1.320  0.2854 -0.4369  0.9572
18260TIP3   OH276194   0.421   5.011  11.917 -0.4428 -0.4498 -0.2060
18260TIP3    H176195   0.454   5.018  12.006 -1.1192  0.7081 -0.0192
18260TIP3    H276196   0.498   5.023  11.862 -0.5117  2.8486  0.2097
18261TIP3   OH276197   2.412   0.527  14.092 -0.1391  0.2494 -0.0636
18261TIP3    H176198   2.503   0.533  14.064  0.3489 -2.7304  0.6154
18261TIP3    H276199   2.416   0.495  14.182 -1.8405 -1.1874 -0.4403
18262TIP3   OH276200   4.305   5.157   2.996  0.5485 -0.2074 -0.2149
18262TIP3    H176201   4.213   5.153   3.019  0.1576  1.3330 -1.3358
18262TIP3    H276202   4.351   5.169   3.079 -0.5534  2.3243  0.1059
18263TIP3   OH276203   3.385   1.181   1.470  0.2236 -0.7899 -0.5884
18263TIP3    H176204   3.456   1.119   1.456  0.2115 -0.8136 -0.5447
18263TIP3    H276205   3.365   1.174   1.563 -1.1190 -2.1531 -0.9492
18264TIP3   OH276206   3.460   5.663  16.943  0.0255  0.0114 -0.1289
18264TIP3    H176207   3.521   5.646  16.871  0.5149  0.5350  0.1557
18264TIP3    H276208   3.404   5.585  16.946 -0.9110  0.5683 -1.9519
18265TIP3   OH276209   2.642   5.668   1.981 -0.7293 -1.1411 -0.1640
18265TIP3    H176210   2.700   5.664   2.057  0.0827 -1.3123 -0.7792
18265TIP3    H276211   2.701   5.668   1.906 -1.5402 -1.7600 -0.8212
18266TIP3   OH276212   1.399   2.089   2.426 -0.3476  0.6312  0.9248
18266TIP3    H176213   1.456   2.166   2.428  1.9574 -0.9902  1.2853
18266TIP3    H276214   1.349   2.095   2.508 -0.7508  2.0893  0.6034
18267TIP3   OH276215   2.853   6.009   1.538 -0.1857 -0.1016 -0.9685
18267TIP3    H176216   2.759   6.010   1.519  0.0742 -0.5055 -2.3621
18267TIP3    H276217   2.883   5.924   1.508  0.3886 -0.5823  0.8499
18268TIP3   OH276218   3.358   6.555  11.140  0.0873  0.6867  0.6587
18268TIP3    H176219   3.264   6.572  11.142  0.4282  2.8330  1.1902
18268TIP3    H276220   3.397   6.637  11.111  1.8394  0.0275  0.9893
18269TIP3   OH276221   1.780   5.918   6.251  0.1872  0.5681  0.1985
18269TIP3    H176222   1.848   5.985   6.241  2.9756 -2.0460 -0.0377
18269TIP3    H276223   1.799   5.877   6.335 -2.2564  0.8496  0.9473
18270TIP3   OH276224   4.239   0.135  16.113  0.0791 -1.0116  0.2979
18270TIP3    H176225   4.267   0.093  16.194  0.6683  0.0586  0.6681
18270TIP3    H276226   4.143   0.136  16.118  0.0967 -1.4092  0.7409
18271TIP3   OH276227   2.535   2.551   2.891  0.3256 -0.7136  0.6308
18271TIP3    H176228   2.615   2.520   2.849  0.7890  1.0028  0.1266
18271TIP3    H276229   2.522   2.494   2.966  0.6828 -2.5187 -0.6347
18272TIP3   OH276230   6.184   6.266   4.632 -0.3508 -0.2934  0.6509
18272TIP3    H176231   6.242   6.256   4.708 -0.0431 -0.1549  0.4321
18272TIP3    H276232   6.150   6.355   4.640  2.0914  0.8966 -1.0621
18273TIP3   OH276233   0.621   4.387   5.878  0.0079  0.0303  0.7751
18273TIP3    H176234   0.629   4.392   5.974  1.7773  0.0885  0.6644
18273TIP3    H276235   0.609   4.478   5.851  0.0674  0.0811  0.9141
18274TIP3   OH276236   4.732   0.347   3.695 -0.3510  0.3810 -0.1381
18274TIP3    H176237   4.677   0.286   3.745  0.4374  0.5229  0.9354
18274TIP3    H276238   4.669   0.404   3.651 -1.0799  0.1993  0.6380
18275TIP3   OH276239   1.400   6.045  13.444  0.6905 -0.4549 -0.4819
18275TIP3    H176240   1.342   6.007  13.379  1.0790  1.2689 -1.9044
18275TIP3    H276241   1.437   6.122  13.402  1.0300  0.7047  1.7568
18276TIP3   OH276242   1.234   0.224   2.520  0.4074  0.3662 -0.3541
18276TIP3    H176243   1.304   0.160   2.533  0.4336  0.1924 -1.2604
18276TIP3    H276244   1.278   0.309   2.527  0.4921  0.2778  0.2101
18277TIP3   OH276245   0.986   6.453   3.586  0.1432  0.2938  0.1200
18277TIP3    H176246   1.046   6.434   3.513  0.6594  1.6041  0.1843
18277TIP3    H276247   0.905   6.481   3.543  0.0548 -0.0595  0.0496
18278TIP3   OH276248   4.528   3.081   2.664 -0.0325 -0.3311  0.9349
18278TIP3    H176249   4.561   3.056   2.578 -2.2418 -0.3268  0.0212
18278TIP3    H276250   4.565   3.168   2.681  0.0963 -0.1616 -0.1932
18279TIP3   OH276251   2.832   5.088  17.181  0.0258 -0.1186  0.3799
18279TIP3    H176252   2.832   5.015  17.243 -0.6734  0.5937  1.2543
18279TIP3    H276253   2.828   5.167  17.236 -0.2258  0.5504 -0.5603
18280TIP3   OH276254   4.438   2.714  12.486 -0.3587 -0.2569  0.3187
18280TIP3    H176255   4.493   2.756  12.553  0.2765  2.4655 -1.7127
18280TIP3    H276256   4.497   2.651  12.444  0.0010 -0.1827  0.6966
18281TIP3   OH276257   0.980   4.851   1.724 -0.7658 -0.5206 -0.3323
18281TIP3    H176258   1.012   4.851   1.814  1.8798  1.6714 -1.1435
18281TIP3    H276259   0.937   4.766   1.714 -0.0886 -1.3199  2.6069
18282TIP3   OH276260   1.082   5.337  14.758 -0.1707  0.6647  0.3008
18282TIP3    H176261   1.066   5.405  14.693 -0.6779  0.6702  0.4280
18282TIP3    H276262   0.996   5.318  14.795  0.0694  0.4505  0.7618
18283TIP3   OH276263   1.069   5.602   1.956 -0.0199 -0.3163 -0.1228
18283TIP3    H176264   1.140   5.589   2.018  1.2364  0.6312 -1.3027
18283TIP3    H276265   1.107   5.577   1.871 -1.5444 -1.1571 -0.5977
18284TIP3   OH276266   0.606   5.676  11.191 -0.4183  0.2984 -0.5239
18284TIP3    H176267   0.690   5.685  11.238  0.2021 -0.5275 -1.4416
18284TIP3    H276268   0.608   5.746  11.126 -0.4100  0.2383 -0.5880
18285TIP3   OH276269   6.432   5.331   0.288 -0.2679 -0.1564  0.5256
18285TIP3    H176270   6.506   5.301   0.340  0.5368  1.2643  0.2591
18285TIP3    H276271   6.470   5.392   0.225 -1.5199 -0.2378 -0.3472
18286TIP3   OH276272   3.878   0.649  13.865  0.1737 -0.4024 -0.0025
18286TIP3    H176273   3.919   0.633  13.950  1.2282  1.2218 -0.1510
18286TIP3    H276274   3.791   0.611  13.872  0.3091 -0.4551  1.7404
18287TIP3   OH276275   6.358   4.178   1.466 -0.1196  0.4412 -0.5247
18287TIP3    H176276   6.328   4.165   1.556  1.0547  2.6732  0.2785
18287TIP3    H276277   6.285   4.148   1.412 -1.9499  1.4479  1.2212
18288TIP3   OH276278   3.870   6.319   3.496 -0.9470 -0.3727 -0.1835
18288TIP3    H176279   3.936   6.277   3.551 -0.9397 -0.1627 -0.0271
18288TIP3    H276280   3.915   6.338   3.414 -0.2157  1.5556  0.6121
18289TIP3   OH276281   4.227   5.960  12.055  0.2771  0.2780 -0.5302
18289TIP3    H176282   4.138   5.927  12.048  0.7174 -0.7581 -1.5976
18289TIP3    H276283   4.221   6.051  12.026 -0.3790  0.1198 -0.9149
18290TIP3   OH276284   6.574   5.004   5.009  0.6688  0.3217 -0.3236
18290TIP3    H176285   6.608   4.987   5.097 -1.1604  2.1785  0.8645
18290TIP3    H276286   6.502   5.066   5.024  0.7104  1.2030 -3.2057
18291TIP3   OH276287   1.925   0.086   3.284  0.0691 -0.4425  0.8083
18291TIP3    H176288   1.849   0.044   3.243 -0.1599 -1.0784  1.8494
18291TIP3    H276289   1.973   0.014   3.326  2.1807 -0.3127 -1.1922
18292TIP3   OH276290   5.986   2.210  12.903 -0.4375 -0.0176 -0.5746
18292TIP3    H176291   5.937   2.165  12.972 -0.6119 -0.5134 -1.0157
18292TIP3    H276292   6.067   2.238  12.947 -0.6415 -0.1367 -0.1127
18293TIP3   OH276293   3.082   0.235  12.737  0.0822  0.2649 -0.4243
18293TIP3    H176294   3.100   0.269  12.649 -1.2408 -1.0673 -1.2621
18293TIP3    H276295   2.989   0.255  12.751  0.3348  0.6793  0.7964
18294TIP3   OH276296   6.384   0.530  15.954 -0.6993  0.1869  0.2582
18294TIP3    H176297   6.355   0.456  15.901  3.4078 -1.1345 -0.5384
18294TIP3    H276298   6.444   0.578  15.897 -0.0067  1.6760  2.1346
18295TIP3   OH276299   5.502   2.222  13.527 -0.4155 -0.1519 -0.0679
18295TIP3    H176300   5.574   2.200  13.587  1.7102  1.0440 -2.0199
18295TIP3    H276301   5.465   2.137  13.503 -0.0623 -0.7669  1.4301
18296TIP3   OH276302   6.688   3.452  12.584  0.8284 -0.1767  0.5852
18296TIP3    H176303   6.728   3.371  12.614 -1.2725 -0.9803  1.4311
18296TIP3    H276304   6.662   3.434  12.494  0.8289 -0.2737  0.6045
18297TIP3   OH276305   3.618   1.806  14.110 -0.8493  0.2527 -0.1906
18297TIP3    H176306   3.589   1.897  14.111  0.9130  0.8416  0.0003
18297TIP3    H276307   3.542   1.757  14.077 -1.3303  1.9463 -1.7114
18298TIP3   OH276308   4.605   4.315  10.742 -0.3436 -0.0222  0.1187
18298TIP3    H176309   4.648   4.260  10.677  1.5441  1.2230  0.2315
18298TIP3    H276310   4.516   4.326  10.710 -0.5943 -2.5557 -0.2290
18299TIP3   OH276311   0.877   2.374  15.703 -0.3124  0.5150  0.5279
18299TIP3    H176312   0.910   2.463  15.717 -0.7543  1.2716 -2.5904
18299TIP3    H276313   0.945   2.329  15.654 -1.0795 -0.0716 -0.0427
18300TIP3   OH276314   4.999   3.181   5.597 -0.0237  0.3044  0.4274
18300TIP3    H176315   4.921   3.237   5.600  0.6792  1.3477  0.1351
18300TIP3    H276316   4.965   3.093   5.584 -1.1189  0.9026 -1.1690
18301TIP3   OH276317   6.488   5.044  12.737  0.0255 -0.1963 -0.5379
18301TIP3    H176318   6.461   5.056  12.828  0.2712 -0.5544 -0.4179
18301TIP3    H276319   6.542   5.121  12.718 -1.5546  0.8562 -0.9742
18302TIP3   OH276320   0.786   0.367   1.653  0.4158 -1.1317 -0.3074
18302TIP3    H176321   0.711   0.308   1.651 -0.2460 -0.3451  0.5457
18302TIP3    H276322   0.781   0.416   1.571 -0.9705  0.0702  0.4568
18303TIP3   OH276323   1.037   2.057  11.785 -0.1224 -0.5292  0.4494
18303TIP3    H176324   1.097   2.123  11.748 -0.5746 -0.9260 -1.0830
18303TIP3    H276325   0.969   2.047  11.718 -1.0128 -1.2866  1.4371
18304TIP3   OH276326   5.204   3.489  16.630 -0.2782  0.6843  0.6804
18304TIP3    H176327   5.136   3.464  16.692 -0.4293  1.3464  0.7908
18304TIP3    H276328   5.159   3.540  16.563 -0.3367 -1.0485 -0.6719
18305TIP3   OH276329   0.512   2.214  12.408 -0.1185 -0.0003 -0.1187
18305TIP3    H176330   0.423   2.200  12.377 -0.0869 -0.9551  0.2101
18305TIP3    H276331   0.542   2.291  12.360 -0.4923 -0.7304 -1.5599
18306TIP3   OH276332   2.743   1.443  16.837  0.5625 -0.0686  0.8161
18306TIP3    H176333   2.825   1.492  16.846 -0.0676  1.6928 -1.9049
18306TIP3    H276334   2.756   1.389  16.759 -0.1463 -1.3774  1.5833
18307TIP3   OH276335   4.041   2.133  15.600  0.1041 -0.3202 -0.1653
18307TIP3    H176336   3.954   2.171  15.599 -0.3053 -1.0783  1.8683
18307TIP3    H276337   4.033   2.056  15.657  2.0129 -0.6313 -0.2479
18308TIP3   OH276338   2.125   4.701  17.325  0.3155  0.0443 -0.1162
18308TIP3    H176339   2.174   4.780  17.301  0.1176  0.0267 -0.6060
18308TIP3    H276340   2.111   4.709  17.419 -1.6412  1.7611 -0.4464
18309TIP3   OH276341   5.080   2.763   5.718 -0.5107 -0.0012  0.2694
18309TIP3    H176342   5.022   2.694   5.749  1.3469 -1.3904  0.8963
18309TIP3    H276343   5.126   2.793   5.797  0.5706  0.0842 -0.3654
18310TIP3   OH276344   1.931   0.923   5.288 -0.1874  0.6900 -0.3042
18310TIP3    H176345   2.019   0.889   5.273  0.5595  0.1070  3.9348
18310TIP3    H276346   1.943   1.018   5.294  0.3164  0.5907  0.6131
18311TIP3   OH276347   2.061   0.431  15.620 -0.0492  0.3716  0.2652
18311TIP3    H176348   1.992   0.393  15.565  0.9464 -2.1757  0.6631
18311TIP3    H276349   2.018   0.447  15.704  0.1765 -3.3676  1.2896
18312TIP3   OH276350   5.162   1.536  11.347  0.0565 -0.0323  0.2619
18312TIP3    H176351   5.116   1.511  11.267  0.9139 -1.9150  0.3098
18312TIP3    H276352   5.157   1.632  11.349 -0.4718  0.0184 -1.7259
18313TIP3   OH276353   2.250   5.736  14.499 -0.1243  0.6442  0.0880
18313TIP3    H176354   2.319   5.766  14.558  0.8982  0.2348 -0.8726
18313TIP3    H276355   2.242   5.643  14.516  0.2920  0.4906 -0.5216
18314TIP3   OH276356   4.642   4.955  13.129  0.3329  0.2134 -0.6300
18314TIP3    H176357   4.626   4.866  13.162 -0.6653 -0.0016 -1.6190
18314TIP3    H276358   4.701   4.942  13.055 -0.9962  0.1812 -1.7212
18315TIP3   OH276359   4.877   0.229   5.549 -0.5574  0.3267 -0.2526
18315TIP3    H176360   4.913   0.272   5.472 -1.8417  1.0318 -0.4907
18315TIP3    H276361   4.952   0.187   5.591  0.2057  0.1991 -1.7102
18316TIP3   OH276362   2.459   2.094   0.244 -0.2539 -0.0297  0.1817
18316TIP3    H176363   2.480   2.076   0.153 -0.4217  0.3559  0.0624
18316TIP3    H276364   2.412   2.017   0.274 -2.1690  0.7352 -0.7081
18317TIP3   OH276365   6.254   1.084  11.339 -0.2090  0.1737 -0.4801
18317TIP3    H176366   6.198   1.049  11.408  1.9034  1.0435  1.8587
18317TIP3    H276367   6.293   1.007  11.298 -0.9626 -0.3475 -0.2393
18318TIP3   OH276368   2.584   0.081   0.045 -0.5253  0.2947  0.0597
18318TIP3    H176369   2.587   0.106   0.137  1.3503 -0.6320  0.2835
18318TIP3    H276370   2.503   0.030   0.037  0.5940 -1.9427  1.8572
18319TIP3   OH276371   3.957   4.180  13.924 -0.1176 -0.8132 -0.4613
18319TIP3    H176372   3.979   4.102  13.872 -1.1854 -0.8990 -0.8084
18319TIP3    H276373   3.956   4.251  13.860 -0.1741 -0.6966 -0.3308
18320TIP3   OH276374   0.032   0.770   3.971  0.1738 -0.3264 -0.4681
18320TIP3    H176375  -0.007   0.730   4.049 -0.3744 -0.8874 -1.0207
18320TIP3    H276376  -0.007   0.858   3.967 -1.2207 -0.9532 -1.1268
18321TIP3   OH276377   2.832   1.569  15.620 -0.2002 -0.4915 -0.6902
18321TIP3    H176378   2.750   1.549  15.666 -0.1467  1.0246  0.1288
18321TIP3    H276379   2.840   1.499  15.554 -2.4069 -0.4099 -1.1366
18322TIP3   OH276380   5.678   5.448   5.406 -0.0270 -0.0942 -0.6506
18322TIP3    H176381   5.676   5.543   5.395  2.9244 -0.0462 -1.7039
18322TIP3    H276382   5.654   5.413   5.320 -0.2269 -0.2771 -0.5211
18323TIP3   OH276383   2.712   6.710   1.569 -0.3894 -0.0899 -0.3347
18323TIP3    H176384   2.713   6.617   1.592 -0.6786 -0.5190 -1.9184
18323TIP3    H276385   2.750   6.713   1.482  0.7998  1.4663  0.2030
18324TIP3   OH276386   3.080   4.960   0.373 -0.3119 -0.4478  0.4369
18324TIP3    H176387   3.124   5.005   0.300  1.2870 -1.6281  0.6234
18324TIP3    H276388   3.041   5.031   0.424  0.0006  0.5367 -0.6234
18325TIP3   OH276389   4.557   3.908   3.285 -0.2849  0.0681 -0.3833
18325TIP3    H176390   4.500   3.957   3.226 -0.5255 -0.2795 -0.4448
18325TIP3    H276391   4.568   3.823   3.242  0.2190  0.1026 -0.3349
18326TIP3   OH276392   2.998   3.741  13.279  0.3094 -0.0085  1.2664
18326TIP3    H176393   2.914   3.781  13.255 -0.0863 -1.2777  0.3903
18326TIP3    H276394   3.043   3.807  13.330  0.4061  2.2283 -1.4647
18327TIP3   OH276395   3.895   2.884   1.699  0.2563 -0.2000  0.6882
18327TIP3    H176396   3.948   2.902   1.776  0.3729 -0.4501  0.6667
18327TIP3    H276397   3.843   2.964   1.687  1.3060  0.4357  0.1533
18328TIP3   OH276398   1.021   4.014   0.986  0.0757  0.0076 -0.0286
18328TIP3    H176399   1.024   3.990   1.079  0.1369  0.7317  0.1684
18328TIP3    H276400   1.008   3.932   0.940  0.1363 -0.3735  0.6199
18329TIP3   OH276401   3.317   1.591   3.412 -0.0826  0.4453 -1.0312
18329TIP3    H176402   3.316   1.506   3.457  0.6193  0.5650 -0.7784
18329TIP3    H276403   3.225   1.612   3.399 -0.3352  0.5730  0.6824
18330TIP3   OH276404   4.268   2.795  14.064 -0.1368 -0.7941 -0.3995
18330TIP3    H176405   4.205   2.864  14.086  0.9444  0.1065 -0.0261
18330TIP3    H276406   4.274   2.798  13.969 -0.2582 -0.5051 -0.4011
18331TIP3   OH276407   2.663   4.803   2.999  0.3083  0.1608  0.2780
18331TIP3    H176408   2.727   4.796   2.928  0.9408  0.5876  0.8068
18331TIP3    H276409   2.624   4.715   3.004 -1.7885  0.7642 -2.4669
18332TIP3   OH276410   5.842   3.831  11.293  0.1250 -0.3381  0.0073
18332TIP3    H176411   5.772   3.882  11.253  0.8063  0.7793  0.2236
18332TIP3    H276412   5.921   3.857  11.248  0.7402  0.1168  1.3019
18333TIP3   OH276413   4.501   1.906   4.016 -0.5374 -0.3625 -0.2922
18333TIP3    H176414   4.506   1.926   4.109 -0.5232  0.7697 -0.5289
18333TIP3    H276415   4.412   1.930   3.990 -0.9638 -1.8485 -0.3257
18334TIP3   OH276416   5.873   6.046  14.417 -0.3331 -0.3507 -0.4142
18334TIP3    H176417   5.828   6.073  14.496 -2.1201 -1.6981 -0.9090
18334TIP3    H276418   5.952   6.100  14.414  0.5083 -1.1828  2.9628
18335TIP3   OH276419   4.994   1.000   0.556  0.4153  0.6873 -0.1115
18335TIP3    H176420   5.079   0.975   0.520  0.6125  1.0320  0.1083
18335TIP3    H276421   5.013   1.023   0.647  0.1314  1.0064 -0.1320
18336TIP3   OH276422   6.333   1.066  12.956  0.6770 -0.3472 -0.6608
18336TIP3    H176423   6.293   1.111  13.030  1.8135  0.8272 -0.7196
18336TIP3    H276424   6.281   1.092  12.880  2.4435  2.5982 -1.0178
18337TIP3   OH276425   6.726   2.115   4.800 -0.1314  0.7528  0.2283
18337TIP3    H176426   6.779   2.085   4.726  1.6061 -2.7357  2.5488
18337TIP3    H276427   6.750   2.207   4.811  2.7618  0.2822 -1.0962
18338TIP3   OH276428   2.043   4.660  13.537  0.2529 -0.1156  0.6658
18338TIP3    H176429   1.981   4.700  13.475 -0.0660  0.2859  1.2338
18338TIP3    H276430   2.006   4.679  13.623  1.3740  0.4919  1.0381
18339TIP3   OH276431   5.212   4.711  15.236  0.0606  0.3317  0.1596
18339TIP3    H176432   5.127   4.673  15.214  0.3930  0.1015 -0.7689
18339TIP3    H276433   5.194   4.767  15.312 -0.6929 -0.6093  0.6969
18340TIP3   OH276434   5.368   6.182  16.776  0.0204  0.2220 -0.2024
18340TIP3    H176435   5.275   6.163  16.768 -0.2986  1.6044 -0.0249
18340TIP3    H276436   5.378   6.271  16.743  1.4890 -0.3069 -1.3275
18341TIP3   OH276437   6.374   5.837  14.124 -0.3009  0.4574  0.2809
18341TIP3    H176438   6.355   5.929  14.143  0.6689  0.3949  1.7147
18341TIP3    H276439   6.312   5.789  14.179 -1.9526  0.1938 -1.6937
18342TIP3   OH276440   3.943   1.269   3.057 -0.3601  0.2554  0.4899
18342TIP3    H176441   3.928   1.252   2.964 -0.2534 -1.5125  0.7628
18342TIP3    H276442   3.863   1.239   3.100  0.5038 -1.1680  1.1626
18343TIP3   OH276443   5.111   6.006   5.490 -0.2450  0.0683 -0.0058
18343TIP3    H176444   5.068   6.045   5.414  0.5164  0.2641 -0.3371
18343TIP3    H276445   5.052   5.935   5.516 -3.3865  3.1976  2.5313
18344TIP3   OH276446   6.228   3.614   6.153 -0.3064  0.2516  0.1066
18344TIP3    H176447   6.314   3.613   6.196  0.2871  0.3947 -1.0568
18344TIP3    H276448   6.170   3.658   6.216  0.3596 -0.2248  1.0843
18345TIP3   OH276449   3.577   3.995  15.812  0.1824 -0.3837 -0.4062
18345TIP3    H176450   3.613   4.082  15.799 -0.2152 -0.0456  0.6095
18345TIP3    H276451   3.652   3.936  15.808  0.4287 -0.0181 -1.2576
18346TIP3   OH276452   0.843   5.455   0.876  0.3982  0.2571  0.1156
18346TIP3    H176453   0.915   5.515   0.896  1.2091 -0.2072 -1.3224
18346TIP3    H276454   0.815   5.422   0.962  1.4725  0.9223  0.7346
18347TIP3   OH276455   6.755   6.314   3.479 -0.0921 -0.4141  0.0316
18347TIP3    H176456   6.796   6.394   3.509 -2.9536  1.7403 -1.3377
18347TIP3    H276457   6.777   6.308   3.386 -1.8052  0.1758 -0.4533
18348TIP3   OH276458   4.528   0.871   3.066  0.1542 -0.5131 -0.1007
18348TIP3    H176459   4.530   0.949   3.121 -2.5934  0.0142 -0.6392
18348TIP3    H276460   4.585   0.808   3.112  1.1161  1.2042  1.1948
18349TIP3   OH276461   2.942   2.134   6.435 -0.2725  0.3759 -0.0919
18349TIP3    H176462   2.890   2.151   6.356  0.0938 -0.1908 -0.4595
18349TIP3    H276463   3.032   2.145   6.408 -0.1928  2.6023  0.8450
18350TIP3   OH276464   3.583   1.395  12.959  0.5579  0.2588 -0.2207
18350TIP3    H176465   3.609   1.482  12.930  0.0984  0.1162 -1.0811
18350TIP3    H276466   3.560   1.348  12.878  1.3417 -0.8395  0.1699
18351TIP3   OH276467   4.801   2.465   3.241 -0.2384  0.0328 -0.4013
18351TIP3    H176468   4.800   2.512   3.157 -0.6735  1.0850  0.1752
18351TIP3    H276469   4.713   2.476   3.276 -0.0392 -0.3335  0.2362
18352TIP3   OH276470   3.190   2.906   4.245  0.3749 -0.1131 -0.5048
18352TIP3    H176471   3.187   2.829   4.187 -1.0893  0.3646 -1.0976
18352TIP3    H276472   3.189   2.981   4.185  0.0840  0.3876  0.1155
18353TIP3   OH276473   5.308   1.205  12.662  0.2145  0.1760 -0.1264
18353TIP3    H176474   5.371   1.136  12.642 -0.6011 -0.9958  1.2269
18353TIP3    H276475   5.223   1.162  12.659 -0.2142  0.7212  2.1817
18354TIP3   OH276476   6.450   4.993   4.119 -0.7996 -0.1089 -0.5770
18354TIP3    H176477   6.386   5.060   4.138 -1.0096 -0.3798 -0.3212
18354TIP3    H276478   6.419   4.951   4.038  0.2269  1.2077 -1.7166
18355TIP3   OH276479   1.919   0.949  11.569 -0.1162 -0.3677  0.3844
18355TIP3    H176480   1.904   0.878  11.507 -3.2604 -0.2799  0.8580
18355TIP3    H276481   1.910   0.907  11.655  1.8579 -0.0513  0.7923
18356TIP3   OH276482   4.830   5.943   0.769  0.7017  0.0759  0.5039
18356TIP3    H176483   4.865   5.874   0.712  0.8486 -0.2522  0.9813
18356TIP3    H276484   4.907   5.991   0.800  0.8717 -1.2335  2.3075
18357TIP3   OH276485   1.931   2.792  15.170  0.4161 -0.2454 -0.1271
18357TIP3    H176486   1.850   2.801  15.221  1.2667 -0.0307  1.2254
18357TIP3    H276487   1.913   2.839  15.088 -0.8834 -0.3559  0.0699
18358TIP3   OH276488   2.558   0.995   1.869 -0.0157  0.2219  0.3393
18358TIP3    H176489   2.553   0.917   1.813  0.5562  1.3194 -1.3202
18358TIP3    H276490   2.517   1.064   1.817  1.3321  1.4911  0.8982
18359TIP3   OH276491   2.549   5.524  12.295 -0.3570 -0.2359  0.3839
18359TIP3    H176492   2.607   5.465  12.248 -0.8305  0.3485 -1.0221
18359TIP3    H276493   2.507   5.470  12.362 -0.0900 -1.2604 -0.2608
18360TIP3   OH276494   1.082   2.734   0.765  0.5675  0.2550  0.5618
18360TIP3    H176495   1.033   2.728   0.683  1.1703 -0.1842  0.2270
18360TIP3    H276496   1.017   2.715   0.833  0.3604 -0.7966  0.0915
18361TIP3   OH276497   1.465   3.636  14.276  0.0876 -0.4356  0.1499
18361TIP3    H176498   1.419   3.552  14.285 -2.0913  0.6574 -0.0610
18361TIP3    H276499   1.417   3.682  14.208 -0.7242  2.1820  2.3281
18362TIP3   OH276500   0.605   0.968  10.682  0.5666 -0.3667 -0.3918
18362TIP3    H176501   0.593   0.944  10.590 -0.1489 -0.5523 -0.2548
18362TIP3    H276502   0.674   1.034  10.680  0.6896 -0.5019 -1.0439
18363TIP3   OH276503   4.470   6.617  15.159 -0.1496 -0.9017  0.4670
18363TIP3    H176504   4.478   6.629  15.065  0.4788  0.1822  0.6482
18363TIP3    H276505   4.560   6.613  15.191 -0.3572 -1.3438  1.0219
18364TIP3   OH276506   0.582   0.839   4.438 -0.4401 -0.5675  0.0899
18364TIP3    H176507   0.540   0.754   4.428 -0.5050 -0.5360  0.0977
18364TIP3    H276508   0.613   0.839   4.529  0.8386 -1.1713 -0.3191
18365TIP3   OH276509   1.289   4.558   6.051 -0.3474 -0.4491  0.4350
18365TIP3    H176510   1.208   4.545   6.100 -0.5009 -0.0876  0.2744
18365TIP3    H276511   1.339   4.620   6.104 -0.2046 -0.6117  0.4938
18366TIP3   OH276512   2.455   3.621   4.727  0.0938 -0.1951  0.1011
18366TIP3    H176513   2.431   3.704   4.768 -0.4066 -0.4279  0.2855
18366TIP3    H276514   2.536   3.640   4.679 -0.1986  0.4796 -0.1334
18367TIP3   OH276515   3.227   2.387  14.885  0.0768 -0.2859  0.2260
18367TIP3    H176516   3.210   2.302  14.924 -0.1349  0.1632  1.1423
18367TIP3    H276517   3.198   2.450  14.951  2.4106  0.5195  0.5895
18368TIP3   OH276518   0.924   2.011   6.004  0.3615  1.1906 -0.6660
18368TIP3    H176519   0.879   1.969   6.077 -3.1490  0.5246 -2.9303
18368TIP3    H276520   0.984   1.944   5.970  0.9887  1.0350  0.6979
18369TIP3   OH276521   1.827   1.695  12.819  0.4893 -0.4911  0.1736
18369TIP3    H176522   1.735   1.680  12.799  0.2269 -0.4314  1.3053
18369TIP3    H276523   1.830   1.709  12.914  1.5794  0.1204  0.0679
18370TIP3   OH276524   5.961   5.140   6.586 -0.1917 -0.2860  0.0057
18370TIP3    H176525   5.898   5.098   6.645 -0.3021  0.0089  0.0973
18370TIP3    H276526   5.934   5.110   6.499 -0.0109 -0.7436  0.1043
18371TIP3   OH276527   5.261   3.251  10.492  0.1787  0.0727 -0.1059
18371TIP3    H176528   5.205   3.179  10.463  0.7318  0.2853 -1.8462
18371TIP3    H276529   5.219   3.285  10.570 -0.9698 -1.1040 -0.1835
18372TIP3   OH276530   0.264   3.494  10.515  0.2211  0.4923  0.3893
18372TIP3    H176531   0.177   3.535  10.513  0.1751  0.3611 -0.4762
18372TIP3    H276532   0.325   3.568  10.513  0.1349  0.5445 -0.3037
18373TIP3   OH276533   2.270   2.070  10.883 -0.4344 -0.0188  0.1014
18373TIP3    H176534   2.315   2.154  10.879  2.1526 -1.3607 -1.9499
18373TIP3    H276535   2.198   2.078  10.820  0.5375  0.3137 -1.0036
18374TIP3   OH276536   0.349   5.076  15.131 -0.1130 -0.5064 -0.4877
18374TIP3    H176537   0.364   5.100  15.222 -0.2267  1.2361 -0.8962
18374TIP3    H276538   0.437   5.055  15.098  0.1231  0.2001 -0.3275
18375TIP3   OH276539   5.663   2.475   5.151 -0.7409  0.4704 -0.1467
18375TIP3    H176540   5.680   2.533   5.076 -0.0777 -0.2593 -0.5815
18375TIP3    H276541   5.603   2.409   5.116  0.3316 -0.4318 -0.3260
18376TIP3   OH276542   4.785   4.250   0.841 -0.1472 -0.0912  0.1037
18376TIP3    H176543   4.751   4.268   0.754  1.4587 -0.8998 -0.7335
18376TIP3    H276544   4.765   4.157   0.855  2.0531 -0.7367 -0.6331
18377TIP3   OH276545   5.715   5.632  13.665 -0.1990  0.0868  0.1356
18377TIP3    H176546   5.696   5.720  13.699  0.3588 -0.1195  0.9947
18377TIP3    H276547   5.656   5.574  13.713 -0.6137 -0.0130 -0.4781
18378TIP3   OH276548   3.714   3.274  12.056 -0.9051 -0.0899 -0.0153
18378TIP3    H176549   3.796   3.317  12.079  1.0516 -2.9196 -1.1020
18378TIP3    H276550   3.661   3.279  12.136  0.3245  1.7597  0.7431
18379TIP3   OH276551   2.689   6.374  13.140  0.4724 -0.4923  0.3186
18379TIP3    H176552   2.778   6.355  13.171  0.4775 -2.9491 -0.9365
18379TIP3    H276553   2.692   6.356  13.046 -1.3320 -0.5000  0.2289
18380TIP3   OH276554   4.455   6.501  11.705  1.1361 -0.5440 -0.1911
18380TIP3    H176555   4.446   6.570  11.771 -0.2135 -1.6642  0.8729
18380TIP3    H276556   4.386   6.519  11.641  1.2869 -0.4585 -0.3290
18381TIP3   OH276557   4.659   6.073  13.316 -0.0398  0.0627 -0.2476
18381TIP3    H176558   4.614   6.155  13.294  0.2356  0.2736 -0.0448
18381TIP3    H276559   4.643   6.015  13.242 -2.0892 -0.4714  0.5619
18382TIP3   OH276560   0.800   6.502  11.890  0.1166  0.5196  0.3898
18382TIP3    H176561   0.798   6.538  11.801 -0.6394  2.0243  0.9768
18382TIP3    H276562   0.772   6.575  11.946 -4.2072 -1.6292  1.4620
18383TIP3   OH276563   3.192   4.844  13.629  0.5898  0.1720 -0.2570
18383TIP3    H176564   3.134   4.915  13.659  0.1692  0.1960 -1.1073
18383TIP3    H276565   3.192   4.782  13.701  0.9472  1.0203  0.4984
18384TIP3   OH276566   1.426   1.330   6.013  0.3830  0.1178  0.6191
18384TIP3    H176567   1.391   1.407   6.058 -1.1794 -1.1005  1.5738
18384TIP3    H276568   1.457   1.273   6.083 -0.6415 -1.1284  0.1083
18385TIP3   OH276569   3.124   5.806  15.313 -0.0443 -0.3488  0.1920
18385TIP3    H176570   3.158   5.768  15.232 -2.5784 -0.0138 -1.1481
18385TIP3    H276571   3.197   5.855  15.350  1.7419 -2.0733 -0.8562
18386TIP3   OH276572   0.529   5.503   1.226 -0.1509 -0.4745 -0.3050
18386TIP3    H176573   0.555   5.578   1.280  0.0033 -0.1918 -0.7689
18386TIP3    H276574   0.489   5.542   1.148 -1.0832 -0.8964 -0.0439
18387TIP3   OH276575   0.773   2.968   5.772  0.3601 -0.2826 -0.4289
18387TIP3    H176576   0.678   2.952   5.780  0.5072 -0.6877  0.7398
18387TIP3    H276577   0.811   2.880   5.773  0.8775 -0.0602  1.2043
18388TIP3   OH276578   0.133   2.958   5.609 -0.3722  0.5515  0.1497
18388TIP3    H176579   0.083   2.936   5.687  0.1687  2.2653  1.0214
18388TIP3    H276580   0.165   2.874   5.576 -0.7923 -0.2169  1.6378
18389TIP3   OH276581   3.217   2.764   3.772  0.1318  0.0382  0.0769
18389TIP3    H176582   3.202   2.858   3.758  0.2147  0.0318 -0.0573
18389TIP3    H276583   3.311   2.752   3.754  0.3591  0.1251  1.1380
18390TIP3   OH276584   0.541   0.779  13.459  0.3244 -0.3861  0.0092
18390TIP3    H176585   0.470   0.715  13.459  0.9848 -1.1675  1.2496
18390TIP3    H276586   0.618   0.728  13.484  1.7393  0.0613 -3.0486
18391TIP3   OH276587   2.610   3.632  15.209  0.3481  0.1508 -0.4145
18391TIP3    H176588   2.624   3.564  15.143 -1.1667 -1.7220  1.0562
18391TIP3    H276589   2.532   3.679  15.178  0.4992  0.2417 -0.6648
18392TIP3   OH276590   1.785   4.319   4.266 -0.1614  0.1666  0.1465
18392TIP3    H176591   1.691   4.301   4.259 -0.4661  1.4008  0.7366
18392TIP3    H276592   1.826   4.233   4.269 -1.1737 -0.4061 -1.2889
18393TIP3   OH276593   1.043   0.227  14.455 -0.0523  0.2698  0.1509
18393TIP3    H176594   1.023   0.268  14.371  0.5414  2.8603  1.1917
18393TIP3    H276595   0.959   0.192  14.485 -0.8603  1.7980 -0.2516
18394TIP3   OH276596   2.671   2.202  16.164 -0.3000  0.4737 -1.0408
18394TIP3    H176597   2.730   2.191  16.238  0.4802 -1.0730 -1.8321
18394TIP3    H276598   2.592   2.242  16.201  0.3857  0.4987  0.4529
18395TIP3   OH276599   3.001   1.416   1.155 -0.3204  0.0988  0.0695
18395TIP3    H176600   3.019   1.509   1.140 -1.4555  0.5698  1.3977
18395TIP3    H276601   3.070   1.387   1.214  1.6038 -0.6482 -2.3710
18396TIP3   OH276602   0.572   1.707   4.909  0.0623  0.3114 -0.0051
18396TIP3    H176603   0.604   1.787   4.950  3.9291 -0.6349 -0.8462
18396TIP3    H276604   0.569   1.643   4.981 -0.6905  0.5720  0.2049
18397TIP3   OH276605   2.667   4.035   0.813  0.3803 -0.7226 -0.0830
18397TIP3    H176606   2.747   4.072   0.776  0.2678 -0.4427 -0.0512
18397TIP3    H276607   2.652   4.086   0.892  0.9142 -1.6663  0.6525
18398TIP3   OH276608   2.832   5.981   2.944 -0.8479  0.0508 -0.2983
18398TIP3    H176609   2.835   6.074   2.923  0.1324  0.0745 -0.1247
18398TIP3    H276610   2.881   5.973   3.026 -1.7493 -0.4918  0.2041
18399TIP3   OH276611   5.654   6.694   6.478 -0.1004  0.1290 -0.1039
18399TIP3    H176612   5.651   6.632   6.551  0.2315 -0.3224 -0.4652
18399TIP3    H276613   5.583   6.755   6.495  0.8258  0.8747  1.3481
18400TIP3   OH276614   4.778   0.736   0.475 -0.0871 -0.4498 -0.1247
18400TIP3    H176615   4.802   0.653   0.516  1.0958 -0.4706 -0.7946
18400TIP3    H276616   4.862   0.778   0.456 -0.5937 -0.1125 -1.8254
18401TIP3   OH276617   0.118   5.774   0.440 -0.2269  0.2991  0.2750
18401TIP3    H176618   0.043   5.777   0.499 -0.4614  0.7808 -0.0472
18401TIP3    H276619   0.133   5.865   0.416  0.1458  0.1490 -0.0650
18402TIP3   OH276620   5.310   6.748  12.054  0.4943 -0.1659 -0.0117
18402TIP3    H176621   5.317   6.721  12.145 -0.8450 -0.8915 -0.0934
18402TIP3    H276622   5.400   6.745  12.021  1.0878  0.7998  1.4510
18403TIP3   OH276623   3.422   4.033  11.892  0.4694 -0.3442 -0.5696
18403TIP3    H176624   3.443   3.993  11.977 -0.5484 -0.0221 -0.1476
18403TIP3    H276625   3.406   3.959  11.834  0.1293 -0.5708 -0.1941
18404TIP3   OH276626   3.101   5.424   4.943 -0.2694  0.3890  0.6229
18404TIP3    H176627   3.011   5.416   4.975 -0.2991 -0.7941  0.2750
18404TIP3    H276628   3.131   5.508   4.978 -1.2747  0.4799  1.3193
18405TIP3   OH276629   3.807   3.028   5.253  0.6528  0.0878 -0.0084
18405TIP3    H176630   3.719   2.989   5.255 -0.0766  1.6441  1.6257
18405TIP3    H276631   3.864   2.957   5.225 -0.9942 -1.2515 -0.1488
18406TIP3   OH276632   5.686   1.201  11.872 -0.2066 -0.2629  0.6015
18406TIP3    H176633   5.607   1.184  11.820 -1.2515  1.2336  1.5998
18406TIP3    H276634   5.746   1.131  11.848 -1.0888 -0.3485 -1.6752
18407TIP3   OH276635   3.885   1.603   0.051 -0.2541  0.4262  0.3306
18407TIP3    H176636   3.826   1.626  -0.020  0.2561  0.9621  0.0692
18407TIP3    H276637   3.899   1.509   0.040  0.2269  0.5899 -0.6032
18408TIP3   OH276638   5.003   2.951   1.590 -0.4327 -0.2896  0.2768
18408TIP3    H176639   5.039   2.934   1.503 -0.2678  1.1842  0.0268
18408TIP3    H276640   4.916   2.987   1.573  0.3668  1.9812  0.5726
18409TIP3   OH276641   4.465   6.116   2.570 -0.1358 -0.2236 -0.5455
18409TIP3    H176642   4.462   6.020   2.559  0.2119 -0.2449 -0.4810
18409TIP3    H276643   4.379   6.146   2.541 -0.6838 -0.6620  0.5612
18410TIP3   OH276644   6.174   2.544  12.171  0.3627 -0.3538  0.1521
18410TIP3    H176645   6.260   2.583  12.156  0.3894 -0.1297  0.8168
18410TIP3    H276646   6.112   2.606  12.132  0.5325 -0.8684 -0.9602
18411TIP3   OH276647   5.314   2.196   1.764  0.8576 -0.0143  0.7186
18411TIP3    H176648   5.355   2.134   1.704  0.1733 -0.5800  0.8135
18411TIP3    H276649   5.375   2.203   1.837  1.4149  0.2131  0.2301
18412TIP3   OH276650   6.228   5.393  13.509 -0.1288  0.3535  0.1039
18412TIP3    H176651   6.305   5.336  13.512  1.4211  2.3679  2.0343
18412TIP3    H276652   6.263   5.481  13.516 -2.5066  1.5400 -1.6673
18413TIP3   OH276653   3.601   6.098  10.887 -0.5881 -0.5537 -0.4963
18413TIP3    H176654   3.634   6.112  10.976  0.1446  0.0979 -0.8509
18413TIP3    H276655   3.648   6.021  10.855  0.8692  0.5333 -1.0973
18414TIP3   OH276656   2.927   2.533   0.639 -0.2451  0.0627  0.3354
18414TIP3    H176657   2.936   2.509   0.731 -0.5765 -0.3220  0.2695
18414TIP3    H276658   3.004   2.494   0.596  0.7434  1.5207  0.6803
18415TIP3   OH276659   3.465   0.203   2.023  0.3179  0.6468  0.0940
18415TIP3    H176660   3.539   0.258   2.045 -0.1413  0.8994  1.0797
18415TIP3    H276661   3.408   0.258   1.970 -0.8145  1.6601  2.2222
18416TIP3   OH276662   3.590   1.397   5.393 -0.0533  0.2889  0.0276
18416TIP3    H176663   3.526   1.364   5.330 -1.1982 -0.6215  1.6052
18416TIP3    H276664   3.664   1.424   5.339 -0.8338 -0.7878 -1.6816
18417TIP3   OH276665   4.771   0.788  16.402  0.5633 -0.6017 -0.2420
18417TIP3    H176666   4.829   0.861  16.378 -1.7193  0.8598 -1.8012
18417TIP3    H276667   4.761   0.796  16.497  1.2337  0.4563 -0.2396
18418TIP3   OH276668   4.910   0.650  17.265 -0.6367  0.1317 -0.3303
18418TIP3    H176669   4.850   0.723  17.274 -1.8192 -0.9614  1.1573
18418TIP3    H276670   4.857   0.579  17.230  0.8164  0.3022 -3.1438
18419TIP3   OH276671   0.366   1.240   1.670 -0.3426  0.0619  0.6067
18419TIP3    H176672   0.448   1.290   1.668  0.1042 -0.6805 -0.4803
18419TIP3    H276673   0.365   1.199   1.757 -0.8707  2.1618  1.6331
18420TIP3   OH276674   2.714   4.158  10.635  0.2191 -0.0441 -0.6482
18420TIP3    H176675   2.698   4.073  10.594  1.2865 -1.0079  0.8210
18420TIP3    H276676   2.809   4.169  10.633  0.3854 -0.3521  1.8260
18421TIP3   OH276677   1.177   4.233  11.684 -0.6991  0.8330 -0.6281
18421TIP3    H176678   1.209   4.210  11.771 -1.7765 -2.3607 -0.9517
18421TIP3    H276679   1.256   4.252  11.633 -0.0467  2.5318  0.9101
18422TIP3   OH276680   3.737   5.634   1.152  0.1911  0.9914  0.0196
18422TIP3    H176681   3.706   5.678   1.231 -0.6212  0.4374  0.0206
18422TIP3    H276682   3.726   5.541   1.170 -2.9385  0.8429 -1.7946
18423TIP3   OH276683   0.182   4.572  11.435  0.6355  0.7340 -0.0531
18423TIP3    H176684   0.269   4.610  11.426  1.2392 -0.3960  0.7183
18423TIP3    H276685   0.134   4.605  11.359  2.0268  0.6296 -1.0298
18424TIP3   OH276686   5.290   0.572  16.959  0.2696  0.1555 -0.1805
18424TIP3    H176687   5.315   0.480  16.951  2.0062  0.4221  1.4628
18424TIP3    H276688   5.248   0.579  17.044  0.0662  0.8616 -0.3315
18425TIP3   OH276689   6.621   2.668  15.459  0.4368 -0.0028 -0.7547
18425TIP3    H176690   6.707   2.627  15.453  1.3619  1.6773  0.2636
18425TIP3    H276691   6.588   2.669  15.368  0.8022 -1.9885 -0.9443
18426TIP3   OH276692   0.294   2.394   1.543  0.3254  0.0472 -0.3575
18426TIP3    H176693   0.283   2.304   1.512  1.7775 -0.3428  0.1555
18426TIP3    H276694   0.305   2.445   1.462  3.4798 -0.8739 -0.6689
18427TIP3   OH276695   6.235   1.774  15.688 -0.2146  0.6477 -0.1746
18427TIP3    H176696   6.263   1.687  15.661 -0.2319 -0.0644  1.9812
18427TIP3    H276697   6.146   1.782  15.653  0.3966  0.5476 -1.8829
18428TIP3   OH276698   4.400   1.587  16.533 -0.2170  0.2824 -0.5032
18428TIP3    H176699   4.422   1.659  16.592 -0.8460  0.7347 -0.8071
18428TIP3    H276700   4.471   1.524  16.545 -0.3994  0.2877  0.8460
18429TIP3   OH276701   5.515   1.730  16.874 -0.1479 -0.8932 -0.1392
18429TIP3    H176702   5.551   1.641  16.868  0.8988 -0.7255  2.6271
18429TIP3    H276703   5.439   1.720  16.932 -0.1888 -0.0054 -0.0398
18430TIP3   OH276704   0.725   1.457   5.763  0.3061  0.3662  0.5191
18430TIP3    H176705   0.668   1.437   5.838 -1.4865 -0.6731 -1.0425
18430TIP3    H276706   0.711   1.551   5.748 -0.4827  0.2764  0.6044
18431TIP3   OH276707   0.540   4.845  17.116  0.0132 -0.2608  0.2102
18431TIP3    H176708   0.513   4.916  17.058 -0.5523 -0.2081  0.5301
18431TIP3    H276709   0.579   4.889  17.192  2.8040 -0.3540 -1.0567
18432TIP3   OH276710   5.664   5.603  15.740  1.0063  0.4610 -0.0052
18432TIP3    H176711   5.682   5.525  15.791 -0.1166  0.4800  0.4538
18432TIP3    H276712   5.707   5.674  15.787  1.0756  0.2838  0.1969
18433TIP3   OH276713   0.417   1.427  16.078  0.2206  0.0042 -0.4431
18433TIP3    H176714   0.374   1.509  16.105  0.7337 -0.1986  1.1032
18433TIP3    H276715   0.367   1.397  16.003 -0.7034  1.1414 -0.3120
18434TIP3   OH276716   4.571   3.031  11.744 -0.3722 -0.1867 -0.3802
18434TIP3    H176717   4.647   3.070  11.787  0.4124  0.2349 -2.0724
18434TIP3    H276718   4.496   3.061  11.796  0.4261  1.3111 -0.0402
18435TIP3   OH276719   6.742   4.919  17.297  0.1414  0.4700 -0.2269
18435TIP3    H176720   6.821   4.949  17.251  0.4634 -0.1936 -0.1370
18435TIP3    H276721   6.684   4.995  17.299  0.9307  1.0828  0.0298
18436TIP3   OH276722   3.997   4.507   2.566 -0.1402 -0.6429 -0.2567
18436TIP3    H176723   4.035   4.429   2.527  0.8156 -1.1455  1.5875
18436TIP3    H276724   4.023   4.504   2.658 -2.4939  0.3416  0.5313
18437TIP3   OH276725   4.137   5.533  10.857  0.2857  0.1993  0.2264
18437TIP3    H176726   4.223   5.535  10.815  0.8700  0.1006  1.3795
18437TIP3    H276727   4.149   5.579  10.940 -0.4869 -0.8186  0.9289
18438TIP3   OH276728   4.278   1.919   5.445 -0.2188  0.3015 -0.2870
18438TIP3    H176729   4.333   1.873   5.509  0.8794  1.3799 -0.4152
18438TIP3    H276730   4.201   1.864   5.436 -1.2082  0.9103  3.1777
18439TIP3   OH276731   2.958   3.095   0.928  0.0041  0.3163 -0.4733
18439TIP3    H176732   2.949   3.052   0.843 -2.0376 -0.6004  0.1624
18439TIP3    H276733   2.870   3.096   0.964  0.4487  2.5966  0.7516
18440TIP3   OH276734   2.356   6.565  13.876 -0.3824 -0.0815 -0.5226
18440TIP3    H176735   2.292   6.552  13.806 -1.7697 -0.6874  0.8022
18440TIP3    H276736   2.390   6.478  13.894 -2.2206 -0.4480  1.5109
18441TIP3   OH276737   5.410   1.918   4.227 -0.3141 -0.2854 -0.2433
18441TIP3    H176738   5.430   1.948   4.315  0.1522 -0.6193 -0.2338
18441TIP3    H276739   5.317   1.893   4.231 -0.7768  1.3447 -0.3201
18442TIP3   OH276740   5.013   0.971   3.250  0.3945 -0.5096  0.3974
18442TIP3    H176741   5.095   0.957   3.298 -0.1563  0.0667  1.5375
18442TIP3    H276742   4.952   0.906   3.285 -0.2877  0.5231  1.1870
18443TIP3   OH276743   6.741   0.190   2.254 -0.4866  0.1142  0.1418
18443TIP3    H176744   6.673   0.243   2.213 -0.6010 -0.6380 -0.6661
18443TIP3    H276745   6.797   0.162   2.182  0.4744  0.4106  0.7512
18444TIP3   OH276746   2.026   4.750  14.760  0.0566 -0.0267 -0.2878
18444TIP3    H176747   2.019   4.660  14.790  1.4057 -0.1755 -0.3834
18444TIP3    H276748   1.951   4.762  14.702 -0.0935 -1.1022 -0.3355
18445TIP3   OH276749   6.265   0.826  14.034  0.1999  0.3985 -0.1585
18445TIP3    H176750   6.238   0.788  13.951 -2.7646 -1.1643  1.3611
18445TIP3    H276751   6.361   0.827  14.030  0.2029 -1.2603 -2.8658
18446TIP3   OH276752   2.587   0.408   5.755 -0.6914 -0.0808 -0.3165
18446TIP3    H176753   2.666   0.405   5.809 -1.1176  0.3810  0.3436
18446TIP3    H276754   2.576   0.317   5.725  0.3827 -0.0531 -0.8765
18447TIP3   OH276755   6.614   0.567   3.836 -0.3654  0.3064  0.4947
18447TIP3    H176756   6.591   0.658   3.816 -1.5222 -0.1612 -0.4375
18447TIP3    H276757   6.547   0.515   3.791  0.8479 -1.0430  0.1580
18448TIP3   OH276758   0.869   2.841  16.149 -0.5094 -0.0727  0.3533
18448TIP3    H176759   0.810   2.804  16.215 -1.1509  0.6734  0.2278
18448TIP3    H276760   0.946   2.785  16.151 -0.7566 -0.4043  1.3299
18449TIP3   OH276761   1.457   1.682   1.436  0.1081 -0.3761 -0.3920
18449TIP3    H176762   1.481   1.774   1.427 -0.4665 -0.2757 -0.8959
18449TIP3    H276763   1.461   1.666   1.531 -0.6826  0.4146 -0.2059
18450TIP3   OH276764   2.239   0.367   4.558 -0.1739 -0.6708 -0.3042
18450TIP3    H176765   2.226   0.304   4.487 -2.9752  1.0307 -1.4584
18450TIP3    H276766   2.167   0.429   4.549  0.7209  0.9963  2.6259
18451TIP3   OH276767   1.125   3.330   2.953  0.0337 -0.6413 -0.1695
18451TIP3    H176768   1.193   3.330   2.885 -0.1603 -1.7332 -0.3854
18451TIP3    H276769   1.085   3.416   2.947 -0.9155 -1.1594 -2.4352
18452TIP3   OH276770   4.408   4.586  14.093 -0.1239  0.0119 -0.0878
18452TIP3    H176771   4.450   4.650  14.036 -0.5859  0.8164  0.4598
18452TIP3    H276772   4.424   4.502  14.050  1.8606  0.2975  0.0039
18453TIP3   OH276773   6.734   3.741   3.309  0.2904  0.0382 -0.0113
18453TIP3    H176774   6.776   3.693   3.238  1.1177 -0.1188  0.5761
18453TIP3    H276775   6.651   3.695   3.322  1.3812 -1.7407  1.0367
18454TIP3   OH276776   4.003   6.137  10.562  0.7340 -0.4261  0.1408
18454TIP3    H176777   4.096   6.139  10.581  0.4713 -0.8665  1.5966
18454TIP3    H276778   3.977   6.046  10.578  0.3477 -0.7343 -1.8763
18455TIP3   OH276779   1.028   4.638  11.999  0.4182 -0.1737 -0.3490
18455TIP3    H176780   1.016   4.704  12.068  3.8381 -0.9686  1.2331
18455TIP3    H276781   0.984   4.560  12.033 -0.4906  0.2463 -0.5254
18456TIP3   OH276782   4.667   0.294  16.911 -0.0028  0.2358  0.3851
18456TIP3    H176783   4.737   0.283  16.846 -0.1410 -0.3034  0.3189
18456TIP3    H276784   4.643   0.204  16.935  1.1727  0.3844  2.3910
18457TIP3   OH276785   5.134   2.706  16.295 -0.3686 -0.5709 -0.6128
18457TIP3    H176786   5.135   2.780  16.234  0.8007  0.0257  0.0921
18457TIP3    H276787   5.064   2.728  16.357 -2.5360 -1.8509 -2.4624
18458TIP3   OH276788   1.143   1.003  12.812  0.2329  0.7307 -0.3917
18458TIP3    H176789   1.061   1.039  12.846  0.3795  0.4948  0.2188
18458TIP3    H276790   1.120   0.970  12.725 -0.7025 -0.7291  0.3623
18459TIP3   OH276791   0.134   4.550   4.669 -0.3462 -0.0216  0.2219
18459TIP3    H176792   0.107   4.544   4.577  2.8443 -0.5785 -0.7855
18459TIP3    H276793   0.105   4.467   4.708  1.0240 -1.1890 -1.1404
18460TIP3   OH276794   0.980   2.590  13.250  0.2148 -0.0388  0.0940
18460TIP3    H176795   0.966   2.557  13.161  0.0890 -1.5931  0.6657
18460TIP3    H276796   1.060   2.547  13.279  0.0297  0.1346  0.8763
18461TIP3   OH276797   4.383   0.678  12.031  0.4385 -0.6490  0.0140
18461TIP3    H176798   4.424   0.619  12.094 -0.8176 -0.1547  1.3775
18461TIP3    H276799   4.351   0.751  12.085 -0.2599  0.0343 -1.2777
18462TIP3   OH276800   5.342   1.508   4.736  0.3089 -0.0723 -0.1076
18462TIP3    H176801   5.429   1.518   4.697  0.0116 -1.1828 -1.1153
18462TIP3    H276802   5.330   1.587   4.789  1.2957  0.8296 -1.1753
18463TIP3   OH276803   4.132   2.346  16.480 -0.2073  0.2612  0.3466
18463TIP3    H176804   4.126   2.262  16.525  2.0556  0.1889  0.6033
18463TIP3    H276805   4.198   2.333  16.412  0.0369  1.7507  0.2491
18464TIP3   OH276806   0.686   2.660   0.721  0.1666 -0.4095 -0.2591
18464TIP3    H176807   0.640   2.744   0.728  0.0972 -0.5932  2.9078
18464TIP3    H276808   0.657   2.624   0.638 -0.6297  2.2097 -1.2310
18465TIP3   OH276809   6.543   5.327   0.839  0.2128 -0.7134 -0.4292
18465TIP3    H176810   6.459   5.304   0.879  0.1939  1.5586  1.0761
18465TIP3    H276811   6.598   5.250   0.852 -1.6904 -2.3814 -1.7465
18466TIP3   OH276812   6.099   4.110  16.716 -0.1717  0.6398 -0.5013
18466TIP3    H176813   6.157   4.178  16.751 -0.0761  0.0484  0.5332
18466TIP3    H276814   6.039   4.092  16.789  0.5190 -1.1915 -0.3517
18467TIP3   OH276815   5.115   2.037  12.402 -0.6044  0.0268  0.3446
18467TIP3    H176816   5.123   1.949  12.364  0.2125  0.5606 -0.7871
18467TIP3    H276817   5.118   2.023  12.497  0.1885 -1.1162  0.1675
18468TIP3   OH276818   0.759   0.939  15.469  0.0224  0.0215  0.5227
18468TIP3    H176819   0.724   0.856  15.439  4.0038 -1.8186  0.3544
18468TIP3    H276820   0.768   0.992  15.390 -1.3245  0.1517  0.4422
18469TIP3   OH276821   3.661   4.837   6.070 -0.0417  0.0322  0.4316
18469TIP3    H176822   3.706   4.887   6.137 -0.5247  0.4697  0.4469
18469TIP3    H276823   3.570   4.834   6.100 -0.5558  1.4042 -0.8204
18470TIP3   OH276824   0.516   1.534   2.198 -0.0599  0.2534 -0.5074
18470TIP3    H176825   0.508   1.512   2.105  3.0683 -0.8201 -0.6344
18470TIP3    H276826   0.597   1.492   2.226 -0.8849  0.5501  2.7572
18471TIP3   OH276827   3.710   6.642   1.068  0.1307 -0.1740 -0.3465
18471TIP3    H176828   3.787   6.636   1.012  1.0358 -0.2562  0.8672
18471TIP3    H276829   3.699   6.735   1.085 -0.6591 -0.0749 -1.3304
18472TIP3   OH276830   4.372   5.792   4.130 -0.0084  0.4931  0.1595
18472TIP3    H176831   4.337   5.864   4.183  0.5141  2.2063 -1.7042
18472TIP3    H276832   4.391   5.723   4.194 -2.2490  1.2702  1.8032
18473TIP3   OH276833   6.217   5.598   0.108  0.3284 -0.3837  0.7669
18473TIP3    H176834   6.286   5.662   0.093 -0.4322  0.3797  0.4512
18473TIP3    H276835   6.200   5.602   0.202  0.9572 -0.8365  0.9036
18474TIP3   OH276836   5.907   3.853  16.126  0.5716  0.1473 -0.0146
18474TIP3    H176837   5.947   3.933  16.093 -1.3358  0.0780 -2.8348
18474TIP3    H276838   5.973   3.785  16.112  1.5675  0.8943  0.8642
18475TIP3   OH276839   4.300   5.176  12.324  0.1806  0.0960  0.3622
18475TIP3    H176840   4.382   5.224  12.336 -0.0215  0.2306  1.2558
18475TIP3    H276841   4.257   5.180  12.409 -1.0678  0.6028 -0.2680
18476TIP3   OH276842   0.110   4.002  12.489 -0.1638  0.2380  0.6240
18476TIP3    H176843   0.061   3.935  12.441 -0.4608  1.2407 -0.5239
18476TIP3    H276844   0.065   4.084  12.468  1.4053  1.0670  0.3155
18477TIP3   OH276845   4.408   4.802   0.237  0.6209 -0.1136 -0.6467
18477TIP3    H176846   4.413   4.877   0.179  1.8085 -0.1994 -0.6954
18477TIP3    H276847   4.476   4.742   0.204  1.7893  0.1194  1.1772
18478TIP3   OH276848   3.635   1.108   4.391  0.1201  0.6216  0.5835
18478TIP3    H176849   3.729   1.090   4.393  0.0713 -0.2139 -1.4228
18478TIP3    H276850   3.616   1.126   4.299 -1.2789  3.3608  1.3115
18479TIP3   OH276851   1.458   0.357  14.417 -0.1620 -0.1232 -0.1995
18479TIP3    H176852   1.504   0.414  14.355  1.5138 -0.1252  0.9855
18479TIP3    H276853   1.403   0.302  14.361 -0.3987  1.3549 -1.5069
18480TIP3   OH276854   3.046   3.255   5.113  0.1432 -0.5832  0.1504
18480TIP3    H176855   3.031   3.182   5.053 -2.8311  0.7207 -0.8779
18480TIP3    H276856   2.984   3.240   5.185 -0.5939  0.9199 -0.1300
18481TIP3   OH276857   4.934   3.921  13.332 -0.2312 -0.2876  0.1054
18481TIP3    H176858   4.961   3.994  13.277  1.3742 -0.3116  0.8038
18481TIP3    H276859   4.848   3.946  13.366 -0.0951  0.8648 -0.3826
18482TIP3   OH276860   3.252   5.786   3.422 -0.3409 -0.0459  0.1443
18482TIP3    H176861   3.207   5.796   3.506  0.8551  0.8398  0.6900
18482TIP3    H276862   3.181   5.770   3.359 -1.2675 -0.4685  1.2676
18483TIP3   OH276863   4.972   3.083  14.134  0.1892 -0.5236 -0.0555
18483TIP3    H176864   5.060   3.104  14.102 -0.2022  2.3532  0.4677
18483TIP3    H276865   4.987   3.025  14.209  1.6807  0.3669  0.3748
18484TIP3   OH276866   1.673   6.385   0.251  0.1001  0.0064  0.4818
18484TIP3    H176867   1.621   6.305   0.247 -1.6180  1.0181  1.3729
18484TIP3    H276868   1.653   6.431   0.170  0.5602 -0.1394  0.2804
18485TIP3   OH276869   4.110   6.544  17.231  0.1389 -0.6435 -0.3844
18485TIP3    H176870   4.160   6.598  17.293 -0.3992  0.6881 -1.0792
18485TIP3    H276871   4.018   6.566  17.249 -0.0582 -0.8496 -1.1174
18486TIP3   OH276872   2.233   0.242  12.673  0.1549 -0.6314  0.4908
18486TIP3    H176873   2.227   0.187  12.595 -0.4067  0.6472 -0.3971
18486TIP3    H276874   2.305   0.203  12.723  1.0324 -1.0582 -1.0137
18487TIP3   OH276875   0.036   5.751  15.799  0.1092  0.2826 -0.2893
18487TIP3    H176876  -0.018   5.719  15.727  1.4434 -1.6520 -0.4998
18487TIP3    H276877   0.108   5.688  15.806  1.0681  1.4664  1.5016
18488TIP3   OH276878   1.167   2.911  11.365 -0.4864  0.3305  0.2110
18488TIP3    H176879   1.187   3.003  11.381 -0.9222  0.3153  0.8913
18488TIP3    H276880   1.073   2.910  11.347 -0.9820 -0.2467  2.5624
18489TIP3   OH276881   3.930   0.151   5.816 -0.4190 -0.4641 -0.0583
18489TIP3    H176882   3.920   0.201   5.897 -0.5847 -0.0905 -0.3062
18489TIP3    H276883   3.906   0.062   5.839  2.0273 -0.9342  0.9465
18490TIP3   OH276884   5.877   4.344  14.259 -0.0654 -0.0229 -0.2290
18490TIP3    H176885   5.911   4.430  14.232 -1.9695  1.0368  0.5756
18490TIP3    H276886   5.848   4.303  14.177 -0.1668  0.5619 -0.4893
18491TIP3   OH276887   3.309   4.397   4.477 -0.8472  0.4456 -0.5494
18491TIP3    H176888   3.255   4.320   4.463 -0.8104  0.4645 -0.7998
18491TIP3    H276889   3.376   4.393   4.409  0.4487 -0.4282  0.7237
18492TIP3   OH276890   5.728   0.085   0.697  0.2231  0.3293  0.0990
18492TIP3    H176891   5.654   0.026   0.716 -0.4351  0.6599 -1.3048
18492TIP3    H276892   5.691   0.153   0.642  1.4592  0.8537 -0.1160
18493TIP3   OH276893   4.423   3.064   3.733  0.4173 -0.0486 -0.6168
18493TIP3    H176894   4.355   3.064   3.666 -2.2616 -1.4630  1.8661
18493TIP3    H276895   4.461   2.977   3.729 -0.4016 -0.4602  0.2544
18494TIP3   OH276896   0.349   3.694   2.825 -0.2182  0.1260  0.2808
18494TIP3    H176897   0.415   3.726   2.764  0.7563 -2.4613 -0.1343
18494TIP3    H276898   0.266   3.705   2.778  0.3567 -0.3925 -0.8783
18495TIP3   OH276899   3.175   4.224  16.158 -0.0374  0.1817 -0.3160
18495TIP3    H176900   3.227   4.262  16.229  3.1146  0.9000 -2.7740
18495TIP3    H276901   3.188   4.130  16.166 -0.0950  0.2272  0.3434
18496TIP3   OH276902   5.471   1.308  13.481  0.1949 -0.5066  0.0093
18496TIP3    H176903   5.436   1.282  13.566  0.9262 -2.2395 -0.1599
18496TIP3    H276904   5.424   1.253  13.418  1.9997 -1.7278 -0.3510
18497TIP3   OH276905   3.693   5.709  13.316 -1.0712  0.2847  0.2426
18497TIP3    H176906   3.671   5.743  13.403 -0.3873  2.1491 -0.2487
18497TIP3    H276907   3.746   5.631  13.333  0.9430  1.8406  1.5928
18498TIP3   OH276908   5.191   6.584   1.571  0.0122 -0.1605  0.4693
18498TIP3    H176909   5.263   6.641   1.596  1.2380 -1.3998 -0.0691
18498TIP3    H276910   5.116   6.642   1.562  1.4080  1.5344 -0.9768
18499TIP3   OH276911   3.396   4.249  15.335  0.4014  0.3246  0.0359
18499TIP3    H176912   3.309   4.275  15.365 -0.0566 -0.5112 -0.5244
18499TIP3    H276913   3.421   4.178  15.395  0.6872  0.5399  0.1732
18500TIP3   OH276914   6.363   5.219   2.476  0.3002 -0.5021  0.3330
18500TIP3    H176915   6.378   5.199   2.383  1.0848  0.3185  0.2768
18500TIP3    H276916   6.374   5.135   2.520  0.1357 -0.8602 -0.2847
18501TIP3   OH276917   3.304   4.064   1.863 -0.3326  0.8290  0.2327
18501TIP3    H176918   3.382   4.026   1.822 -2.1302 -0.4553 -2.2520
18501TIP3    H276919   3.291   4.013   1.943  0.5051  0.0681 -0.1036
18502TIP3   OH276920   1.784   5.916  12.177 -0.0260 -0.2627 -0.4720
18502TIP3    H176921   1.842   5.841  12.188  1.0783  0.7233  0.6988
18502TIP3    H276922   1.706   5.893  12.229  1.4829  0.5322  2.3830
18503TIP3   OH276923   4.682   2.735   0.497 -0.8016  0.0404  0.8071
18503TIP3    H176924   4.722   2.676   0.562 -0.0887 -0.5871 -0.1549
18503TIP3    H276925   4.615   2.783   0.545  1.2212  1.2841  2.5734
18504TIP3   OH276926   0.158   1.978   0.925 -0.1425  0.4577 -0.3367
18504TIP3    H176927   0.182   1.983   1.017 -0.3969  0.5512 -0.2753
18504TIP3    H276928   0.232   2.018   0.879  0.1584  0.0643 -0.2027
18505TIP3   OH276929   5.626   1.976  11.251 -0.5117 -0.0988 -0.5184
18505TIP3    H176930   5.553   1.922  11.222 -2.8331  1.7862  1.3501
18505TIP3    H276931   5.595   2.016  11.332  2.7992  0.5200  0.5941
18506TIP3   OH276932   2.161   5.830  13.286 -0.5715 -0.3348  0.2809
18506TIP3    H176933   2.164   5.863  13.376 -1.8142 -1.7931  0.8887
18506TIP3    H276934   2.161   5.909  13.232  1.9568  0.5802  1.4267
18507TIP3   OH276935   4.617   4.712   4.644 -0.1853 -0.0911 -0.3254
18507TIP3    H176936   4.526   4.696   4.669  0.1794 -1.5635  0.2078
18507TIP3    H276937   4.637   4.798   4.680 -1.5838  0.6019 -1.1309
18508TIP3   OH276938   1.671   4.679   1.502 -0.0698 -0.4459  0.5861
18508TIP3    H176939   1.714   4.761   1.476  2.1540 -2.0472 -1.1578
18508TIP3    H276940   1.633   4.645   1.421 -0.0130 -1.6667  1.0465
18509TIP3   OH276941   3.947   1.082   5.169  0.9432 -0.3388 -0.1927
18509TIP3    H176942   3.975   1.148   5.232  0.0384  0.3847 -0.5292
18509TIP3    H276943   3.913   1.010   5.224  4.7860 -1.9989  0.3025
18510TIP3   OH276944   0.066   0.947  14.464 -0.1990  0.1387 -0.1188
18510TIP3    H176945  -0.020   0.984  14.484  0.7010  2.4605 -0.2781
18510TIP3    H276946   0.062   0.923  14.371 -0.2449  1.5529 -0.4934
18511TIP3   OH276947   0.424   6.663   3.792  0.6326 -0.4172  0.0433
18511TIP3    H176948   0.442   6.746   3.836  1.9022  0.0514 -1.2804
18511TIP3    H276949   0.344   6.631   3.833  0.8702  0.7839  1.5260
18512TIP3   OH276950   3.294   5.954  11.689  0.2286 -0.3907  0.1691
18512TIP3    H176951   3.222   5.989  11.743 -0.5316 -1.9554  0.2309
18512TIP3    H276952   3.251   5.918  11.612  0.7619 -2.3802  0.7247
18513TIP3   OH276953   3.469   0.136  17.193 -0.1570  0.6459  0.1678
18513TIP3    H176954   3.447   0.223  17.159  0.2444  0.3424 -0.9322
18513TIP3    H276955   3.440   0.076  17.124 -0.5290 -0.1085  0.9603
18514TIP3   OH276956   5.971   3.820  11.018 -0.0363 -0.2251  0.5873
18514TIP3    H176957   6.058   3.782  11.004 -0.1870  0.0226 -1.2821
18514TIP3    H276958   5.988   3.898  11.071  1.1323  0.7528 -1.1279
18515TIP3   OH276959   1.521   2.983  11.665  0.1145 -0.0049 -0.1463
18515TIP3    H176960   1.447   2.924  11.648  0.7582 -1.2315  1.1249
18515TIP3    H276961   1.480   3.062  11.701 -0.6944 -0.0347 -0.9674
18516TIP3   OH276962   4.818   5.059  16.924 -0.6390  0.2130 -0.1714
18516TIP3    H176963   4.887   5.124  16.913 -1.3422  1.1351  0.6527
18516TIP3    H276964   4.864   4.980  16.952  0.1032  0.7387  0.1190
18517TIP3   OH276965   3.607   2.513  17.097 -0.0380 -0.5378  0.5124
18517TIP3    H176966   3.569   2.589  17.054  0.0696 -0.0254  1.3053
18517TIP3    H276967   3.566   2.511  17.183  0.3286 -1.0939  0.6788
18518TIP3   OH276968   2.286   6.740   4.548  0.4192  0.5540  0.2231
18518TIP3    H176969   2.291   6.644   4.551  1.0352  0.6032  1.1753
18518TIP3    H276970   2.377   6.769   4.538  0.2287  1.0456 -0.1432
18519TIP3   OH276971   0.248   4.571   5.480  0.1512 -0.3358 -0.2183
18519TIP3    H176972   0.284   4.594   5.566  2.1264  0.8444 -1.2832
18519TIP3    H276973   0.277   4.481   5.466  0.7975 -0.1535 -0.0991
18520TIP3   OH276974   2.918   0.639  17.043 -0.4683  0.3896  0.0583
18520TIP3    H176975   2.850   0.577  17.013 -0.0503 -1.1005  2.0241
18520TIP3    H276976   2.982   0.584  17.087  1.1242  2.0042 -0.1660
18521TIP3   OH276977   3.152   2.667  16.302 -0.0681 -0.0302  0.3617
18521TIP3    H176978   3.232   2.712  16.274 -0.2981  0.4492  0.4662
18521TIP3    H276979   3.165   2.649  16.395 -0.3354  0.6053  0.5277
18522TIP3   OH276980   4.179   6.355   2.582  0.5294  0.0981 -0.4706
18522TIP3    H176981   4.234   6.335   2.507 -1.6031  0.4875 -2.2622
18522TIP3    H276982   4.166   6.271   2.626  2.6059  0.0339  0.0973
18523TIP3   OH276983   2.977   6.270   0.106 -0.3653 -0.0475  0.3619
18523TIP3    H176984   3.010   6.266   0.016 -0.7443 -1.8985  0.2626
18523TIP3    H276985   2.985   6.362   0.130  2.1186  0.0836 -0.6643
18524TIP3   OH276986   5.114   3.021  12.162  0.4404 -0.2034  0.0302
18524TIP3    H176987   5.115   3.106  12.207  0.0321 -0.4201  0.4460
18524TIP3    H276988   5.203   2.987  12.174  1.4666  1.3216 -2.3625
18525TIP3   OH276989   0.832   3.696  12.831  0.5828 -0.0385  0.4071
18525TIP3    H176990   0.896   3.679  12.763  1.1244  0.0438  0.8934
18525TIP3    H276991   0.854   3.636  12.902  0.5831  0.5062  0.8755
18526TIP3   OH276992   3.278   1.168   1.043  0.2874  0.0180 -0.6696
18526TIP3    H176993   3.193   1.181   1.000 -1.6844 -1.0161  2.5321
18526TIP3    H276994   3.313   1.256   1.054 -1.8785  0.8291  0.5499
18527TIP3   OH276995   3.599   1.071   2.440 -0.1922 -0.0815 -0.3217
18527TIP3    H176996   3.572   0.993   2.391  0.6446 -0.7406  0.2397
18527TIP3    H276997   3.563   1.057   2.527 -1.1264  0.7832 -0.5520
18528TIP3   OH276998   3.118   0.053  11.395  0.2572 -0.1917 -0.3959
18528TIP3    H176999   3.155  -0.035  11.404 -0.3866 -0.5265 -0.8690
18528TIP3    H277000   3.119   0.089  11.483  0.3586 -0.7509 -0.1627
18529TIP3   OH277001   5.974   3.229  11.200 -0.0067  0.4077 -0.0466
18529TIP3    H177002   6.047   3.168  11.189 -1.1641 -0.8297 -1.3345
18529TIP3    H277003   5.954   3.259  11.112 -1.7857 -0.2026  0.1129
18530TIP3   OH277004   6.057   3.760  13.776  0.5079 -0.1203  0.3675
18530TIP3    H177005   6.005   3.680  13.777  0.1969  0.0626 -0.4140
18530TIP3    H277006   6.000   3.827  13.813 -0.4069  0.4052 -1.8168
18531TIP3   OH277007   3.255   1.007   0.598  0.4399 -0.5165  1.0614
18531TIP3    H177008   3.199   0.967   0.531 -0.1818 -0.3216  1.4520
18531TIP3    H277009   3.250   1.101   0.581 -1.0295 -0.3231  2.3394
18532TIP3   OH277010   3.430   1.374  15.578 -0.2646  0.6093  0.3026
18532TIP3    H177011   3.517   1.372  15.618 -0.8535  0.9722  1.6523
18532TIP3    H277012   3.419   1.464  15.549 -0.2405  0.5891  0.2294
18533TIP3   OH277013   1.440   3.893  13.542  0.0402  0.1111  0.2407
18533TIP3    H177014   1.400   3.975  13.571  1.0326  0.7318 -0.0990
18533TIP3    H277015   1.533   3.902  13.564  0.2466 -0.7132 -0.2461
18534TIP3   OH277016   6.113   2.286   1.839 -0.2264 -0.0068 -0.3181
18534TIP3    H177017   6.157   2.250   1.762  0.5143 -1.1477  0.6034
18534TIP3    H277018   6.090   2.209   1.891 -1.8735  0.6691  0.0109
18535TIP3   OH277019   5.101   0.093   0.368 -0.2644  0.2539 -0.2909
18535TIP3    H177020   5.102   0.047   0.284 -0.0045  1.0099 -0.7115
18535TIP3    H277021   5.011   0.083   0.400  0.3729 -2.7927  0.9265
18536TIP3   OH277022   4.866   2.110   2.453  0.6482  0.0938 -0.3047
18536TIP3    H177023   4.825   2.196   2.463  0.4673 -0.2148  2.0623
18536TIP3    H277024   4.793   2.048   2.449  0.7583 -0.2921  2.2111
18537TIP3   OH277025   2.122   0.352  14.809 -0.2320  0.2444 -0.6243
18537TIP3    H177026   2.108   0.398  14.892 -0.7059 -1.9389  0.6041
18537TIP3    H277027   2.035   0.350  14.769 -0.2090  0.4312 -0.6835
18538TIP3   OH277028   4.705   0.314   1.490 -0.0536  0.1763 -0.5351
18538TIP3    H177029   4.699   0.219   1.495 -3.9599  0.2313 -1.1330
18538TIP3    H277030   4.692   0.335   1.397 -5.9113  1.2243  0.1184
18539TIP3   OH277031   6.611   0.479  12.603  0.0627 -0.1879 -0.1362
18539TIP3    H177032   6.620   0.472  12.698 -2.1061 -1.8232  0.0318
18539TIP3    H277033   6.591   0.390  12.574  0.6766  0.2689 -2.1518
18540TIP3   OH277034   1.511   1.336   1.909 -0.2721 -0.0024  0.0568
18540TIP3    H177035   1.594   1.383   1.894  0.8158 -1.5061  1.0895
18540TIP3    H277036   1.521   1.254   1.862 -2.4705  0.9673 -2.3583
18541TIP3   OH277037   4.504   6.448  13.498  0.3724  0.0837  0.2992
18541TIP3    H177038   4.416   6.478  13.521  0.1582 -0.8395  0.7227
18541TIP3    H277039   4.495   6.417  13.408  0.0875 -0.6764  0.5841
18542TIP3   OH277040   5.180   5.261   0.144  0.1487  0.0449 -0.3683
18542TIP3    H177041   5.189   5.276   0.049  0.4775  0.4005 -0.2842
18542TIP3    H277042   5.241   5.189   0.162  1.3211  1.0538 -0.1596
18543TIP3   OH277043   4.506   4.150  15.682  0.3302 -0.1068  0.2509
18543TIP3    H177044   4.463   4.170  15.599  1.2422  0.2871 -0.1486
18543TIP3    H277045   4.435   4.138  15.744 -0.3606 -0.0137 -0.5000
18544TIP3   OH277046   2.575   1.635  10.952 -0.2232  0.3205  0.5880
18544TIP3    H177047   2.619   1.634  11.037 -0.2338 -1.0202  0.5986
18544TIP3    H277048   2.511   1.705  10.959  0.4572  0.8912  1.3256
18545TIP3   OH277049   2.682   0.468  16.993 -0.7002 -0.2347  0.2054
18545TIP3    H177050   2.637   0.398  16.946  0.1962 -0.9999  0.4684
18545TIP3    H277051   2.623   0.543  16.986 -1.8030 -1.0851  0.1580
18546TIP3   OH277052   3.471   6.690  13.800 -0.5054  0.0328  0.2011
18546TIP3    H177053   3.564   6.698  13.821 -0.1883  2.3010 -1.6705
18546TIP3    H277054   3.438   6.779  13.804 -2.5716 -0.6890  0.5028
18547TIP3   OH277055   6.212   5.044  14.716  0.0521  0.3329  0.0179
18547TIP3    H177056   6.243   5.124  14.675 -0.8932  0.2499 -0.8909
18547TIP3    H277057   6.127   5.067  14.752 -0.0961 -0.1864  0.0075
18548TIP3   OH277058   3.465   1.751   3.572 -0.1464 -0.1820 -0.1888
18548TIP3    H177059   3.544   1.701   3.589  1.1281  1.3322 -1.4482
18548TIP3    H277060   3.405   1.689   3.530  1.2110 -0.7633 -1.2989
18549TIP3   OH277061   1.712   5.770   1.606  0.5103  0.3353 -0.2459
18549TIP3    H177062   1.668   5.762   1.691  1.2768  0.5444  0.1851
18549TIP3    H277063   1.801   5.740   1.623  0.6284  0.2320 -1.0208
18550TIP3   OH277064   0.304   1.155   5.021 -0.3506 -0.1438  0.2950
18550TIP3    H177065   0.347   1.178   4.939  0.0978 -1.0158  0.2733
18550TIP3    H277066   0.223   1.111   4.994  0.3231 -1.4325  0.2800
18551TIP3   OH277067   2.387   2.412   1.903  0.1353  0.1335 -0.0328
18551TIP3    H177068   2.396   2.345   1.972  0.1589  0.4540  0.2778
18551TIP3    H277069   2.311   2.463   1.929  0.6664  0.8071  0.2273
18552TIP3   OH277070   1.823   1.117   5.519  0.3277  0.1799 -1.3232
18552TIP3    H177071   1.762   1.045   5.502 -0.6279  0.7341 -0.3649
18552TIP3    H277072   1.908   1.075   5.530 -0.3320 -0.8851 -0.0633
18553TIP3   OH277073   0.487   2.761   0.957  0.0109 -0.1632  0.1874
18553TIP3    H177074   0.549   2.729   1.023 -0.0838 -0.3317  0.1971
18553TIP3    H277075   0.493   2.697   0.886 -0.4685 -0.4272  0.3738
18554TIP3   OH277076   4.335   1.636   1.593 -0.4746 -0.6571 -0.3688
18554TIP3    H177077   4.326   1.568   1.659 -1.5407 -0.7093 -0.5459
18554TIP3    H277078   4.429   1.654   1.589 -0.3256 -1.1513  0.6471
18555TIP3   OH277079   1.884   0.597   6.389  0.3039  0.2035 -0.1249
18555TIP3    H177080   1.869   0.679   6.438  0.0152  0.1854 -0.1804
18555TIP3    H277081   1.968   0.610   6.346  0.5344  0.2457  0.3289
18556TIP3   OH277082   1.801   5.144   1.447 -0.0061  0.2926 -0.6623
18556TIP3    H177083   1.792   5.219   1.507  0.7246 -0.9124  1.0226
18556TIP3    H277084   1.711   5.117   1.431 -0.1995  0.0947  0.6353
18557TIP3   OH277085   1.106   3.486   0.305  0.5064 -0.2636  0.2694
18557TIP3    H177086   1.135   3.473   0.396 -0.7708  1.3643  0.9733
18557TIP3    H277087   1.011   3.499   0.312  0.6582  2.0010 -1.0158
18558TIP3   OH277088   5.286   0.570   4.512 -1.0879  0.0767  0.0745
18558TIP3    H177089   5.241   0.654   4.520 -1.4429  0.1847 -2.3223
18558TIP3    H277090   5.222   0.513   4.469 -0.1227 -0.7704 -0.2867
18559TIP3   OH277091   5.479   2.994  14.136 -0.0069  0.1496 -0.1133
18559TIP3    H177092   5.528   2.928  14.186 -1.9371 -1.4817 -0.2680
18559TIP3    H277093   5.480   2.962  14.046 -0.9740  0.3075 -0.1879
18560TIP3   OH277094   5.081   3.705  13.252  0.3598 -0.3009  0.4264
18560TIP3    H177095   5.077   3.687  13.158  1.9471 -2.5402  0.7015
18560TIP3    H277096   5.022   3.779  13.265 -0.4291 -0.3644 -2.2201
18561TIP3   OH277097   0.733   3.457   5.370  0.2876 -0.0498  1.1086
18561TIP3    H177098   0.767   3.504   5.446  0.4319 -1.8112  2.1875
18561TIP3    H277099   0.760   3.366   5.384  0.8064 -0.3366 -1.3507
18562TIP3   OH277100   2.683   4.104   1.918 -0.9261 -0.7754  0.1902
18562TIP3    H177101   2.750   4.162   1.882 -1.5687 -1.1287 -1.6857
18562TIP3    H277102   2.649   4.151   1.995  1.1613 -0.4272  0.9732
18563TIP3   OH277103   6.447   6.354   0.461  0.2290 -0.1031 -0.2026
18563TIP3    H177104   6.389   6.359   0.385 -0.7194  0.1472  0.5244
18563TIP3    H277105   6.535   6.355   0.423 -0.2299 -0.6299 -1.3298
18564TIP3   OH277106   3.243   2.488   2.851 -0.7641 -0.3044  0.2772
18564TIP3    H177107   3.187   2.412   2.865 -1.2514  0.3658  2.4074
18564TIP3    H277108   3.196   2.542   2.788 -2.2536 -0.0474  1.5662
18565TIP3   OH277109   4.359   1.990  15.744  0.3516  0.2877  0.0316
18565TIP3    H177110   4.351   2.083  15.763 -1.4740  0.4842 -1.3373
18565TIP3    H277111   4.416   1.986  15.667 -0.7314  0.4413 -0.8057
18566TIP3   OH277112   2.078   6.567  13.405 -0.6969 -0.2890  0.2517
18566TIP3    H177113   2.041   6.519  13.331  1.2137  1.4747 -2.0008
18566TIP3    H277114   2.056   6.658  13.388  0.9905  0.3124  1.0467
18567TIP3   OH277115   0.573   5.242   4.440  0.0116  0.3913 -0.0620
18567TIP3    H177116   0.633   5.249   4.514 -2.1010 -0.5122  1.8650
18567TIP3    H277117   0.628   5.254   4.363  2.4179  0.7974  1.6131
18568TIP3   OH277118   0.484   0.153  16.675 -0.0852 -0.3778  0.3513
18568TIP3    H177119   0.563   0.138  16.623 -0.6120  1.2439 -1.0044
18568TIP3    H277120   0.418   0.096  16.635 -0.3453  0.4533 -0.4236
18569TIP3   OH277121   2.835   5.283   4.025 -0.0776  0.1932 -0.3690
18569TIP3    H177122   2.755   5.231   4.019  0.0171  0.1747 -1.9119
18569TIP3    H277123   2.825   5.350   3.957  2.3202 -1.4641 -2.5610
18570TIP3   OH277124   3.186   0.904   1.562 -0.0639  0.3087  0.0223
18570TIP3    H177125   3.234   0.830   1.601  3.1316  1.3972 -1.4717
18570TIP3    H277126   3.206   0.978   1.620  0.6095  0.9065 -0.9525
18571TIP3   OH277127   3.749   5.489  12.969  0.1144 -0.3245  0.7453
18571TIP3    H177128   3.763   5.584  12.971  2.0151 -0.5682  1.7963
18571TIP3    H277129   3.679   5.474  13.033 -0.9643  0.4305 -0.2099
18572TIP3   OH277130   3.977   1.253  13.047  0.2573 -0.0551 -0.2265
18572TIP3    H177131   3.906   1.288  13.102 -0.7355 -0.0034 -1.4890
18572TIP3    H277132   3.984   1.316  12.975 -0.5926 -1.6866 -1.7989
18573TIP3   OH277133   3.476   2.809   2.598 -0.6971 -0.4854  0.4266
18573TIP3    H177134   3.454   2.733   2.544  0.2701  0.7659 -1.8831
18573TIP3    H277135   3.557   2.842   2.559 -1.3651  2.0196  1.0187
18574TIP3   OH277136   3.152   2.236   0.790  0.4365  0.4149 -0.3474
18574TIP3    H177137   3.225   2.297   0.807  0.4810  0.5717 -1.0628
18574TIP3    H277138   3.154   2.176   0.864  0.5343  1.1489  0.2641
18575TIP3   OH277139   4.085   3.564  14.404 -0.2629  0.4615 -0.9060
18575TIP3    H177140   4.145   3.504  14.449 -1.1337 -1.2008 -1.8360
18575TIP3    H277141   4.142   3.629  14.364  0.6787  0.6482  0.6456
18576TIP3   OH277142   6.670   5.607  14.581  0.9017 -0.1623 -0.3205
18576TIP3    H177143   6.645   5.649  14.499  0.9444  1.3432  0.4007
18576TIP3    H277144   6.741   5.548  14.557 -0.6040 -1.5099 -1.7263
18577TIP3   OH277145   4.652   2.220   0.106  0.4876 -0.1790  0.3042
18577TIP3    H177146   4.613   2.168   0.036  1.9722 -0.4489 -0.3785
18577TIP3    H277147   4.579   2.268   0.146 -0.5864 -1.1364 -0.4745
18578TIP3   OH277148   5.093   2.730  11.638  0.7762 -0.0910  0.2132
18578TIP3    H177149   5.140   2.766  11.713 -0.5509  0.7623  0.6595
18578TIP3    H277150   5.025   2.794  11.619  0.3823 -0.8393 -1.0289
18579TIP3   OH277151   4.355   3.287   5.624  0.3628 -0.2581  0.0855
18579TIP3    H177152   4.359   3.383   5.626  0.1198 -0.2466  0.0364
18579TIP3    H277153   4.309   3.267   5.542 -0.8204 -0.3791  0.7619
18580TIP3   OH277154   4.599   2.982   2.390  0.5201  0.1121 -0.1693
18580TIP3    H177155   4.655   3.055   2.365  1.2174 -0.2771  0.1899
18580TIP3    H277156   4.537   2.972   2.318  1.7476 -0.2698 -1.2177
18581TIP3   OH277157   4.782   5.792   6.412  0.4875 -0.0767 -0.0082
18581TIP3    H177158   4.829   5.844   6.347 -1.8052 -0.1094 -1.8391
18581TIP3    H277159   4.753   5.855   6.477  0.1023  0.5188 -0.7421
18582TIP3   OH277160   4.611   2.816   3.982  0.2651 -0.2275  0.0853
18582TIP3    H177161   4.655   2.732   3.995  0.1260 -0.2585  0.3512
18582TIP3    H277162   4.670   2.881   4.021  0.4045 -0.1948 -0.1807
18583TIP3   OH277163   0.087   4.726  12.109 -0.1179 -0.7029  0.4343
18583TIP3    H177164   0.170   4.764  12.080  1.0453 -1.0795  3.0035
18583TIP3    H277165   0.035   4.718  12.029  0.8842  2.9123 -0.7808
18584TIP3   OH277166   0.358   5.222  13.559 -0.5557 -0.5117 -0.1514
18584TIP3    H177167   0.336   5.137  13.521 -2.2110 -0.8437  1.4232
18584TIP3    H277168   0.315   5.286  13.502 -2.2359 -0.9487  0.5678
18585TIP3   OH277169   5.283   0.534  15.853  0.2346  0.4318  0.2465
18585TIP3    H177170   5.316   0.452  15.815  1.6141  1.6634 -1.3905
18585TIP3    H277171   5.338   0.549  15.930 -0.1194 -0.2524  0.6323
18586TIP3   OH277172   4.893   4.912   1.346 -0.0802 -0.0235  0.2166
18586TIP3    H177173   4.929   4.876   1.265 -0.4552  0.5456 -0.2129
18586TIP3    H277174   4.800   4.923   1.327  0.3096  2.9532 -0.3711
18587TIP3   OH277175   3.664   6.583   6.047 -0.2296 -0.6501 -0.1351
18587TIP3    H177176   3.575   6.571   6.014 -0.5886 -0.1263  0.6094
18587TIP3    H277177   3.687   6.498   6.086 -1.1505 -0.2508  1.3744
18588TIP3   OH277178   1.886   4.306  16.005  0.0391 -0.1670 -0.0909
18588TIP3    H177179   1.791   4.303  16.002  0.0551 -1.0418  0.0139
18588TIP3    H277180   1.914   4.295  15.914  0.0569 -2.1567  0.0931
18589TIP3   OH277181   2.946   6.253   2.862 -0.2328  0.1316 -0.2494
18589TIP3    H177182   3.025   6.256   2.808 -0.2662  1.4474 -0.2631
18589TIP3    H277183   2.972   6.293   2.945 -1.2854  2.2346 -0.8559
18590TIP3   OH277184   3.942   5.292   4.137 -0.2092  0.2607 -0.0312
18590TIP3    H177185   3.924   5.338   4.054  0.5240 -0.5447 -0.6510
18590TIP3    H277186   4.028   5.254   4.125 -0.1047  0.1085  1.1134
18591TIP3   OH277187   0.891   3.008  14.685 -0.7201 -0.5575 -0.3430
18591TIP3    H177188   0.871   2.974  14.773 -0.4927 -1.7233 -0.7195
18591TIP3    H277189   0.807   3.037  14.651 -0.6032  1.2586  0.7820
18592TIP3   OH277190   1.234   5.004   4.336  0.0340  0.0667 -0.6443
18592TIP3    H177191   1.154   5.047   4.307 -0.1117 -1.2363 -2.3193
18592TIP3    H277192   1.304   5.065   4.315 -0.3673  0.5004 -0.7314
18593TIP3   OH277193   3.120   6.291   4.385  0.0741  0.0295  0.4932
18593TIP3    H177194   3.087   6.343   4.459  1.8363  1.8836  0.0779
18593TIP3    H277195   3.083   6.334   4.308  0.5633 -0.1076  0.1799
18594TIP3   OH277196   1.773   5.434  14.958 -0.0066 -0.0449  0.2563
18594TIP3    H177197   1.705   5.428  14.890  0.1989 -0.4971  0.0884
18594TIP3    H277198   1.731   5.398  15.036 -0.4013  0.9075  0.4992
18595TIP3   OH277199   3.493   3.723  16.056  0.0816  0.5789  0.4087
18595TIP3    H177200   3.443   3.642  16.067 -1.3406  1.2773 -0.5722
18595TIP3    H277201   3.558   3.702  15.989 -0.5030  0.3405 -0.0891
18596TIP3   OH277202   0.646   6.544   3.669  0.0672 -0.9556 -0.0395
18596TIP3    H177203   0.572   6.596   3.701  1.0050 -0.1975  0.9870
18596TIP3    H277204   0.607   6.464   3.636 -1.2484 -0.3903  0.0917
18597TIP3   OH277205   5.430   6.079  12.606 -0.3496  0.6265 -0.4340
18597TIP3    H177206   5.383   6.073  12.689  0.1995  0.0750 -0.1578
18597TIP3    H277207   5.468   5.993  12.593 -0.4142  0.7149 -1.2553
18598TIP3   OH277208   2.469   0.335  17.207  0.3846  0.0158  0.6584
18598TIP3    H177209   2.541   0.397  17.198 -0.1861  0.4452 -1.6043
18598TIP3    H277210   2.512   0.250  17.220  1.1729  0.7750  3.7321
18599TIP3   OH277211   5.286   4.701   3.801  0.4517 -0.3325  0.4291
18599TIP3    H177212   5.313   4.751   3.878  1.1920  1.2556 -0.7880
18599TIP3    H277213   5.207   4.654   3.828  0.4360  0.5456  1.9990
18600TIP3   OH277214   6.211   5.125   1.206  0.0353  0.5095  1.2324
18600TIP3    H177215   6.170   5.168   1.281 -0.7917 -0.2743  1.2456
18600TIP3    H277216   6.179   5.035   1.209  1.8464 -0.1703  1.2844
18601TIP3   OH277217   2.826   4.843   0.277 -0.1793 -0.1918  0.4564
18601TIP3    H177218   2.894   4.791   0.321  0.5929  0.7863  0.4763
18601TIP3    H277219   2.851   4.934   0.296 -2.1878  0.1996  1.5082
18602TIP3   OH277220   2.018   3.162  11.190 -0.2688 -0.2608 -0.1175
18602TIP3    H177221   2.069   3.087  11.221 -0.7000 -1.2007 -1.5799
18602TIP3    H277222   2.082   3.217  11.145 -0.3775 -1.0973 -1.3468
18603TIP3   OH277223   1.140   2.713   1.209 -0.4295 -0.4516  0.2145
18603TIP3    H177224   1.109   2.783   1.151 -0.8055  0.4657  1.4985
18603TIP3    H277225   1.173   2.758   1.286 -1.9458 -1.7164  1.6852
18604TIP3   OH277226   2.200   2.499  17.075 -0.3016 -0.3652 -0.3950
18604TIP3    H177227   2.137   2.463  17.137 -1.8052  0.9900 -1.0462
18604TIP3    H277228   2.282   2.502  17.123 -0.9989 -1.0901  0.8912
18605TIP3   OH277229   6.345   1.190  14.144  0.3622  1.1305  0.4334
18605TIP3    H177230   6.399   1.125  14.189 -0.3736 -0.1673 -0.4648
18605TIP3    H277231   6.398   1.269  14.142  3.5082 -0.7514 -2.6902
18606TIP3   OH277232   5.845   0.261   6.183 -0.0580  0.1617 -0.4791
18606TIP3    H177233   5.849   0.181   6.235 -0.5373  0.7551  0.4996
18606TIP3    H277234   5.820   0.231   6.095 -0.1539 -0.7597 -0.1484
18607TIP3   OH277235   2.878   3.332  14.898 -0.2618 -0.7327  0.4109
18607TIP3    H177236   2.916   3.246  14.916  0.7517 -0.5284 -0.6517
18607TIP3    H277237   2.952   3.386  14.872 -0.8543  0.5288  1.2245
18608TIP3   OH277238   3.480   3.883  14.062  0.3826 -0.3139  0.0638
18608TIP3    H177239   3.488   3.827  13.985 -1.1820 -0.8777  0.2650
18608TIP3    H277240   3.503   3.826  14.135 -0.3009 -0.4534  0.1835
18609TIP3   OH277241   3.243   2.139   3.450 -0.7018  0.1284 -0.2748
18609TIP3    H177242   3.310   2.207   3.441 -0.1134 -0.5079 -0.7378
18609TIP3    H277243   3.290   2.063   3.484 -1.3562 -0.0599  0.2276
18610TIP3   OH277244   2.248   2.928   1.708 -0.4252 -0.2073  0.2185
18610TIP3    H177245   2.225   2.987   1.780 -0.9813 -0.9249  0.6561
18610TIP3    H277246   2.296   2.857   1.751 -0.8189 -0.6727 -0.1091
18611TIP3   OH277247   6.104   4.091  16.016 -0.0712  0.0713  0.0427
18611TIP3    H177248   6.138   4.068  15.930  1.0958  1.1902  0.1735
18611TIP3    H277249   6.178   4.077  16.075 -0.5175  0.4152  0.6908
18612TIP3   OH277250   5.361   5.955  11.465 -0.2460  0.5675 -0.1826
18612TIP3    H177251   5.415   5.982  11.391  0.3034 -1.2654 -0.5140
18612TIP3    H277252   5.337   6.036  11.509 -1.6556  1.8309 -3.0824
18613TIP3   OH277253   3.236   6.269  13.047  0.4233  0.0444  1.1835
18613TIP3    H177254   3.185   6.200  13.006 -0.8095 -0.5818  3.5681
18613TIP3    H277255   3.186   6.350  13.030  0.7421  0.0427  0.1965
18614TIP3   OH277256   4.968   0.708  15.349 -0.5503  0.4471 -0.4142
18614TIP3    H177257   4.954   0.615  15.363 -0.3712  0.4423 -0.2623
18614TIP3    H277258   5.063   0.718  15.344 -0.5209  0.7525  0.5172
18615TIP3   OH277259   0.513   2.562  12.426  0.2742 -0.6590  0.6350
18615TIP3    H177260   0.432   2.560  12.476 -0.0212 -1.0548  0.1408
18615TIP3    H277261   0.487   2.589  12.338  0.5441 -1.6850  0.2271
18616TIP3   OH277262   1.909   4.860  15.473 -0.1290 -0.2398 -0.1460
18616TIP3    H177263   1.861   4.904  15.543  0.3708 -0.6971  0.5085
18616TIP3    H277264   1.979   4.813  15.519 -0.1243 -0.9917 -0.9040
18617TIP3   OH277265   2.104   4.713   0.253  0.4066 -0.4585  0.2469
18617TIP3    H177266   2.194   4.681   0.247  0.5595 -0.3447  1.6326
18617TIP3    H277267   2.099   4.754   0.339 -0.8244  0.0157 -0.0313
18618TIP3   OH277268   1.321   3.489   6.588 -0.1916  0.8583  0.7995
18618TIP3    H177269   1.403   3.518   6.628  0.7404  0.7268 -0.9215
18618TIP3    H277270   1.340   3.401   6.554 -0.2771  1.7004 -1.6149
18619TIP3   OH277271   6.218   0.769   4.695 -0.0282  0.1288 -0.0524
18619TIP3    H177272   6.267   0.838   4.649  3.0187 -0.4828  1.9791
18619TIP3    H277273   6.148   0.816   4.740  0.4733  1.5442 -0.6814
18620TIP3   OH277274   2.250   0.681  15.095  0.3851  0.3656  0.0559
18620TIP3    H177275   2.196   0.684  15.016 -0.2016 -3.6833  0.1108
18620TIP3    H277276   2.204   0.738  15.157 -1.7309  0.0097 -1.0855
18621TIP3   OH277277   5.966   0.101   1.268 -0.2092 -0.4202 -0.3005
18621TIP3    H177278   5.976   0.184   1.316 -0.7493 -0.5315  0.0150
18621TIP3    H277279   5.872   0.095   1.250 -0.2769 -1.2764  0.2620
18622TIP3   OH277280   4.223   6.539  14.268 -0.3892 -0.6687 -0.8047
18622TIP3    H177281   4.130   6.523  14.284 -0.4515 -1.4337 -1.8215
18622TIP3    H277282   4.232   6.634  14.268 -1.4171 -0.5512 -1.9515
18623TIP3   OH277283   1.600   5.749  12.926  0.3111  0.4727  0.2211
18623TIP3    H177284   1.505   5.751  12.916  0.2762 -1.8768 -0.4322
18623TIP3    H277285   1.630   5.831  12.886 -1.4910  1.9959  1.7790
18624TIP3   OH277286   3.381   5.851   4.503  0.3162 -0.0265 -0.4627
18624TIP3    H177287   3.350   5.889   4.585 -0.2166  2.2325 -1.6325
18624TIP3    H277288   3.477   5.854   4.511  0.3212 -2.1175  1.0109
18625TIP3   OH277289   4.028   4.142   0.249 -0.2580 -0.8728  0.1799
18625TIP3    H177290   4.080   4.168   0.173  0.5628 -0.4076  0.8916
18625TIP3    H277291   4.021   4.221   0.303 -0.7433 -1.2244  0.6491
18626TIP3   OH277292   4.824   0.679  13.611  0.4089  0.0110 -0.5761
18626TIP3    H177293   4.876   0.685  13.531  0.2182 -2.3628 -0.9361
18626TIP3    H277294   4.794   0.589  13.614 -2.0913  0.7883  0.6441
18627TIP3   OH277295   0.072   1.769   0.302 -0.4572  0.4288 -0.4804
18627TIP3    H177296   0.015   1.846   0.289  2.1886  2.4716 -0.8053
18627TIP3    H277297   0.125   1.765   0.222  2.0715  0.6804  1.0844
18628TIP3   OH277298   4.419   3.460  12.634 -0.1868 -0.1683 -0.3753
18628TIP3    H177299   4.420   3.457  12.730  0.5734  2.8511 -0.1772
18628TIP3    H277300   4.509   3.438  12.608 -0.4435 -1.1926 -0.4531
18629TIP3   OH277301   2.600   4.844  15.717  0.0983 -0.0665 -0.0031
18629TIP3    H177302   2.681   4.891  15.733 -0.3252  0.7962 -0.3473
18629TIP3    H277303   2.618   4.792  15.638  0.3125  0.1159 -0.0755
18630TIP3   OH277304   3.720   3.960  14.923  0.3019  0.1367 -0.1548
18630TIP3    H177305   3.780   4.002  14.984  1.5094  0.4160 -1.4728
18630TIP3    H277306   3.642   3.942  14.975  1.2188  0.4830  1.4166
18631TIP3   OH277307   0.983   2.732   6.068  0.2537 -0.1905  0.0302
18631TIP3    H177308   0.979   2.802   6.133 -0.6913  0.4711 -0.7132
18631TIP3    H277309   1.075   2.706   6.067  0.6101  0.9928  0.3645
18632TIP3   OH277310   4.104   3.719  13.215 -0.5966  0.1993 -0.3380
18632TIP3    H177311   4.014   3.688  13.231 -0.6045  0.4362  0.0992
18632TIP3    H277312   4.146   3.712  13.301 -0.1878  0.0620 -0.5514
18633TIP3   OH277313   2.660   2.922   0.791 -0.5670 -0.7704 -0.4469
18633TIP3    H177314   2.719   2.934   0.717 -0.1188  1.9157  0.2686
18633TIP3    H277315   2.632   2.830   0.784  1.2061 -1.2324 -2.6026
18634TIP3   OH277316   4.247   0.030  14.733 -0.3552  0.3715 -0.1718
18634TIP3    H177317   4.228  -0.049  14.784 -0.3761  0.0184 -0.7247
18634TIP3    H277318   4.333   0.014  14.695 -0.4135  0.5665 -0.3871
18635TIP3   OH277319   2.375   2.236   3.319  0.0259 -0.5432 -0.0456
18635TIP3    H177320   2.419   2.171   3.373  0.0383 -0.2822  0.2554
18635TIP3    H277321   2.297   2.191   3.287  0.7771 -1.1930 -1.0288
18636TIP3   OH277322   4.043   1.563  16.589 -0.3663  0.2006  0.8184
18636TIP3    H177323   4.064   1.641  16.641  1.4508 -0.1974  0.7149
18636TIP3    H277324   3.974   1.520  16.640  1.4611 -0.2715  3.0968
18637TIP3   OH277325   4.390   4.262   5.658 -0.0091  0.2841 -0.3626
18637TIP3    H177326   4.479   4.229   5.671 -0.4385 -1.1283 -0.8446
18637TIP3    H277327   4.377   4.325   5.730  2.2837  2.5710 -1.8053
18638TIP3   OH277328   0.862   2.530  16.275  0.0608  0.5552  0.1891
18638TIP3    H177329   0.839   2.579  16.354  1.1690  2.4431 -0.5781
18638TIP3    H277330   0.956   2.515  16.283 -0.3476 -2.1470  0.7073
18639TIP3   OH277331   3.906   2.801  16.566  0.0380 -0.1295  0.5258
18639TIP3    H177332   3.886   2.711  16.591  1.4362 -0.4650  0.5116
18639TIP3    H277333   3.977   2.827  16.625 -0.7007  1.1748  0.9066
18640TIP3   OH277334   3.551   6.510  15.442 -0.2490 -0.1090 -0.0009
18640TIP3    H177335   3.527   6.422  15.413 -0.5284  1.3938 -5.3258
18640TIP3    H277336   3.635   6.499  15.487 -0.0206 -3.0099 -0.9298
18641TIP3   OH277337   6.585   3.155  10.987 -0.0640 -0.1789 -0.0142
18641TIP3    H177338   6.492   3.178  10.995  0.1270  0.2630  1.0479
18641TIP3    H277339   6.588   3.096  10.912 -1.0618  0.5984 -0.7042
18642TIP3   OH277340   0.844   5.289  15.596  0.0671  0.2159 -0.0074
18642TIP3    H177341   0.826   5.323  15.684 -0.4696 -0.9891  0.3756
18642TIP3    H277342   0.854   5.194  15.609  1.8707  0.2348 -0.9684
18643TIP3   OH277343   0.145   2.358   4.863  0.6407 -0.0047  0.0570
18643TIP3    H177344   0.188   2.289   4.814 -0.8035 -1.8777  1.2761
18643TIP3    H277345   0.147   2.328   4.954 -1.8083  0.5103  0.3541
18644TIP3   OH277346   2.336   0.848   3.398 -0.0511 -0.1990 -0.0725
18644TIP3    H177347   2.314   0.912   3.465 -1.5869  0.5390 -1.2098
18644TIP3    H277348   2.252   0.810   3.373  0.6012 -1.1490 -0.8914
18645TIP3   OH277349   2.703   1.950   1.918  0.3106  0.0856 -0.0294
18645TIP3    H177350   2.793   1.927   1.896  0.2568 -0.3007  0.1425
18645TIP3    H277351   2.693   1.926   2.010  0.4942  1.5791  0.4059
18646TIP3   OH277352   1.624   0.032   3.113  0.6566 -0.1731  0.2475
18646TIP3    H177353   1.665   0.115   3.089  3.5063 -1.4253  0.4638
18646TIP3    H277354   1.603   0.043   3.206  0.5553  0.4639  0.1578
18647TIP3   OH277355   0.295   0.404   3.601 -0.3391 -0.2163 -0.3258
18647TIP3    H177356   0.214   0.437   3.641  0.8423 -0.0400  2.1117
18647TIP3    H277357   0.360   0.409   3.671  1.9962  0.2827 -2.3762
18648TIP3   OH277358   3.359   0.201   3.891  0.0467 -0.3436 -0.1858
18648TIP3    H177359   3.290   0.180   3.954  1.2304  0.8884  1.5885
18648TIP3    H277360   3.408   0.119   3.881 -0.4672 -0.6844  0.0573
18649TIP3   OH277361   2.512   5.128   0.128 -0.5203  0.1848  0.2682
18649TIP3    H177362   2.476   5.044   0.100 -0.1139 -0.2465  1.0122
18649TIP3    H277363   2.498   5.130   0.223  1.1123  0.1471  0.5284
18650TIP3   OH277364   5.814   0.067  11.448 -0.0105  0.4148 -0.0753
18650TIP3    H177365   5.798  -0.015  11.402 -0.3429  2.2919 -3.6339
18650TIP3    H277366   5.831   0.040  11.538  1.0747 -3.6163 -1.2557
18651TIP3   OH277367   3.654   0.661  12.970 -0.1761 -0.2545  0.2351
18651TIP3    H177368   3.582   0.707  13.014  0.4113  0.8880  0.0500
18651TIP3    H277369   3.651   0.572  13.004  0.0071  0.4802  2.2853
18652TIP3   OH277370   1.985   5.004  17.196 -0.4832  0.2191  0.1559
18652TIP3    H177371   2.070   4.961  17.205 -0.0808  0.9891  0.0138
18652TIP3    H277372   1.927   4.952  17.252  0.2123  0.0560  0.7387
18653TIP3   OH277373   5.877   4.216   1.391 -0.4818  0.1566  0.1192
18653TIP3    H177374   5.874   4.194   1.484 -0.0272 -0.3941  0.0050
18653TIP3    H277375   5.902   4.135   1.347 -0.2459  0.5257 -0.4445
18654TIP3   OH277376   4.678   4.472   5.623  0.0604  0.2618 -0.6253
18654TIP3    H177377   4.737   4.547   5.620 -0.4985  0.8130  1.1180
18654TIP3    H277378   4.689   4.430   5.538  0.1072  2.5106 -1.7875
18655TIP3   OH277379   2.534   5.193   6.158  0.2111  0.7472 -0.4259
18655TIP3    H177380   2.613   5.224   6.114 -0.6486  1.0054 -1.8553
18655TIP3    H277381   2.496   5.129   6.098  0.8866 -1.7092  1.5888
18656TIP3   OH277382   5.455   0.363  16.645  0.3056  0.0454 -0.2717
18656TIP3    H177383   5.530   0.307  16.664  0.3509  0.4684  0.8579
18656TIP3    H277384   5.492   0.437  16.598  0.5261  0.0259 -0.1300
18657TIP3   OH277385   5.106   6.109  16.768  0.4270  0.3967 -0.5250
18657TIP3    H177386   5.050   6.151  16.703 -1.8013 -1.2236  0.2233
18657TIP3    H277387   5.084   6.016  16.762  2.1921 -0.1348  0.6521
18658TIP3   OH277388   2.665   0.678  12.104 -0.2991 -0.2307 -0.0641
18658TIP3    H177389   2.642   0.700  12.195  2.2643 -0.3878  0.7020
18658TIP3    H277390   2.667   0.583  12.102  2.7519 -0.3053  0.7227
18659TIP3   OH277391   5.076   0.443   5.749 -0.3084  0.3945 -0.2533
18659TIP3    H177392   5.087   0.507   5.679 -0.6818  1.2011  0.4109
18659TIP3    H277393   4.984   0.449   5.774 -0.2761 -0.1810  0.0379
18660TIP3   OH277394   1.003   1.687  15.271  0.4812  0.1474  0.2283
18660TIP3    H177395   0.990   1.594  15.288 -0.3802  0.4582  1.3576
18660TIP3    H277396   1.098   1.698  15.264  0.7735 -0.4028  2.6693
18661TIP3   OH277397   1.771   5.072   5.904  0.1116 -0.3899 -0.7451
18661TIP3    H177398   1.773   5.001   5.841 -0.3191 -0.2799 -0.8872
18661TIP3    H277399   1.687   5.116   5.889 -0.2509 -0.7014  0.2685
18662TIP3   OH277400   4.795   3.905   2.560  0.0258 -0.4776  0.3339
18662TIP3    H177401   4.788   3.983   2.615 -2.0411 -0.2753 -0.1593
18662TIP3    H277402   4.889   3.886   2.559  0.4607  1.3253  1.3857
18663TIP3   OH277403   5.216   2.482  11.500  0.1039 -0.1046 -0.0214
18663TIP3    H177404   5.243   2.522  11.583  0.9266 -0.4204 -0.1355
18663TIP3    H277405   5.120   2.482  11.504  0.1109 -1.8795  1.8017
18664TIP3   OH277406   4.134   2.407   0.239 -0.5682 -0.3520  0.2929
18664TIP3    H177407   4.100   2.495   0.255 -1.0608 -0.4776 -0.0422
18664TIP3    H277408   4.178   2.412   0.155 -0.6585 -0.4454  0.2403
18665TIP3   OH277409   0.730   1.042   3.261 -0.4061 -0.0842  0.0524
18665TIP3    H177410   0.751   1.136   3.259 -1.5625  0.2026  0.6152
18665TIP3    H277411   0.636   1.038   3.241 -0.8352 -0.9404  2.0036
18666TIP3   OH277412   1.460   3.874  17.007 -0.3095 -0.3401  1.0209
18666TIP3    H177413   1.524   3.882  16.936 -1.1719  0.3167  0.2847
18666TIP3    H277414   1.511   3.844  17.082  1.4122  2.8448  1.2896
18667TIP3   OH277415   2.452   4.278   0.652  0.2501  1.2103  0.0665
18667TIP3    H177416   2.516   4.315   0.591  0.4271 -1.9228 -1.8998
18667TIP3    H277417   2.420   4.199   0.608 -1.3231 -0.0222  3.1187
18668TIP3   OH277418   4.900   2.006   0.843  0.0432  0.0525 -1.0385
18668TIP3    H177419   4.836   2.029   0.775  0.5863  1.3848 -1.1279
18668TIP3    H277420   4.857   2.028   0.925 -0.3333 -0.8796 -0.9665
18669TIP3   OH277421   1.624   0.985  11.693  0.1714 -0.6205 -0.0349
18669TIP3    H177422   1.558   0.917  11.688  1.0780 -1.5436  0.3084
18669TIP3    H277423   1.659   0.991  11.603 -1.7411  1.3167 -0.7452
18670TIP3   OH277424   6.746   2.776   2.350 -0.5922  0.0810  0.1604
18670TIP3    H177425   6.800   2.853   2.367 -0.5638  0.0206  0.3434
18670TIP3    H277426   6.705   2.756   2.435 -1.2406  0.3881 -0.0734
18671TIP3   OH277427   2.168   6.676  14.042 -0.2033  0.6181  0.0274
18671TIP3    H177428   2.142   6.750  13.986 -0.2390  0.1109 -0.6324
18671TIP3    H277429   2.264   6.676  14.039 -0.1209  1.6439  1.3659
18672TIP3   OH277430   5.224   0.411   1.917 -0.5222 -0.2738  0.1523
18672TIP3    H177431   5.149   0.398   1.975 -0.0449  1.1096  1.1192
18672TIP3    H277432   5.264   0.492   1.947 -0.9900  1.2291 -2.9070
18673TIP3   OH277433   0.024   0.020   5.119  0.3574  0.7452  0.2226
18673TIP3    H177434   0.034  -0.074   5.105  0.2663  0.5993  1.0889
18673TIP3    H277435  -0.062   0.041   5.084 -0.1924  0.2493  1.2390
18674TIP3   OH277436   6.485   4.869  11.782 -0.2207  0.1356 -0.0262
18674TIP3    H177437   6.390   4.877  11.776 -0.3225 -1.1826 -0.6059
18674TIP3    H277438   6.511   4.831  11.698  0.9132  1.1886 -0.1780
18675TIP3   OH277439   4.029   4.868   0.100 -0.6700 -0.2119  0.2846
18675TIP3    H177440   4.079   4.947   0.117  0.7135 -1.2626  1.2396
18675TIP3    H277441   4.054   4.807   0.169 -1.5305 -1.5803 -0.5543
18676TIP3   OH277442   4.852   2.085  16.182  0.5774 -0.5537 -0.6670
18676TIP3    H177443   4.865   2.180  16.184  0.1502 -0.4152 -2.5206
18676TIP3    H277444   4.881   2.055  16.268  0.4298  1.2872  0.0772
18677TIP3   OH277445   2.420   1.275   6.557 -0.2185  0.1831  0.0193
18677TIP3    H177446   2.419   1.328   6.477 -0.0223  0.9774  0.5313
18677TIP3    H277447   2.337   1.295   6.600 -1.0398 -1.4126 -0.6977
18678TIP3   OH277448   2.571   3.654  16.050 -0.2020 -0.0569 -0.3161
18678TIP3    H177449   2.537   3.647  15.961 -1.1800  3.0725 -0.3093
18678TIP3    H277450   2.596   3.746  16.059  0.4240 -0.4143  2.4575
18679TIP3   OH277451   4.373   0.347  17.217  0.1460  0.1862 -0.0941
18679TIP3    H177452   4.435   0.403  17.263 -0.2894  0.8420 -0.2825
18679TIP3    H277453   4.304   0.329  17.281  0.3002 -0.1637 -0.0241
18680TIP3   OH277454   4.235   2.451   5.802  0.0033 -0.3771 -0.1334
18680TIP3    H177455   4.163   2.388   5.811  0.1372 -0.8513 -1.9762
18680TIP3    H277456   4.234   2.501   5.884  0.4310 -3.3154  1.8075
18681TIP3   OH277457   4.239   4.424  15.656 -0.7588 -0.0901  0.6423
18681TIP3    H177458   4.190   4.499  15.624  1.0901  0.8923 -0.0704
18681TIP3    H277459   4.247   4.366  15.581  1.4031  1.0342 -0.0985
18682TIP3   OH277460   4.396   3.846  12.787 -0.4699  0.0474  0.5629
18682TIP3    H177461   4.351   3.813  12.709  0.4644 -0.5222  0.2347
18682TIP3    H277462   4.327   3.881  12.842 -0.9826  2.9978 -1.6832
18683TIP3   OH277463   6.733   6.416   0.290  0.0285  0.7181 -0.4097
18683TIP3    H177464   6.727   6.511   0.296  0.9423  0.7532  0.1854
18683TIP3    H277465   6.813   6.401   0.239  0.7539  0.2756  0.8133
18684TIP3   OH277466   2.267   6.606   6.174 -0.0448 -0.1421  0.5333
18684TIP3    H177467   2.228   6.672   6.231 -3.2189 -1.4334  0.0572
18684TIP3    H277468   2.285   6.532   6.232  0.3140 -0.1010  0.4798
18685TIP3   OH277469   5.818   0.369  16.937  0.0872 -0.1287 -0.3655
18685TIP3    H177470   5.887   0.368  17.004 -0.2122 -0.3333 -0.0541
18685TIP3    H277471   5.742   0.330  16.981 -0.1480 -0.1508 -0.7886
18686TIP3   OH277472   5.668   3.941  16.244  0.6912  0.2146 -0.5212
18686TIP3    H177473   5.709   3.995  16.311  1.2428  0.2074 -0.8393
18686TIP3    H277474   5.742   3.909  16.192  0.1772  1.8284 -2.3496
18687TIP3   OH277475   1.269   3.170   5.487 -0.3630 -0.2587  0.2495
18687TIP3    H177476   1.332   3.240   5.469 -0.1970 -0.5004 -0.1041
18687TIP3    H277477   1.319   3.089   5.477 -0.8681 -0.4780 -0.6191
18688TIP3   OH277478   2.422   3.930  15.486 -0.1524 -0.4865  0.8796
18688TIP3    H177479   2.514   3.948  15.466 -0.0196 -2.7173 -1.1017
18688TIP3    H277480   2.423   3.841  15.521 -1.4276  0.0736  2.4073
18689TIP3   OH277481   0.050   4.658  13.198 -0.1786 -0.3893  0.2861
18689TIP3    H177482   0.059   4.751  13.177  0.3502  0.1906  2.6997
18689TIP3    H277483   0.069   4.613  13.116  2.0046  1.5548 -0.4046
18690TIP3   OH277484   6.142   3.395   2.283  0.3913 -0.5952 -0.1469
18690TIP3    H177485   6.210   3.379   2.217  0.6109  1.7609 -0.5912
18690TIP3    H277486   6.190   3.400   2.366  0.3247 -1.9696 -0.0082
18691TIP3   OH277487   6.306   3.394  14.431 -0.2442  0.1036 -0.1275
18691TIP3    H177488   6.315   3.414  14.524 -0.9169  1.3152 -0.3012
18691TIP3    H277489   6.396   3.395  14.398 -0.0734  0.6059  0.3325
18692TIP3   OH277490   2.730   6.709   5.850  0.2704 -0.0023  0.3929
18692TIP3    H177491   2.640   6.690   5.825 -0.0157 -0.1445  1.4834
18692TIP3    H277492   2.760   6.630   5.895  2.1424 -1.4045 -2.9313
18693TIP3   OH277493   5.827   5.484  14.355 -0.0008  0.8852 -0.2870
18693TIP3    H177494   5.849   5.511  14.266  1.1654  0.9177 -0.0019
18693TIP3    H277495   5.886   5.534  14.411  2.5879 -2.4299  0.2579
18694TIP3   OH277496   3.081   5.182  10.628  0.7243 -0.1844  0.3201
18694TIP3    H177497   3.149   5.166  10.694  0.0604 -0.0246  1.0499
18694TIP3    H277498   3.003   5.141  10.664 -0.2404  1.9234  0.7528
18695TIP3   OH277499   2.504   1.529  16.712  0.6233  0.1814  0.2194
18695TIP3    H177500   2.594   1.517  16.741  0.9277  2.6820  0.5089
18695TIP3    H277501   2.451   1.509  16.789  0.8480 -1.8001 -0.0954
18696TIP3   OH277502   2.376   2.271  12.505  0.0293 -0.5685  0.1196
18696TIP3    H177503   2.436   2.227  12.565  1.3698  0.5424 -0.3404
18696TIP3    H277504   2.306   2.306  12.561 -0.7896 -2.7581  0.5384
18697TIP3   OH277505   6.550   5.554   5.390 -0.4347  0.8604 -0.1707
18697TIP3    H177506   6.575   5.638   5.428  1.9337  0.1998 -0.1478
18697TIP3    H277507   6.534   5.497   5.466  0.2712  0.6584 -0.1705
18698TIP3   OH277508   0.163   3.157   1.491 -0.0189  0.3908 -0.2553
18698TIP3    H177509   0.081   3.155   1.541 -0.0559 -0.4872 -0.3383
18698TIP3    H277510   0.225   3.201   1.549 -0.6512  1.4550 -0.3579
18699TIP3   OH277511   4.355   3.433   1.851  0.3028  0.4400  0.2847
18699TIP3    H177512   4.361   3.420   1.945  0.3609  0.2646  0.2574
18699TIP3    H277513   4.446   3.437   1.822  0.3364  2.4293  0.4932
18700TIP3   OH277514   4.182   6.500   1.971  0.4893  0.0181 -0.2801
18700TIP3    H177515   4.125   6.545   2.034  1.7119 -1.1640  1.7631
18700TIP3    H277516   4.122   6.445   1.920 -0.4056  0.1343  0.6114
18701TIP3   OH277517   0.178   3.262  15.611  0.9146 -0.8803  0.4920
18701TIP3    H177518   0.144   3.331  15.668  1.2117 -1.4157  1.3323
18701TIP3    H277519   0.101   3.231  15.564  0.6968 -0.3104  0.4555
18702TIP3   OH277520   2.296   1.311  16.633  0.0350 -0.3805  0.6315
18702TIP3    H177521   2.253   1.331  16.717 -0.1957  0.7758  0.2472
18702TIP3    H277522   2.229   1.265  16.582  0.4338 -1.8527  1.3539
18703TIP3   OH277523   4.304   0.563   3.756  0.0572 -0.6953  0.5564
18703TIP3    H177524   4.312   0.600   3.668 -0.1504  0.2039  0.8974
18703TIP3    H277525   4.312   0.469   3.744 -0.2623 -0.6014 -0.4559
18704TIP3   OH277526   3.070   4.011  14.550  0.2829 -0.3222  0.4504
18704TIP3    H177527   3.070   3.925  14.591  0.6027 -0.0921  0.9500
18704TIP3    H277528   3.144   4.057  14.591  0.3275  0.0709 -0.0570
18705TIP3   OH277529   4.559   5.773  14.240 -0.2938 -0.1079 -0.2301
18705TIP3    H177530   4.501   5.848  14.226 -1.1978 -0.8114 -0.2830
18705TIP3    H277531   4.612   5.799  14.316  0.8250  1.4154 -1.4461
18706TIP3   OH277532   5.620   2.368   2.841 -0.3915 -0.2299 -0.3843
18706TIP3    H177533   5.653   2.404   2.923 -0.9809 -0.0111 -0.2377
18706TIP3    H277534   5.691   2.313   2.809 -0.7372 -1.6237  1.0809
18707TIP3   OH277535   0.613   1.051   2.219 -0.1333  0.2176  0.3526
18707TIP3    H177536   0.673   1.115   2.180 -1.8470  1.1553 -0.8447
18707TIP3    H277537   0.533   1.101   2.237 -1.0885 -1.3206  0.5339
18708TIP3   OH277538   5.534   2.675   4.760  0.2670 -0.4908 -0.3252
18708TIP3    H177539   5.506   2.739   4.695  0.9977  0.2454  0.0743
18708TIP3    H277540   5.452   2.644   4.800 -0.0311  1.3295  0.5504
18709TIP3   OH277541   0.935   1.663   1.018 -0.1113  0.2418 -0.2004
18709TIP3    H177542   0.916   1.732   0.954 -0.6538  1.4609  1.2147
18709TIP3    H277543   1.012   1.695   1.065 -0.5402  0.0256  0.6572
18710TIP3   OH277544   1.185   6.766   1.298  0.6791  0.0989 -0.3986
18710TIP3    H177545   1.213   6.845   1.345 -1.5647  0.9987 -0.4444
18710TIP3    H277546   1.163   6.798   1.210  0.4580 -0.7291 -0.6508
18711TIP3   OH277547   5.236   4.091  17.047 -0.0875 -0.2868  0.3880
18711TIP3    H177548   5.219   4.001  17.021 -2.1741 -0.2503  1.3973
18711TIP3    H277549   5.306   4.120  16.989 -1.4950 -1.5563 -2.1146
18712TIP3   OH277550   0.036   1.265  13.232 -1.3713 -0.2400 -0.6055
18712TIP3    H177551   0.004   1.203  13.297 -0.5935  1.0540  1.0692
18712TIP3    H277552   0.131   1.267  13.245 -1.3153  0.7590 -1.1240
18713TIP3   OH277553   3.049   1.625   1.551 -0.3571  0.8422  0.1098
18713TIP3    H177554   3.004   1.545   1.522 -1.2502  1.6075 -0.6610
18713TIP3    H277555   3.109   1.594   1.619 -2.8545 -0.0957  2.0513
18714TIP3   OH277556   2.448   4.692   5.729  0.2509  0.0761 -0.1799
18714TIP3    H177557   2.497   4.637   5.668 -0.6982 -2.1484  0.9735
18714TIP3    H277558   2.439   4.639   5.808 -1.4703  1.5717  0.6964
18715TIP3   OH277559   1.389   4.004  14.334 -0.4009  0.3657 -0.2325
18715TIP3    H177560   1.464   4.048  14.295  0.3051 -0.1615  0.4856
18715TIP3    H277561   1.415   3.912  14.338 -0.4691  0.3887  1.3754
18716TIP3   OH277562   2.684   3.434   0.892 -0.5194  0.1579 -0.0381
18716TIP3    H177563   2.633   3.514   0.881 -0.2593  0.5805  1.5819
18716TIP3    H277564   2.646   3.391   0.968 -0.5258 -1.1847 -0.7695
18717TIP3   OH277565   1.396   5.197  13.634  0.3473 -0.1971 -0.3527
18717TIP3    H177566   1.489   5.179  13.644  0.4248 -0.4196 -1.3808
18717TIP3    H277567   1.392   5.284  13.593  0.1575 -0.7064 -1.4622
18718TIP3   OH277568   4.933   5.691   1.842  0.0466  0.4868  0.7843
18718TIP3    H177569   4.848   5.648   1.839  0.5938 -0.5842 -0.7606
18718TIP3    H277570   4.968   5.669   1.928 -0.8053  0.0646  1.0338
18719TIP3   OH277571   0.958   5.581   4.367 -0.3047  0.2671 -0.0310
18719TIP3    H177572   1.015   5.512   4.401 -1.1800 -0.7835 -0.6422
18719TIP3    H277573   0.943   5.638   4.443 -0.0180 -0.5233  0.6433
18720TIP3   OH277574   1.883   2.293  16.347  0.1201  0.1590  0.3476
18720TIP3    H177575   1.840   2.347  16.413 -3.6490  0.8425 -2.3028
18720TIP3    H277576   1.832   2.212  16.344  1.6221 -0.8204 -0.2064
18721TIP3   OH277577   0.959   4.691   5.746 -0.0578 -0.5370 -0.1286
18721TIP3    H177578   0.969   4.761   5.682 -0.3881  0.1908  0.6122
18721TIP3    H277579   0.969   4.734   5.831 -0.0752 -1.4178  0.3286
18722TIP3   OH277580   2.445   3.336   5.868  0.0309  0.1085 -0.6979
18722TIP3    H177581   2.384   3.360   5.799 -1.6462  0.5269  0.8406
18722TIP3    H277582   2.392   3.334   5.948  1.6181 -1.4869  0.4282
18723TIP3   OH277583   4.604   5.916  11.403  0.0429  0.1484 -0.4502
18723TIP3    H177584   4.675   5.887  11.460  0.1427 -0.1390 -0.7178
18723TIP3    H277585   4.574   5.836  11.360  0.6680  0.4997 -1.5859
18724TIP3   OH277586   2.358   2.820  11.425  0.8013 -0.0697  0.4462
18724TIP3    H177587   2.406   2.812  11.507 -0.9632 -0.7189  1.4652
18724TIP3    H277588   2.416   2.779  11.360  1.4289 -1.2853  1.7055
18725TIP3   OH277589   3.543   4.612  15.099  0.1214  0.1526 -0.1310
18725TIP3    H177590   3.484   4.639  15.029  1.0352  0.2380 -0.8865
18725TIP3    H277591   3.618   4.670  15.092 -0.3204  1.0157  1.7636
18726TIP3   OH277592   4.782   1.053   3.107  0.3012  0.4961  0.5020
18726TIP3    H177593   4.863   1.066   3.158  0.2444 -0.8389  0.9558
18726TIP3    H277594   4.766   0.959   3.111  2.3305 -0.4410 -5.0823
18727TIP3   OH277595   1.698   1.369   0.336 -0.0315 -0.0015  0.0808
18727TIP3    H177596   1.739   1.404   0.256 -0.5819  1.2956  0.3403
18727TIP3    H277597   1.700   1.274   0.324 -0.6982  0.1859 -1.7835
18728TIP3   OH277598   3.352   1.789  14.403  0.0594  0.2223 -0.5378
18728TIP3    H177599   3.304   1.860  14.362 -2.8057 -0.0219  2.0418
18728TIP3    H277600   3.291   1.715  14.402  1.8528 -1.3316 -0.5078
18729TIP3   OH277601   6.691   3.166   4.455 -0.0549 -0.6043 -0.2509
18729TIP3    H177602   6.719   3.257   4.460 -1.1961 -0.2762  0.5336
18729TIP3    H277603   6.681   3.149   4.361 -2.7708  1.0591 -0.3726
18730TIP3   OH277604   3.593   6.366   3.484  0.0619  0.6483  0.2718
18730TIP3    H177605   3.591   6.439   3.422 -0.6755 -1.0677 -1.8443
18730TIP3    H277606   3.686   6.349   3.498  0.2476  2.2532  1.1772
18731TIP3   OH277607   2.337   1.541   0.492  0.4145 -0.0838 -0.1071
18731TIP3    H177608   2.401   1.504   0.431  0.0052 -2.4471  0.7911
18731TIP3    H277609   2.370   1.518   0.579 -1.0924 -0.4866  0.3959
18732TIP3   OH277610   6.114   3.885  15.522  0.5122 -0.2023 -0.4634
18732TIP3    H177611   6.045   3.867  15.457 -0.6469  0.8725  0.4087
18732TIP3    H277612   6.195   3.889  15.470 -0.2492 -0.2501 -1.7132
18733TIP3   OH277613   4.753   2.621  12.081 -0.3417 -0.3578 -0.5504
18733TIP3    H177614   4.774   2.582  11.996 -1.2692 -1.0209 -0.4981
18733TIP3    H277615   4.805   2.572  12.144 -0.6076 -0.7220 -0.6110
18734TIP3   OH277616   0.596   4.318  12.644  0.0760  0.3632 -0.8169
18734TIP3    H177617   0.627   4.384  12.707 -0.3217  0.7601 -1.0383
18734TIP3    H277618   0.617   4.234  12.686 -0.6693  0.6211  0.0902
18735TIP3   OH277619   1.158   1.849   3.348 -0.1021 -0.0623 -0.3271
18735TIP3    H177620   1.217   1.864   3.275  0.1400 -0.4980 -0.2223
18735TIP3    H277621   1.180   1.918   3.411  0.2425 -0.1790 -0.3197
18736TIP3   OH277622   1.281   5.008  14.742  0.4462  0.5143  0.2950
18736TIP3    H177623   1.236   4.967  14.668 -0.3865 -0.1519  1.1488
18736TIP3    H277624   1.336   5.075  14.702 -0.5972  0.7153 -0.8604
18737TIP3   OH277625   2.855   0.731   0.760 -0.2365 -0.3677  0.3141
18737TIP3    H177626   2.771   0.720   0.717  0.0222 -0.3402 -0.2097
18737TIP3    H277627   2.880   0.822   0.742 -0.3796 -0.1873  0.9924
18738TIP3   OH277628   0.983   0.845   1.779  0.2735 -0.0640  0.1417
18738TIP3    H177629   1.015   0.906   1.847  0.1155 -1.2119  1.2889
18738TIP3    H277630   0.972   0.762   1.825  3.4878 -1.8782 -1.9781
18739TIP3   OH277631   5.032   4.996   3.398  0.0737  0.2739 -0.0080
18739TIP3    H177632   4.999   5.062   3.459  0.1873 -0.4331  0.8372
18739TIP3    H277633   5.070   5.046   3.326  2.3855  1.2182  1.7505
18740TIP3   OH277634   4.331   5.884   0.887 -0.2085 -0.1342 -0.4269
18740TIP3    H177635   4.307   5.792   0.902 -0.9665  0.1064 -0.1277
18740TIP3    H277636   4.363   5.914   0.972  0.7265 -0.3098 -0.6997
18741TIP3   OH277637   1.808   2.094   2.783 -0.1293 -0.0263 -0.0763
18741TIP3    H177638   1.869   2.030   2.820  2.0112 -0.7721 -4.2173
18741TIP3    H277639   1.844   2.179   2.807  0.3042 -0.4123  0.6787
18742TIP3   OH277640   5.374   1.364  15.073 -0.2669  0.0728  0.1429
18742TIP3    H177641   5.438   1.418  15.026  0.8966 -0.9935  0.4535
18742TIP3    H277642   5.422   1.285  15.098 -1.5630 -0.5253  0.8767
18743TIP3   OH277643   5.328   4.313  13.863  0.6844 -0.3069  0.3382
18743TIP3    H177644   5.423   4.304  13.863  0.8285  0.9856 -0.5532
18743TIP3    H277645   5.300   4.282  13.777  0.7260  2.8057 -0.9019
18744TIP3   OH277646   2.685   5.688  14.118 -0.5876 -0.4572  0.4256
18744TIP3    H177647   2.590   5.684  14.127 -0.7492  1.6523  0.1603
18744TIP3    H277648   2.703   5.653  14.031 -1.1314 -0.5710  0.3554
18745TIP3   OH277649   4.882   1.313   6.675 -0.2232  0.0275 -0.3108
18745TIP3    H177650   4.906   1.382   6.614 -0.8173 -0.9389 -1.6822
18745TIP3    H277651   4.804   1.346   6.720 -0.5149  0.2397 -0.9691
18746TIP3   OH277652   3.650   0.158   1.769 -0.0377  0.4070  0.6858
18746TIP3    H177653   3.613   0.079   1.810 -0.3997  0.4179  0.3911
18746TIP3    H277654   3.578   0.221   1.770 -0.7701 -0.2619 -1.8287
18747TIP3   OH277655   5.329   3.904  12.065  0.1478  0.2008 -0.5254
18747TIP3    H177656   5.393   3.950  12.120 -0.7629 -0.2119  0.9370
18747TIP3    H277657   5.265   3.870  12.127 -0.6387 -0.7546 -1.8270
18748TIP3   OH277658   3.348   0.366  16.217  0.2290 -0.3357 -0.2311
18748TIP3    H177659   3.288   0.313  16.165 -0.2574  0.4203 -0.4479
18748TIP3    H277660   3.316   0.456  16.208  0.8691 -0.0351  0.3689
18749TIP3   OH277661   1.991   2.205   4.449 -0.2933 -0.1096  0.0568
18749TIP3    H177662   1.909   2.194   4.497  0.4070 -0.3275  1.2660
18749TIP3    H277663   2.020   2.116   4.429  0.8124 -0.1844  1.7623
18750TIP3   OH277664   0.458   2.137   0.272  0.6449  0.1335  0.5919
18750TIP3    H177665   0.510   2.204   0.227 -0.5261  1.0623  0.5626
18750TIP3    H277666   0.469   2.058   0.219  1.0171  0.6477 -0.1150
18751TIP3   OH277667   4.681   2.189   1.416 -0.3049  0.1693  0.5988
18751TIP3    H177668   4.751   2.140   1.374 -1.6005 -1.0372 -0.2689
18751TIP3    H277669   4.609   2.126   1.422 -1.2854  1.3354  1.5268
18752TIP3   OH277670   2.539   2.574   2.304 -0.3263  0.5524 -0.5456
18752TIP3    H177671   2.590   2.635   2.356 -1.4730  2.1513 -1.2239
18752TIP3    H277672   2.460   2.558   2.356 -0.4187  0.3264 -0.7528
18753TIP3   OH277673   3.521   5.633  15.044  0.4496  0.2127  0.2448
18753TIP3    H177674   3.494   5.542  15.037  0.1710  0.2332  0.9863
18753TIP3    H277675   3.602   5.630  15.095  0.0239  0.4432  0.9414
18754TIP3   OH277676   5.673   1.716   2.956  0.0191  0.7995 -0.2109
18754TIP3    H177677   5.710   1.628   2.966  2.3569  1.8426  1.1229
18754TIP3    H277678   5.602   1.719   3.021 -0.4054 -0.2520 -0.6177
18755TIP3   OH277679   5.913   0.363  14.329  0.6807  0.0247 -0.3616
18755TIP3    H177680   5.951   0.311  14.400  0.7592 -0.5526 -0.8143
18755TIP3    H277681   5.960   0.446  14.332  0.9047 -0.1137  0.0534
18756TIP3   OH277682   3.504   1.632   5.047 -0.2712 -0.4771 -0.5733
18756TIP3    H177683   3.482   1.689   4.974  1.1855 -1.5256 -1.9134
18756TIP3    H277684   3.421   1.593   5.074 -0.6085 -1.6800 -3.1056
18757TIP3   OH277685   4.633   6.601   4.623  0.3641  0.3863  0.0583
18757TIP3    H177686   4.721   6.593   4.659  0.9978 -0.9656 -1.6764
18757TIP3    H277687   4.581   6.539   4.673  0.9634 -0.5901 -0.4960
18758TIP3   OH277688   5.677   4.626   4.072 -0.5570  0.3505 -0.6372
18758TIP3    H177689   5.769   4.653   4.077 -0.2801 -0.1493 -2.3489
18758TIP3    H277690   5.630   4.704   4.046 -0.4940  0.3995 -0.6033
18759TIP3   OH277691   2.513   6.239   0.155  0.8491  0.0956  0.3013
18759TIP3    H177692   2.486   6.147   0.162  0.9567  0.0905  0.6853
18759TIP3    H277693   2.608   6.235   0.144  1.0068  0.1951  1.5159
18760TIP3   OH277694   4.229   4.515  17.322 -0.3117  0.5993  0.3064
18760TIP3    H177695   4.280   4.596  17.315 -2.2402  1.8007 -0.8263
18760TIP3    H277696   4.278   4.451  17.270  2.0042  0.5212  2.3710
18761TIP3   OH277697   3.503   5.162   6.170  0.2584  0.1078  0.7210
18761TIP3    H177698   3.585   5.211   6.177  0.1790  0.2898  0.4014
18761TIP3    H277699   3.436   5.223   6.200  0.2837 -0.1809  1.3827
18762TIP3   OH277700   3.941   3.645   7.188 -0.0629 -0.4685  0.2724
18762TIP3    H177701   3.961   3.642   7.094  0.2307 -0.7369  0.3414
18762TIP3    H277702   3.863   3.700   7.194  0.7353  0.7126  0.0107
18763TIP3   OH277703   0.387   5.736  17.031  0.0549  0.6039  0.2611
18763TIP3    H177704   0.359   5.783  16.953 -3.1736 -1.4056  0.0031
18763TIP3    H277705   0.404   5.647  17.001  2.9589  0.7390  1.2359
18764TIP3   OH277706   1.418   4.856   0.586  0.1877  0.1460 -0.3562
18764TIP3    H177707   1.501   4.808   0.588  0.7568  1.0967  0.7515
18764TIP3    H277708   1.397   4.866   0.493 -0.8201 -3.5915 -0.6753
18765TIP3   OH277709   4.581   1.250  11.781  0.1526 -0.1894  0.4395
18765TIP3    H177710   4.536   1.168  11.800 -1.7604  0.5082 -0.7848
18765TIP3    H277711   4.665   1.223  11.744  0.6068 -1.5400  2.2939
18766TIP3   OH277712   6.028   1.040  16.911 -0.3096  0.1171  0.5187
18766TIP3    H177713   6.049   1.038  17.005 -2.1993 -0.5318  0.9764
18766TIP3    H277714   6.022   1.133  16.890 -0.7020  0.2692  1.2563
18767TIP3   OH277715   4.257   6.253   3.846  0.0214 -0.3046  0.7198
18767TIP3    H177716   4.285   6.295   3.928  1.8460  0.8242 -0.4152
18767TIP3    H277717   4.289   6.164   3.852  3.8398  0.8187 -0.3545
18768TIP3   OH277718   0.303   3.044  12.864 -0.7605 -0.2396  0.4179
18768TIP3    H177719   0.214   3.025  12.894 -0.6669  1.8560  2.2986
18768TIP3    H277720   0.355   3.051  12.944  0.5750  1.0338 -0.4972
18769TIP3   OH277721   3.833   4.437  13.426 -0.2717  0.2543 -0.0410
18769TIP3    H177722   3.862   4.435  13.517 -2.3069  1.0957  0.6843
18769TIP3    H277723   3.843   4.528  13.399 -0.9156  0.2742 -0.2212
18770TIP3   OH277724   4.977   5.936  17.209  0.5973  0.2735  0.7383
18770TIP3    H177725   5.052   5.964  17.157  1.2156 -0.3173  1.3101
18770TIP3    H277726   4.904   5.935  17.146  0.4885  3.2403  0.6927
18771TIP3   OH277727   6.452   0.585  13.152 -0.1490  0.7312 -0.3369
18771TIP3    H177728   6.466   0.670  13.109 -0.8615  1.7122  1.2942
18771TIP3    H277729   6.359   0.566  13.138 -0.4283  1.1414  0.8655
18772TIP3   OH277730   3.649   0.639   1.261 -0.1825  0.4648 -0.2232
18772TIP3    H177731   3.692   0.688   1.331 -0.6819 -0.6388  0.9018
18772TIP3    H277732   3.720   0.612   1.203  0.5216 -0.2973  0.9493
18773TIP3   OH277733   5.772   1.463   1.694  0.2102  0.5490 -0.5640
18773TIP3    H177734   5.807   1.525   1.630 -1.1503  0.8392 -1.0671
18773TIP3    H277735   5.781   1.507   1.778  0.0701  1.0530 -0.8122
18774TIP3   OH277736   1.878   5.333  15.641  0.3276 -0.1288  0.1505
18774TIP3    H177737   1.913   5.402  15.698 -1.4806 -0.3095  1.5743
18774TIP3    H277738   1.822   5.281  15.699 -0.6784 -1.0153 -1.5592
18775TIP3   OH277739   6.110   3.679  16.132 -0.1421  0.5184  0.0301
18775TIP3    H177740   6.187   3.707  16.083 -0.0736 -0.7217 -0.6058
18775TIP3    H277741   6.144   3.628  16.205 -0.3514 -2.2674 -1.6726
18776TIP3   OH277742   6.366   3.937   6.486  0.5044  0.5092 -0.5639
18776TIP3    H177743   6.383   4.018   6.535  0.2050  0.5325 -0.4980
18776TIP3    H277744   6.453   3.899   6.473  0.5191 -0.0338  0.9144
18777TIP3   OH277745   3.181   2.465  11.767 -0.2182 -0.1491 -0.1210
18777TIP3    H177746   3.276   2.452  11.765 -0.1215  0.4221  0.4561
18777TIP3    H277747   3.145   2.380  11.792  0.0939 -0.5524 -1.0142
18778TIP3   OH277748   4.568   0.324   2.046  0.5878 -0.0275 -0.2331
18778TIP3    H177749   4.524   0.288   2.123  0.5828 -0.4619 -0.4311
18778TIP3    H277750   4.521   0.285   1.972  0.6807  0.2764 -0.4548
18779TIP3   OH277751   2.122   4.391  13.136 -0.1988  0.0824  0.0404
18779TIP3    H177752   2.194   4.353  13.187 -0.2595  1.1573  0.9768
18779TIP3    H277753   2.155   4.476  13.107 -1.0982  0.6078  0.5184
18780TIP3   OH277754   1.637   6.497  11.737  0.0956  0.1157  0.0707
18780TIP3    H177755   1.693   6.468  11.665  3.8727 -0.0280  2.8116
18780TIP3    H277756   1.574   6.426  11.749 -0.3344 -0.0725 -2.6215
18781TIP3   OH277757   0.078   5.661  13.799 -0.7040  0.0342  0.2838
18781TIP3    H177758   0.112   5.573  13.787 -0.5582  0.1900 -0.5026
18781TIP3    H277759  -0.017   5.649  13.809 -0.8624 -0.1247 -1.1595
18782TIP3   OH277760   0.441   1.623  12.815 -0.0161  0.8445  0.3757
18782TIP3    H177761   0.394   1.705  12.801  0.1152  0.7971 -0.3775
18782TIP3    H277762   0.378   1.568  12.862 -0.3333  1.1538  0.3216
18783TIP3   OH277763   3.618   3.593   3.889  0.5954  0.7655 -0.0964
18783TIP3    H177764   3.611   3.605   3.794 -0.4223  0.4955 -0.0671
18783TIP3    H277765   3.627   3.682   3.924  0.4809  0.9049 -0.4144
18784TIP3   OH277766   5.156   0.775  16.857  0.0898  0.0421 -0.4009
18784TIP3    H177767   5.074   0.731  16.878  0.5560 -0.4709  0.4034
18784TIP3    H277768   5.224   0.713  16.883  0.8076  1.7160  2.1067
18785TIP3   OH277769   6.378   3.618   5.126 -0.1377 -0.1822  0.3372
18785TIP3    H177770   6.317   3.561   5.079  0.7450 -0.1882 -0.8703
18785TIP3    H277771   6.322   3.677   5.177 -1.1541 -0.0667 -0.8657
18786TIP3   OH277772   3.613   5.829  11.099  0.0645  0.2343 -0.2170
18786TIP3    H177773   3.705   5.804  11.109 -0.3328 -1.0194  0.4709
18786TIP3    H277774   3.582   5.776  11.025 -0.1562  0.5369 -0.3428
18787TIP3   OH277775   1.922   3.086  16.622 -0.3398 -0.1811  0.1687
18787TIP3    H177776   1.861   3.159  16.612 -0.6797 -0.5740 -0.7285
18787TIP3    H277777   2.009   3.126  16.613 -0.5421 -0.0538 -1.7563
18788TIP3   OH277778   1.652   0.032   5.068 -0.0110 -0.2553  0.0097
18788TIP3    H177779   1.695   0.091   5.006  1.1469 -0.4843  0.5611
18788TIP3    H277780   1.647  -0.051   5.022 -1.0077  0.0809 -0.5110
18789TIP3   OH277781   0.526   5.161  12.792  0.0308  0.0235 -0.3409
18789TIP3    H177782   0.459   5.108  12.836 -1.2256  0.3181 -1.8373
18789TIP3    H277783   0.608   5.118  12.814 -0.5971 -0.2780  1.6488
18790TIP3   OH277784   4.334   2.938   2.229 -0.5358 -0.2851 -0.1168
18790TIP3    H177785   4.339   3.031   2.206 -0.3930 -0.6715 -1.7983
18790TIP3    H277786   4.267   2.933   2.298 -2.6687  0.7233 -2.0012
18791TIP3   OH277787   1.337   0.013   3.133  0.0888 -0.3931  0.0804
18791TIP3    H177788   1.359  -0.007   3.224 -0.1294 -0.0528  0.2087
18791TIP3    H277789   1.390   0.090   3.111 -1.4000  0.8165  0.5898
18792TIP3   OH277790   3.837   3.819  13.988 -0.5893  0.3073 -0.1374
18792TIP3    H177791   3.898   3.844  14.057 -1.2188  0.7152  0.2761
18792TIP3    H277792   3.814   3.728  14.008 -1.8968  0.8648  1.0524
18793TIP3   OH277793   5.286   2.907  13.690  0.1986 -0.4115  0.5882
18793TIP3    H177794   5.347   2.906  13.615 -0.2170 -0.6211  0.2504
18793TIP3    H277795   5.228   2.981  13.672  0.7420  0.1963  1.2362
18794TIP3   OH277796   1.166   6.701  16.535  0.1682  0.2700 -0.2731
18794TIP3    H177797   1.261   6.701  16.530  0.1343  0.1522 -1.1402
18794TIP3    H277798   1.144   6.617  16.576  0.3673 -0.8806 -2.3683
18795TIP3   OH277799   3.391   3.803   4.729 -0.5049 -0.0454 -0.4131
18795TIP3    H177800   3.338   3.771   4.656 -1.9500 -0.4490  0.7557
18795TIP3    H277801   3.459   3.736   4.740 -0.5452 -0.2037 -1.0770
18796TIP3   OH277802   5.783   2.684  17.095 -0.5305  0.0597 -0.6119
18796TIP3    H177803   5.796   2.625  17.020  0.1862 -0.0491 -0.4146
18796TIP3    H277804   5.762   2.768  17.055 -1.3085 -0.2629 -0.9020
18797TIP3   OH277805   4.449   5.791  16.868  0.0976 -0.6833 -0.6008
18797TIP3    H177806   4.533   5.835  16.857 -0.7056  1.1831  0.2805
18797TIP3    H277807   4.471   5.704  16.899  1.7340 -0.6816 -1.6595
18798TIP3   OH277808   4.154   6.654   5.137 -1.2944  0.3564  0.1289
18798TIP3    H177809   4.226   6.656   5.199  1.5142  1.8476 -2.8736
18798TIP3    H277810   4.102   6.731   5.159  0.4755  1.6970 -0.1872
18799TIP3   OH277811   2.100   3.006   0.775  0.2125  0.1041  0.2514
18799TIP3    H177812   2.127   3.094   0.802 -1.4527  0.2361  1.6205
18799TIP3    H277813   2.009   2.999   0.802  0.6333 -2.4879  1.2719
18800TIP3   OH277814   0.991   6.580  14.070  0.3392  0.3057 -0.1147
18800TIP3    H177815   1.043   6.587  14.150 -2.6762  0.8122  1.9288
18800TIP3    H277816   1.028   6.648  14.012  1.2727  1.3667  1.6298
18801TIP3   OH277817   4.091   5.804   2.488  0.2534 -0.3635 -0.0027
18801TIP3    H177818   4.063   5.719   2.453 -1.2105  0.5936 -1.2410
18801TIP3    H277819   4.124   5.851   2.412  1.4701  0.0503  0.7529
18802TIP3   OH277820   0.541   1.330  12.389  0.0865  0.1114 -0.4168
18802TIP3    H177821   0.520   1.348  12.297  0.5359  1.5463 -0.2744
18802TIP3    H277822   0.588   1.409  12.418  2.2231 -1.3519  0.3344
18803TIP3   OH277823   2.192   1.817   1.083  0.0026 -0.2950  0.2759
18803TIP3    H177824   2.189   1.909   1.109  0.1147 -0.3526  0.4914
18803TIP3    H277825   2.107   1.801   1.042 -0.4756 -0.4183  1.3046
18804TIP3   OH277826   0.293   2.885   2.440 -0.2714 -0.1960  0.5581
18804TIP3    H177827   0.292   2.842   2.525 -0.7506  0.9319  1.1347
18804TIP3    H277828   0.221   2.948   2.443  0.6838  0.9915 -0.0727
18805TIP3   OH277829   5.291   2.087  16.482  0.6684 -0.6010  0.2979
18805TIP3    H177830   5.306   1.996  16.510 -1.1419 -0.6485  1.2383
18805TIP3    H277831   5.351   2.099  16.408  0.7405 -2.6469 -0.0392
18806TIP3   OH277832   3.087   2.266  16.533  0.1798 -0.0129  0.9725
18806TIP3    H177833   3.175   2.241  16.562  0.3885  2.0312  2.2392
18806TIP3    H277834   3.060   2.335  16.593 -2.3143 -0.5604  0.6065
18807TIP3   OH277835   2.345   0.547  14.761  0.6147 -0.2411 -0.2973
18807TIP3    H177836   2.298   0.603  14.823 -0.2828 -1.1605 -0.1126
18807TIP3    H277837   2.299   0.463  14.765  0.2932 -0.2331 -2.4712
18808TIP3   OH277838   1.489   2.336   5.294  0.1830  0.7490 -0.7162
18808TIP3    H177839   1.533   2.328   5.378 -1.6594 -0.0573  0.2137
18808TIP3    H277840   1.555   2.308   5.230  1.6111  1.3924  0.4311
18809TIP3   OH277841   6.712   5.531   4.968  0.6900 -0.7830  0.5416
18809TIP3    H177842   6.798   5.489   4.962  1.2184 -0.1109  2.6511
18809TIP3    H277843   6.730   5.625   4.955  0.0243 -0.7888 -0.5666
18810TIP3   OH277844   3.062   1.835  12.183 -0.0670  0.9270 -0.4392
18810TIP3    H177845   3.003   1.892  12.232  1.5483  2.6326 -0.3850
18810TIP3    H277846   3.095   1.889  12.112  0.7066 -0.2783 -1.0289
18811TIP3   OH277847   2.756   3.270   4.325 -0.6241  0.0480 -0.3487
18811TIP3    H177848   2.716   3.336   4.269  1.8735  1.5076 -0.5833
18811TIP3    H277849   2.701   3.269   4.403 -0.9722  2.1507 -0.4957
18812TIP3   OH277850   4.923   6.201  17.310  0.2621  0.1052  0.1418
18812TIP3    H177851   4.885   6.116  17.288 -0.7543  0.0061  2.0565
18812TIP3    H277852   4.876   6.229  17.389  0.1734  2.7251 -0.7535
18813TIP3   OH277853   0.886   1.292  15.713  0.8094 -0.7330 -0.6386
18813TIP3    H177854   0.967   1.336  15.740  2.2161 -4.4043  1.8589
18813TIP3    H277855   0.832   1.290  15.792  0.8383 -3.3154 -0.6016
18814TIP3   OH277856   5.510   4.767  14.668  0.1341  0.5040 -0.8060
18814TIP3    H177857   5.556   4.848  14.690  1.9974 -0.9277  0.9937
18814TIP3    H277858   5.580   4.703  14.654 -1.2858 -1.0822 -0.9566
18815TIP3   OH277859   1.105   1.254   1.051 -0.1726 -0.1560 -0.5455
18815TIP3    H177860   1.052   1.312   0.997  0.1463 -1.1325 -1.9661
18815TIP3    H277861   1.053   1.174   1.057  0.1585 -0.3390 -0.0673
18816TIP3   OH277862   4.640   3.728  11.311  0.5035 -0.5319 -0.0151
18816TIP3    H177863   4.547   3.705  11.299  0.2786  0.5890 -0.5160
18816TIP3    H277864   4.638   3.802  11.372  1.2290 -1.8634  1.7123
18817TIP3   OH277865   1.738   5.458   1.060 -0.2550 -0.3114 -0.0645
18817TIP3    H177866   1.664   5.506   1.023 -0.2777  0.6631  1.2026
18817TIP3    H277867   1.703   5.371   1.080 -0.7752 -0.1870 -0.4166
18818TIP3   OH277868   5.198   2.433   4.087 -0.1904  0.0592 -0.4493
18818TIP3    H177869   5.234   2.365   4.030  1.3782  1.5704 -1.3470
18818TIP3    H277870   5.134   2.478   4.032  1.8951  2.0314 -1.3916
18819TIP3   OH277871   0.569   3.921  13.181  0.4123 -0.1914  0.4609
18819TIP3    H177872   0.556   3.984  13.252 -2.5510 -0.1493  0.0090
18819TIP3    H277873   0.502   3.854  13.196  0.1073 -0.4954 -1.9466
18820TIP3   OH277874   2.986   1.419   6.200  0.0429 -0.1250  0.1294
18820TIP3    H177875   3.015   1.416   6.109  2.3044  2.9377  0.6051
18820TIP3    H277876   3.038   1.352   6.245  1.0166  0.2868 -0.3648
18821TIP3   OH277877   1.089   3.626  12.793  0.0317 -0.2585  0.1111
18821TIP3    H177878   1.161   3.618  12.730 -0.8464  1.5346 -1.2171
18821TIP3    H277879   1.123   3.683  12.862  0.2687 -0.4123  0.1214
18822TIP3   OH277880   6.173   4.731   5.436  0.6486 -0.5159  0.3451
18822TIP3    H177881   6.121   4.653   5.417 -0.4223 -0.3810  2.4895
18822TIP3    H277882   6.154   4.790   5.362 -1.6836 -0.7851  0.6307
18823TIP3   OH277883   3.969   6.085   6.260 -0.1032 -0.3293 -0.7524
18823TIP3    H177884   4.064   6.085   6.274  0.3425 -0.9925 -3.2424
18823TIP3    H277885   3.932   6.102   6.347  2.2482 -1.0911  0.4996
18824TIP3   OH277886   1.765   0.620  12.640  0.1123 -0.2993  0.3134
18824TIP3    H177887   1.798   0.690  12.697  0.0011  0.1964 -0.2229
18824TIP3    H277888   1.703   0.572  12.695 -0.8901  0.8962  0.2782
18825TIP3   OH277889   0.317   3.810  12.992  0.0354  0.0516  0.3786
18825TIP3    H177890   0.352   3.817  13.081  1.9954  1.5091 -0.4244
18825TIP3    H277891   0.290   3.719  12.984  1.5755 -0.5895  1.8668
18826TIP3   OH277892   3.026   4.727   5.430 -0.3661 -0.2242  0.4934
18826TIP3    H177893   2.943   4.757   5.395  0.0742  0.3219 -0.0928
18826TIP3    H277894   3.079   4.706   5.353  0.2482  0.0008  0.8438
18827TIP3   OH277895   1.332   4.093   5.661  0.1830  0.5384  0.2779
18827TIP3    H177896   1.278   4.104   5.739 -0.6742 -0.1900 -0.1845
18827TIP3    H277897   1.410   4.145   5.678  0.0456  0.3322  1.6442
18828TIP3   OH277898   6.527   6.018  13.999  0.1123  0.1979 -0.7060
18828TIP3    H177899   6.483   5.948  14.046 -0.5642  1.3346  0.3967
18828TIP3    H277900   6.582   5.973  13.935  0.5827 -1.3749  0.7414
18829TIP3   OH277901   5.632   1.500   3.527  0.1783 -0.2539  0.1038
18829TIP3    H177902   5.632   1.405   3.539 -0.0644 -0.1086  1.4566
18829TIP3    H277903   5.544   1.521   3.495 -1.6367 -0.0631  4.4460
18830TIP3   OH277904   3.186   5.402   4.665 -0.0601 -0.4632  0.3838
18830TIP3    H177905   3.149   5.469   4.606 -2.1932 -2.0090 -0.1742
18830TIP3    H277906   3.168   5.435   4.753  0.2154  0.3654  0.1357
18831TIP3   OH277907   1.116   5.416   4.522  0.0137  0.6667  0.2067
18831TIP3    H177908   1.188   5.398   4.462  0.5339  0.5199  0.8603
18831TIP3    H277909   1.158   5.433   4.606 -0.6915  0.9850  0.5112
18832TIP3   OH277910   2.181   6.521  13.668  0.4983  0.2040 -0.6553
18832TIP3    H177911   2.105   6.553  13.717  0.1563 -0.1924 -0.9151
18832TIP3    H277912   2.151   6.518  13.577 -0.2305 -2.8037 -0.4515
18833TIP3   OH277913   4.942   5.027   4.977  0.0496  0.3408 -0.3177
18833TIP3    H177914   4.857   4.984   4.984 -0.2313  1.0768  1.1876
18833TIP3    H277915   4.969   5.013   4.886 -0.8418 -1.4424 -0.3467
18834TIP3   OH277916   4.855   6.524  11.379 -0.2034 -0.7203  0.3439
18834TIP3    H177917   4.901   6.603  11.352  2.0751 -2.7298 -2.3247
18834TIP3    H277918   4.814   6.547  11.462 -0.7055  3.5468 -0.8520
18835TIP3   OH277919   5.098   1.730  14.609 -0.1180  0.6027  0.3485
18835TIP3    H177920   5.011   1.758  14.637 -0.5360  0.4225 -0.7297
18835TIP3    H277921   5.082   1.654  14.553  0.7199  0.6563  0.0174
18836TIP3   OH277922   4.307   4.778   1.516  1.0795  0.1732 -0.5419
18836TIP3    H177923   4.332   4.791   1.608  2.5763 -0.0233 -0.8908
18836TIP3    H277924   4.380   4.815   1.466  1.3669 -1.7059 -1.6247
18837TIP3   OH277925   0.266   5.789  13.619  0.0766  0.1546  0.5925
18837TIP3    H177926   0.198   5.758  13.679 -0.2884  0.3535  0.2875
18837TIP3    H277927   0.341   5.734  13.637 -0.7359 -1.3245 -0.3615
18838TIP3   OH277928   1.918   2.284   5.385  0.2276  0.0376  0.2052
18838TIP3    H177929   2.002   2.326   5.403  1.2671 -1.7368 -0.2454
18838TIP3    H277930   1.899   2.306   5.293 -0.0910  0.8563  0.4528
18839TIP3   OH277931   1.408   1.031   3.891 -0.3931 -0.1532  0.4097
18839TIP3    H177932   1.425   0.961   3.828 -0.5123 -0.7007  0.9671
18839TIP3    H277933   1.335   1.080   3.853  1.0858  1.0182 -1.0359
18840TIP3   OH277934   3.775   0.454  17.125 -0.3756 -0.3186 -0.1928
18840TIP3    H177935   3.832   0.521  17.163 -0.3598 -0.3505 -0.1602
18840TIP3    H277936   3.687   0.488  17.139 -0.3367  0.1159 -0.9607
18841TIP3   OH277937   0.306   0.074  12.288 -0.4124  0.1246 -0.7345
18841TIP3    H177938   0.331   0.165  12.303 -0.2929 -0.4389  4.0597
18841TIP3    H277939   0.234   0.078  12.225 -0.2051  3.4609 -0.9140
18842TIP3   OH277940   4.066   4.575   3.572 -0.7686  0.1725 -0.6817
18842TIP3    H177941   4.138   4.637   3.584 -0.1348 -0.3219 -1.7794
18842TIP3    H277942   4.018   4.578   3.655  0.3726  0.6831 -0.0115
18843TIP3   OH277943   0.663   1.437  12.782  0.3195  0.3574 -0.1279
18843TIP3    H177944   0.643   1.344  12.785  0.3262  0.3824  1.3098
18843TIP3    H277945   0.590   1.479  12.827 -0.2744  1.1839 -1.7719
18844TIP3   OH277946   1.368   6.354   6.369 -0.3337  0.5392 -0.2537
18844TIP3    H177947   1.455   6.392   6.382 -0.0068 -0.4521  0.6070
18844TIP3    H277948   1.336   6.335   6.457  0.2647 -2.7353 -0.6048
18845TIP3   OH277949   2.140   3.000  13.552 -0.7214  0.5307 -0.4355
18845TIP3    H177950   2.194   2.959  13.485  0.2410  1.8670 -0.5255
18845TIP3    H277951   2.129   2.933  13.619  0.5618  0.0375 -0.7043
18846TIP3   OH277952   1.777   6.706  13.163 -0.4364 -0.1329  0.3641
18846TIP3    H177953   1.733   6.722  13.247 -2.0053  1.2396 -0.6567
18846TIP3    H277954   1.780   6.792  13.121 -1.3690 -1.0519 -1.7472
18847TIP3   OH277955   5.886   3.937   1.247  0.0565  0.2847 -0.1319
18847TIP3    H177956   5.872   3.844   1.265  1.5937  0.1274  0.3503
18847TIP3    H277957   5.798   3.975   1.249 -0.4445 -0.8580  1.3731
18848TIP3   OH277958   5.017   1.897  15.120  0.0492  0.0171 -0.3594
18848TIP3    H177959   5.108   1.908  15.091 -0.1668  1.3807 -0.6042
18848TIP3    H277960   4.965   1.909  15.040 -0.4031  0.6879  0.0265
18849TIP3   OH277961   3.752   4.049  15.425  0.1714 -0.1436  0.3381
18849TIP3    H177962   3.761   4.088  15.338 -0.8422  1.5957  0.9628
18849TIP3    H277963   3.738   3.956  15.408 -0.3584  0.2070 -1.3803
18850TIP3   OH277964   0.340   6.627   4.167  0.7794  0.2299  0.2779
18850TIP3    H177965   0.257   6.598   4.130  1.4575 -2.3640  0.6146
18850TIP3    H277966   0.352   6.716   4.133 -1.2637 -0.0029 -1.1889
18851TIP3   OH277967   1.771   4.453   2.928 -0.3876  0.0147  0.4510
18851TIP3    H177968   1.863   4.427   2.936 -0.1930  0.8936  1.2445
18851TIP3    H277969   1.757   4.459   2.833 -0.3006 -2.3429  0.2351
18852TIP3   OH277970   6.565   1.627   5.537 -0.0409  0.7082 -0.2228
18852TIP3    H177971   6.569   1.560   5.605  0.0894  0.8886 -0.0529
18852TIP3    H277972   6.472   1.645   5.526 -0.3303 -1.3557 -2.0878
18853TIP3   OH277973   1.353   3.748  14.670 -0.2642 -0.3756  0.0872
18853TIP3    H177974   1.363   3.841  14.690 -2.9647 -0.1423  0.7571
18853TIP3    H277975   1.422   3.705  14.719 -1.0839  1.0147  2.6281
18854TIP3   OH277976   4.072   4.444   3.326  0.2821  0.3107 -0.4177
18854TIP3    H177977   4.105   4.510   3.265 -2.8750  1.3735 -1.1867
18854TIP3    H277978   4.059   4.492   3.408 -0.8295  0.3708 -0.6111
18855TIP3   OH277979   0.265   4.623  16.134 -0.3078 -0.1985 -0.0269
18855TIP3    H177980   0.194   4.672  16.092 -0.0380  1.3055  1.1923
18855TIP3    H277981   0.337   4.625  16.070 -0.4165  0.7554 -0.1372
18856TIP3   OH277982   4.995   5.059   4.240  0.3589  0.2211  0.0686
18856TIP3    H177983   5.057   5.118   4.197  2.0811 -2.8902 -2.1057
18856TIP3    H277984   4.918   5.061   4.183  1.0859 -0.8487 -0.9957
18857TIP3   OH277985   3.395   2.250   1.430 -0.1857  0.1108 -0.2954
18857TIP3    H177986   3.449   2.272   1.506 -0.6830  0.9565 -0.1749
18857TIP3    H277987   3.316   2.303   1.441 -0.5490 -0.2604 -1.0610
18858TIP3   OH277988   0.976   5.288  14.052  0.7718 -0.4645 -0.1920
18858TIP3    H177989   1.023   5.320  13.975  2.7035 -0.3579  0.9436
18858TIP3    H277990   1.017   5.334  14.125 -1.3148 -0.2285  0.8800
18859TIP3   OH277991   2.789   4.731   1.454 -0.0564  0.8572 -0.3529
18859TIP3    H177992   2.873   4.735   1.500 -0.5739 -1.1490  0.9042
18859TIP3    H277993   2.728   4.777   1.512 -0.2432  0.3748 -0.1593
18860TIP3   OH277994   1.787   0.731  14.939  0.5931  0.6048  1.0467
18860TIP3    H177995   1.809   0.790  15.011 -0.2067  2.0534  0.1414
18860TIP3    H277996   1.835   0.765  14.864  0.2680 -0.0249  0.5390
18861TIP3   OH277997   4.043   1.554  15.613 -0.2298  0.5234 -0.2146
18861TIP3    H177998   4.059   1.479  15.556  1.0078  0.1911  0.5289
18861TIP3    H277999   4.113   1.616  15.591 -1.1963  1.4532 -0.7727
18862TIP3   OH278000   3.779   2.688  16.241 -0.0561  0.1413 -0.3367
18862TIP3    H178001   3.719   2.666  16.313  0.0412  1.0207  0.0168
18862TIP3    H278002   3.862   2.647  16.266  0.0083  0.5378  0.1109
18863TIP3   OH278003   6.410   6.354  17.076  0.6985  0.9786 -0.4443
18863TIP3    H178004   6.320   6.381  17.056  0.5721  0.0231 -1.2458
18863TIP3    H278005   6.419   6.268  17.034  0.5120 -1.1389  3.4354
18864TIP3   OH278006   6.227   3.827  13.363  0.0943 -0.1836 -0.5055
18864TIP3    H178007   6.308   3.855  13.320  0.5597 -0.1327  0.3772
18864TIP3    H278008   6.210   3.740  13.327  1.6172 -1.0309  0.7041
18865TIP3   OH278009   4.818   0.621  16.169  0.1437 -0.5659  0.2067
18865TIP3    H178010   4.818   0.685  16.240  0.0782  1.9527 -1.9021
18865TIP3    H278011   4.910   0.618  16.141 -0.3306  1.1914 -1.7732
18866TIP3   OH278012   3.720   0.673  13.469  0.1678  0.5001 -0.0156
18866TIP3    H178013   3.737   0.711  13.555 -0.9113 -2.8087  1.8354
18866TIP3    H278014   3.627   0.651  13.470  0.3648 -0.6113 -1.5835
18867TIP3   OH278015   1.468   1.252  14.139 -0.2432 -0.1655  0.1321
18867TIP3    H178016   1.548   1.266  14.190  0.1039 -0.7251 -0.2448
18867TIP3    H278017   1.497   1.203  14.062 -1.0063 -0.6952  0.1718
18868TIP3   OH278018   1.408   3.190  11.826  0.1283  0.1604 -0.0148
18868TIP3    H178019   1.356   3.269  11.812  0.2606  0.2286 -0.1309
18868TIP3    H278020   1.356   3.137  11.886  0.5113  0.7958  0.9077
18869TIP3   OH278021   1.650   6.117   0.920 -0.3819  0.6023  0.2632
18869TIP3    H178022   1.704   6.057   0.869  1.2460  0.2282  2.2574
18869TIP3    H278023   1.601   6.059   0.979 -0.4823  1.1169  0.6884
18870TIP3   OH278024   3.843   1.375   3.838  0.0963 -0.7759 -0.0018
18870TIP3    H178025   3.836   1.377   3.934 -1.7741 -0.9998 -0.1066
18870TIP3    H278026   3.846   1.467   3.812  1.2429 -0.7191  0.2941
18871TIP3   OH278027   4.163   3.979   2.428 -0.4218  0.3514 -0.5124
18871TIP3    H178028   4.201   3.898   2.462  3.2826  1.3702 -1.7200
18871TIP3    H278029   4.158   4.037   2.504 -0.5898 -0.1541 -0.1308
18872TIP3   OH278030   3.555   6.234  15.427  0.2885 -0.1372 -0.1952
18872TIP3    H178031   3.577   6.172  15.496  1.5702 -1.8219 -1.9811
18872TIP3    H278032   3.460   6.230  15.420  0.2362 -0.7773  0.7128
18873TIP3   OH278033   1.986   5.398  14.041  0.0285 -0.0028 -0.0426
18873TIP3    H178034   1.945   5.372  14.123  0.5567 -1.0711 -0.1041
18873TIP3    H278035   1.929   5.362  13.973  0.9613 -1.3915 -0.1280
18874TIP3   OH278036   1.168   4.444  14.947 -0.0419  0.4084  0.1456
18874TIP3    H178037   1.148   4.398  15.028 -0.1610  0.7221  0.2957
18874TIP3    H278038   1.262   4.432  14.935 -0.3729 -1.5505 -0.8554
18875TIP3   OH278039   0.143   1.858  13.166  0.2523  0.2787  0.1589
18875TIP3    H178040   0.063   1.866  13.218 -0.0851 -0.0496 -0.2960
18875TIP3    H278041   0.170   1.767  13.175  0.9906  0.5558  0.8922
18876TIP3   OH278042   3.515   2.070  14.112  0.0421  0.2012 -0.6967
18876TIP3    H178043   3.556   2.083  14.026  0.6540  3.8764  0.0154
18876TIP3    H278044   3.453   2.142  14.120 -1.1231 -0.9607  1.3574
18877TIP3   OH278045   1.948   5.281  16.250 -0.2780 -0.0344 -0.2180
18877TIP3    H178046   1.958   5.219  16.323 -1.6525 -0.7319 -0.5970
18877TIP3    H278047   1.980   5.364  16.285 -1.0244 -0.3220  1.2295
18878TIP3   OH278048   4.450   4.042   4.711  0.6030  0.0579  0.3002
18878TIP3    H178049   4.370   4.087   4.682  1.3041 -0.4087 -2.6300
18878TIP3    H278050   4.419   3.961   4.751 -0.4406 -1.1435 -2.6866
18879TIP3   OH278051   1.021   2.441   6.323 -0.1950  0.0061  0.6604
18879TIP3    H178052   1.051   2.352   6.344 -0.7214 -0.1425  0.8138
18879TIP3    H278053   1.078   2.498   6.374 -0.1063 -0.2677  0.8755
18880TIP3   OH278054   5.063   1.781   0.798 -0.2984 -0.0096 -0.7680
18880TIP3    H178055   5.011   1.861   0.792  1.0043  0.8759 -0.8286
18880TIP3    H278056   5.121   1.796   0.873  0.1305 -0.7875 -0.9290
18881TIP3   OH278057   1.583   0.976  12.868 -0.5314  0.2313  0.1661
18881TIP3    H178058   1.580   0.888  12.905  2.5540 -0.4173 -0.8640
18881TIP3    H278059   1.622   0.964  12.781 -2.8583  2.2968 -1.3140
18882TIP3   OH278060   3.528   1.660  15.624 -0.4435 -0.6002 -0.2628
18882TIP3    H178061   3.523   1.697  15.536  2.3660 -0.2213 -0.3552
18882TIP3    H278062   3.573   1.727  15.676 -1.0523 -1.2862  1.2098
18883TIP3   OH278063   3.993   3.590   4.369  0.3381  0.0985 -0.2121
18883TIP3    H178064   3.926   3.532   4.332  0.1002  0.4447 -0.3286
18883TIP3    H278065   3.947   3.642   4.434  0.7520 -0.4862  0.5609
18884TIP3   OH278066   5.183   1.361   2.872 -0.0658 -0.1888 -0.1215
18884TIP3    H178067   5.092   1.369   2.845  0.3672  0.0464 -1.5916
18884TIP3    H278068   5.185   1.282   2.926 -1.6100  1.2230  2.1701
18885TIP3   OH278069   2.571   5.209   3.384 -0.3463  0.5371  0.4188
18885TIP3    H178070   2.598   5.118   3.396 -0.7587  0.3355 -0.1465
18885TIP3    H278071   2.594   5.229   3.293 -1.1391  0.6874  0.2423
18886TIP3   OH278072   3.817   4.583   4.623 -0.0166 -0.0894 -0.1374
18886TIP3    H178073   3.809   4.493   4.654  3.3862  0.1189  1.8865
18886TIP3    H278074   3.775   4.582   4.537 -0.6937 -3.4374  0.0834
18887TIP3   OH278075   2.011   4.158  13.723  0.3941 -0.6576 -0.4987
18887TIP3    H178076   2.066   4.154  13.644  0.7814 -2.4706 -0.1764
18887TIP3    H278077   2.067   4.200  13.789  1.0735 -1.5920 -0.4549
18888TIP3   OH278078   5.037   3.968   6.146 -0.5765 -0.5295 -0.0370
18888TIP3    H178079   5.057   3.948   6.238 -0.5505 -2.3415 -0.3929
18888TIP3    H278080   4.944   3.992   6.146 -1.0607 -2.2743  0.2527
18889TIP3   OH278081   5.063   5.091  14.107 -0.0096  0.0330 -0.3304
18889TIP3    H178082   5.069   5.110  14.201  0.1603 -0.7794 -0.1701
18889TIP3    H278083   5.114   5.010  14.096  0.9684  0.7507 -1.3139
18890TIP3   OH278084   4.717   0.715   1.755 -0.3336  0.3981 -0.0776
18890TIP3    H178085   4.627   0.733   1.780 -0.6471  1.2297 -1.6795
18890TIP3    H278086   4.715   0.710   1.659  0.8940 -2.0514 -0.0518
18891TIP3   OH278087   1.335   0.830   1.771 -0.6657  0.1373  0.6380
18891TIP3    H178088   1.430   0.827   1.757 -0.5582 -1.3023  1.5123
18891TIP3    H278089   1.303   0.886   1.700  0.5896 -1.2912 -1.1884
18892TIP3   OH278090   2.256   3.021  15.632  0.0207 -0.1097 -0.2788
18892TIP3    H178091   2.216   3.041  15.716  0.4408  0.4301 -0.2032
18892TIP3    H278092   2.267   3.106  15.590  1.8350 -0.1469  0.0431
18893TIP3   OH278093   6.453   3.929  11.982 -0.3378 -0.3175 -0.8642
18893TIP3    H178094   6.412   3.895  12.062 -1.5834 -0.0284 -1.3471
18893TIP3    H278095   6.494   4.011  12.009 -1.0820 -0.0264 -0.5721
18894TIP3   OH278096   0.844   6.405   4.626  0.1937 -0.1342 -0.1962
18894TIP3    H178097   0.780   6.334   4.623 -0.5048  0.5279 -2.9201
18894TIP3    H278098   0.851   6.437   4.536  0.6947  3.0847  0.8304
18895TIP3   OH278099   4.919   5.044  15.770  0.1179 -0.5027  0.0797
18895TIP3    H178100   4.880   5.121  15.810 -0.4426 -2.0705  2.7717
18895TIP3    H278101   4.945   4.989  15.843  0.3371 -2.9830 -1.7253
18896TIP3   OH278102   6.693   2.411   0.175 -0.6415  0.2349  0.4017
18896TIP3    H178103   6.718   2.450   0.258 -0.2158 -1.2336  0.9951
18896TIP3    H278104   6.656   2.483   0.124 -1.7608  0.9790  2.1916
18897TIP3   OH278105   1.957   5.301  12.152 -0.5221 -0.3203 -0.0768
18897TIP3    H178106   2.050   5.320  12.168 -0.7715  0.9003  0.0375
18897TIP3    H278107   1.958   5.228  12.091  0.5104 -0.6975  0.3631
18898TIP3   OH278108   6.150   2.521  16.732 -0.2375  0.5221 -0.2403
18898TIP3    H178109   6.233   2.559  16.760  1.0383 -0.5310 -2.3367
18898TIP3    H278110   6.161   2.427  16.744 -1.4873  0.4167  0.2647
18899TIP3   OH278111   4.565   2.802  15.281  0.3095  0.5219  0.0961
18899TIP3    H178112   4.565   2.761  15.367  0.8262 -2.1372 -1.0911
18899TIP3    H278113   4.476   2.791  15.249  0.1715  1.3252  0.1799
18900TIP3   OH278114   2.992   2.300   3.411  0.4712 -0.2866  0.0247
18900TIP3    H178115   3.053   2.229   3.433 -0.5595 -0.8694  1.0985
18900TIP3    H278116   3.048   2.378   3.403  1.6258 -1.2041 -1.2057
18901TIP3   OH278117   0.863   2.122   6.293  0.6190  0.4770 -0.5083
18901TIP3    H178118   0.806   2.052   6.261  0.0235  0.4007  0.6444
18901TIP3    H278119   0.948   2.080   6.306  0.5911  0.2686 -0.9634
18902TIP3   OH278120   2.767   2.822  12.895 -0.1557 -0.3997 -0.3431
18902TIP3    H178121   2.830   2.795  12.828  0.6926  0.4499  0.0929
18902TIP3    H278122   2.803   2.903  12.931 -1.9184  0.5945 -0.6696
18903TIP3   OH278123   0.659   4.376  13.749 -0.3496 -0.2434  0.1563
18903TIP3    H178124   0.696   4.306  13.803 -1.9141 -0.6919  0.7002
18903TIP3    H278125   0.616   4.435  13.812  1.3465  1.5281 -0.2358
18904TIP3   OH278126   2.571   0.322  10.720 -0.0975  0.0130  0.6213
18904TIP3    H178127   2.573   0.399  10.776  0.1378  0.3016  0.2247
18904TIP3    H278128   2.530   0.254  10.773 -0.4458  0.4555  0.9181
18905TIP3   OH278129   0.648   3.931  13.757 -0.0646 -0.3161 -0.3879
18905TIP3    H178130   0.668   3.879  13.834 -1.1654 -0.2452 -0.0443
18905TIP3    H278131   0.553   3.939  13.757  0.0958  3.2465  0.6310
18906TIP3   OH278132   0.999   0.847   4.003  0.2610  0.3403 -0.2823
18906TIP3    H178133   1.046   0.869   4.083  0.7966  0.8371 -0.7277
18906TIP3    H278134   0.969   0.757   4.017  1.6702 -0.1255 -0.1468
18907TIP3   OH278135   1.808   6.058   2.340  0.1874  0.0893 -0.1464
18907TIP3    H178136   1.856   5.981   2.311 -0.3231 -1.6633  3.2193
18907TIP3    H278137   1.850   6.084   2.421  0.2726  3.4167 -1.0971
18908TIP3   OH278138   2.300   6.750  16.323 -0.4481  0.5219  0.4356
18908TIP3    H178139   2.381   6.800  16.319 -1.3763  2.1496  0.7603
18908TIP3    H278140   2.326   6.663  16.352  0.9572  1.6353  2.8346
18909TIP3   OH278141   4.138   2.326   4.865 -0.0020 -0.4301  0.3920
18909TIP3    H178142   4.156   2.416   4.839  0.7903 -0.9853 -1.0755
18909TIP3    H278143   4.203   2.274   4.819 -0.3520 -1.7543  1.3306
18910TIP3   OH278144   1.372   6.253  10.931  0.5480  0.2617  0.1704
18910TIP3    H178145   1.309   6.245  11.002 -1.6880  2.2455 -1.4258
18910TIP3    H278146   1.353   6.179  10.874  1.3201 -0.4679  0.8263
18911TIP3   OH278147   6.432   2.004   5.707  0.4312 -0.5019  0.1650
18911TIP3    H178148   6.365   2.012   5.775  0.2042  0.6236 -0.1813
18911TIP3    H278149   6.385   2.015   5.625  0.7120 -1.8081 -0.1970
18912TIP3   OH278150   5.529   0.845  12.820  0.3589  0.1123  0.8285
18912TIP3    H178151   5.600   0.903  12.850  2.0784 -1.8822  0.8365
18912TIP3    H278152   5.526   0.776  12.885 -0.8682 -0.4346  0.2161
18913TIP3   OH278153   4.982   5.049   2.413 -0.5876  0.3565 -0.4289
18913TIP3    H178154   4.888   5.040   2.427 -0.5173  1.0614  0.5831
18913TIP3    H278155   5.015   5.087   2.494  0.7029 -0.6370 -0.4530
18914TIP3   OH278156   4.672   1.733   5.529  0.0386 -0.1387  0.3731
18914TIP3    H178157   4.622   1.769   5.456 -1.2406 -2.3275  0.0918
18914TIP3    H278158   4.755   1.705   5.490  0.2329  0.6457  0.2092
18915TIP3   OH278159   5.177   0.131  14.735 -0.0626  0.0962 -0.0654
18915TIP3    H178160   5.240   0.085  14.680 -1.0795 -0.4090 -0.8515
18915TIP3    H278161   5.224   0.151  14.816  0.6087 -1.7348  0.0222
18916TIP3   OH278162   3.915   3.401  12.184  0.7988 -0.3770 -0.3432
18916TIP3    H178163   3.896   3.393  12.277  0.4942 -1.3423 -0.4862
18916TIP3    H278164   4.011   3.392  12.179  0.7149 -1.3722 -0.2295
18917TIP3   OH278165   2.193   1.779  13.212 -0.0219 -0.5647 -0.1451
18917TIP3    H178166   2.253   1.717  13.172  0.4517 -0.0796 -0.2053
18917TIP3    H278167   2.190   1.753  13.304 -0.7864 -1.4241 -0.4112
18918TIP3   OH278168   2.676   0.919   2.765 -0.1771 -0.2042 -0.3988
18918TIP3    H178169   2.770   0.918   2.785 -0.3863 -0.1060  0.6816
18918TIP3    H278170   2.671   0.949   2.675  0.7179  2.4597  0.3417
18919TIP3   OH278171   3.085   3.239  15.846 -0.2525  0.4083 -0.1914
18919TIP3    H178172   2.998   3.261  15.814 -0.6004  1.0196  1.1149
18919TIP3    H278173   3.078   3.148  15.876 -1.3202  1.3365  2.6667
18920TIP3   OH278174   4.539   1.198  13.797  0.3562  0.0152 -0.1369
18920TIP3    H178175   4.595   1.137  13.845 -0.4073 -2.2654 -1.9767
18920TIP3    H278176   4.453   1.188  13.838  0.0046 -0.9627 -1.0555
18921TIP3   OH278177   2.125   0.343   3.088  0.0347 -0.3321  0.6273
18921TIP3    H178178   2.046   0.366   3.138 -0.3957  0.7132 -0.4958
18921TIP3    H278179   2.190   0.407   3.115 -0.6584  1.2568 -1.2285
18922TIP3   OH278180   6.202   2.644   2.024 -1.1512  0.0445  0.0275
18922TIP3    H178181   6.113   2.680   2.019 -0.9826  0.4400 -0.1655
18922TIP3    H278182   6.195   2.569   2.083 -1.3182  0.9626  1.1979
18923TIP3   OH278183   2.497   5.266  14.052  0.1025  0.7801  0.1752
18923TIP3    H178184   2.501   5.185  14.001 -2.8063  1.2154 -0.9660
18923TIP3    H278185   2.455   5.329  13.994  0.1021  2.4072  1.8457
18924TIP3   OH278186   3.516   1.313   1.815 -0.2974 -0.1782 -0.2766
18924TIP3    H178187   3.595   1.365   1.803 -0.2458  0.1393  1.2766
18924TIP3    H278188   3.545   1.233   1.859 -0.5894 -0.9125 -1.3688
18925TIP3   OH278189   3.195   4.107  14.238 -0.0930  0.1243  0.0647
18925TIP3    H178190   3.287   4.112  14.265  0.4136 -1.8486 -1.0147
18925TIP3    H278191   3.147   4.159  14.302  1.7260  0.8236  0.9228
18926TIP3   OH278192   2.433   4.847  14.590 -0.5751  0.7748 -0.0156
18926TIP3    H178193   2.406   4.774  14.533  0.7585 -0.4284  0.8440
18926TIP3    H278194   2.385   4.833  14.671 -2.6670  2.6328 -0.8076
18927TIP3   OH278195   1.071   2.366  14.360  0.2931  0.7100  0.4388
18927TIP3    H178196   1.138   2.298  14.359 -0.7234 -0.3310 -0.2780
18927TIP3    H278197   0.999   2.329  14.411 -0.0895  1.4367  0.4462
18928TIP3   OH278198   1.148   2.335  12.484 -0.7034 -0.2431  0.1077
18928TIP3    H178199   1.084   2.354  12.553 -0.3742  0.4951  0.2189
18928TIP3    H278200   1.095   2.326  12.405 -0.9152  0.9109  0.0954
18929TIP3   OH278201   0.601   6.415   3.930 -0.1726  0.4989 -0.1607
18929TIP3    H178202   0.606   6.491   3.987 -0.6998  1.3416 -1.2152
18929TIP3    H278203   0.630   6.446   3.845  2.4423 -1.1779 -0.0057
18930TIP3   OH278204   0.638   0.450  13.917 -0.2253 -0.3341 -0.4131
18930TIP3    H178205   0.579   0.467  13.844  0.3283 -0.2154 -0.8462
18930TIP3    H278206   0.590   0.478  13.994 -0.5439  0.2327 -0.8059
18931TIP3   OH278207   4.215   0.257   0.097 -0.4556 -0.3819 -0.4390
18931TIP3    H178208   4.175   0.341   0.120 -0.6309  0.5441 -3.5918
18931TIP3    H278209   4.143   0.195   0.094 -1.0329  0.3241 -2.0030
18932TIP3   OH278210   6.233   3.834  17.279  0.0593 -0.0086 -0.4445
18932TIP3    H178211   6.243   3.866  17.369  2.2903 -2.1128  0.1836
18932TIP3    H278212   6.178   3.756  17.288  0.5392 -0.3972 -0.8308
18933TIP3   OH278213   2.781   2.425  13.531 -0.1246 -0.1489  0.1573
18933TIP3    H178214   2.717   2.388  13.469 -0.2949 -0.3908  0.4746
18933TIP3    H278215   2.755   2.517  13.541 -0.1382 -0.1268 -0.0769
18934TIP3   OH278216   4.054   5.775  14.605  0.9309 -0.7087 -0.2020
18934TIP3    H178217   3.996   5.710  14.645 -1.2250  0.2730 -1.5226
18934TIP3    H278218   4.060   5.749  14.513  0.9446  0.2974 -0.5049
18935TIP3   OH278219   1.325   6.700  11.498 -0.7066  0.3574  0.4153
18935TIP3    H178220   1.408   6.747  11.485  0.1749 -0.6889  1.9585
18935TIP3    H278221   1.269   6.732  11.428  0.6918  1.7947 -0.1230
18936TIP3   OH278222   3.902   4.846  14.043  0.0409 -0.5441 -0.5112
18936TIP3    H178223   3.934   4.858  14.132 -0.9895 -0.3697 -0.1472
18936TIP3    H278224   3.981   4.833  13.991  0.8893  2.3347 -0.0825
18937TIP3   OH278225   2.833   0.577  12.804  0.8209  0.1536 -0.2839
18937TIP3    H178226   2.873   0.654  12.845 -2.4813  1.6437  0.4422
18937TIP3    H278227   2.824   0.601  12.711  2.1404 -0.4756 -0.5984
18938TIP3   OH278228   6.471   6.677   5.362 -0.6867  0.4206 -0.6654
18938TIP3    H178229   6.440   6.748   5.417  0.7137 -0.0131  0.7610
18938TIP3    H278230   6.558   6.705   5.332 -0.7680 -0.0325 -1.3590
18939TIP3   OH278231   4.588   0.224   5.289 -0.3363 -0.1855 -0.2430
18939TIP3    H178232   4.626   0.151   5.337 -1.6450 -0.7850 -0.0520
18939TIP3    H278233   4.548   0.279   5.357  0.0410  0.3520 -0.4448
18940TIP3   OH278234   1.750   1.374  13.834 -0.0722 -0.1511 -0.5819
18940TIP3    H178235   1.661   1.408  13.845 -0.0718 -0.4569  0.4707
18940TIP3    H278236   1.738   1.289  13.790 -0.2939 -0.1784 -0.4699
18941TIP3   OH278237   2.816   3.011   1.874  0.2710  0.0851 -0.0556
18941TIP3    H178238   2.882   2.943   1.890 -0.0514  0.2548  2.4550
18941TIP3    H278239   2.734   2.962   1.866  0.3191  0.0554 -0.3836
18942TIP3   OH278240   6.663   4.327  11.162  0.0571 -0.1858 -0.8547
18942TIP3    H178241   6.722   4.384  11.114 -0.1420  0.6088 -0.1829
18942TIP3    H278242   6.648   4.372  11.245 -1.0012 -0.6705 -0.7610
18943TIP3   OH278243   4.217   1.785  15.611 -0.3345  0.5093  0.2691
18943TIP3    H178244   4.242   1.862  15.662  2.0669  1.9868 -2.7961
18943TIP3    H278245   4.282   1.781  15.540 -1.1848 -3.5756 -0.5294
18944TIP3   OH278246   6.141   3.098   4.646  0.4064  0.0486  0.1973
18944TIP3    H178247   6.221   3.054   4.617 -0.0878 -1.0792  0.5059
18944TIP3    H278248   6.140   3.086   4.741 -1.3628 -2.1438 -0.0225
18945TIP3   OH278249   1.442   6.089   3.227 -0.4460  0.5005 -0.2265
18945TIP3    H178250   1.405   6.016   3.176  0.1338  0.4717 -0.6182
18945TIP3    H278251   1.371   6.114   3.287 -0.8657  0.0145 -0.5021
18946TIP3   OH278252   6.759   6.648  14.481  0.0685 -0.5679  0.7249
18946TIP3    H178253   6.740   6.730  14.435  1.5323 -0.8141 -0.3895
18946TIP3    H278254   6.685   6.636  14.540 -3.6616 -1.7868 -3.6382
18947TIP3   OH278255   0.779   1.166   2.677 -0.0513  0.5977 -0.2000
18947TIP3    H178256   0.727   1.187   2.600 -0.3264  0.2494 -0.1140
18947TIP3    H278257   0.725   1.195   2.751 -0.5175 -0.5441 -0.0731
18948TIP3   OH278258   0.769   6.685  15.925  0.1504 -0.2589 -0.0079
18948TIP3    H178259   0.847   6.662  15.975  1.1056  1.2197 -0.7472
18948TIP3    H278260   0.803   6.713  15.839 -0.9550  2.4979  0.3620
18949TIP3   OH278261   5.112   0.987   1.943 -0.0157  0.3573  0.5198
18949TIP3    H178262   5.081   0.928   1.873  1.8612  1.8301 -1.6992
18949TIP3    H278263   5.200   1.013   1.915  1.4009  0.0352  4.1459
18950TIP3   OH278264   6.133   0.605  12.075 -0.2098 -0.1062  0.0693
18950TIP3    H178265   6.157   0.550  12.149 -1.3476 -0.2605  0.3535
18950TIP3    H278266   6.079   0.548  12.020 -2.1907  0.9160  0.8333
18951TIP3   OH278267   1.621   3.788   3.295  0.0693  0.4074 -0.2682
18951TIP3    H178268   1.589   3.743   3.216 -1.0230  2.8186 -1.2950
18951TIP3    H278269   1.656   3.871   3.263  2.1511  0.3175  1.5321
18952TIP3   OH278270   5.448   0.138   1.713 -0.1101  0.1727 -0.1521
18952TIP3    H178271   5.426   0.047   1.695 -2.5946  0.3203  1.7427
18952TIP3    H278272   5.430   0.183   1.630 -1.6622 -0.6229 -0.2750
18953TIP3   OH278273   4.831   1.934  15.967  0.3632 -0.4083 -0.1242
18953TIP3    H178274   4.783   1.856  15.997 -0.8960  0.6386  0.7143
18953TIP3    H278275   4.829   1.993  16.042  2.5477 -0.0893 -0.2585
18954TIP3   OH278276   3.262   3.720   5.350  0.4124  0.2485  0.3178
18954TIP3    H178277   3.184   3.672   5.322 -0.4182  1.2206  0.9126
18954TIP3    H278278   3.323   3.712   5.277 -0.9905  1.1659 -0.9965
18955TIP3   OH278279   2.361   4.072   1.315  0.0640 -0.4094 -0.2549
18955TIP3    H178280   2.410   4.064   1.234  0.9880 -1.4344  0.3781
18955TIP3    H278281   2.357   4.166   1.333 -1.0145 -0.0855 -1.9733
18956TIP3   OH278282   5.817   2.992  14.985 -0.1721 -0.4579 -0.2425
18956TIP3    H178283   5.822   2.897  14.986  0.3495 -0.4284  0.4982
18956TIP3    H278284   5.887   3.021  15.043  0.5762  0.4323 -1.5347
18957TIP3   OH278285   2.822   3.128  14.662  0.0952 -0.8450  0.0031
18957TIP3    H178286   2.880   3.199  14.632 -2.1925  1.3193  0.3782
18957TIP3    H278287   2.865   3.094  14.740 -0.1612  2.3447  1.7062
18958TIP3   OH278288   0.513   0.048   6.193 -0.1037 -0.1686 -0.3634
18958TIP3    H178289   0.457   0.087   6.260 -0.9810 -2.0042  0.0414
18958TIP3    H278290   0.456  -0.016   6.149  0.4537  0.9356 -2.8646
18959TIP3   OH278291   2.030   1.713   5.646  0.4266  0.5462  0.0332
18959TIP3    H178292   2.062   1.787   5.697 -0.5802  0.7010  0.4641
18959TIP3    H278293   2.019   1.747   5.557 -2.0946  1.5931  0.6457
18960TIP3   OH278294   1.304   0.046   0.290 -0.0063 -0.0184 -0.5169
18960TIP3    H178295   1.297   0.028   0.383  1.4298 -0.0032 -0.3825
18960TIP3    H278296   1.286   0.140   0.283 -0.6014 -0.1159 -0.3244
18961TIP3   OH278297   6.007   1.269   2.595 -0.1150  0.1589  0.1588
18961TIP3    H178298   5.991   1.175   2.607 -1.2279  0.2625 -0.4009
18961TIP3    H278299   5.965   1.310   2.670 -2.2515  0.3986 -1.0871
18962TIP3   OH278300   6.340   4.716  15.729  0.0113  0.5623  0.6106
18962TIP3    H178301   6.275   4.751  15.669  1.1121 -2.0679 -2.3993
18962TIP3    H278302   6.289   4.663  15.791 -1.2191  3.9297  2.7631
18963TIP3   OH278303   2.831   1.063  12.429 -0.0339  0.3240 -0.1785
18963TIP3    H178304   2.814   1.081  12.522  1.5366  0.7124  0.0589
18963TIP3    H278305   2.784   1.132  12.382  0.3253  0.9808  0.4077
18964TIP3   OH278306   6.050   5.227   3.923 -0.5236 -0.2142 -0.1290
18964TIP3    H178307   6.023   5.319   3.927 -1.3019 -0.3646 -1.5570
18964TIP3    H278308   5.980   5.183   3.876 -1.1358 -1.9461  2.2023
18965TIP3   OH278309   6.327   2.941  10.705 -0.6409 -0.0596  0.0971
18965TIP3    H178310   6.373   2.951  10.789  0.4307  0.6483 -0.5495
18965TIP3    H278311   6.380   2.877  10.657  0.2884  1.4955 -1.0437
18966TIP3   OH278312   3.552   5.497  13.176 -0.0266  0.5954 -0.0978
18966TIP3    H178313   3.490   5.522  13.244 -1.8544 -0.9771 -1.0666
18966TIP3    H278314   3.629   5.466  13.223  0.1000  2.5972  1.1495
18967TIP3   OH278315   0.945   2.077   3.505  0.5747 -0.2638  0.3374
18967TIP3    H178316   1.034   2.062   3.535  0.1531 -1.8610  0.8391
18967TIP3    H278317   0.894   2.007   3.544 -0.9155  0.6252  0.0559
18968TIP3   OH278318   2.639   3.536   5.852  0.4359 -0.1808  0.1769
18968TIP3    H178319   2.622   3.479   5.777  1.8329 -0.4951  0.0701
18968TIP3    H278320   2.572   3.513   5.916 -1.0270  0.3712 -1.1034
18969TIP3   OH278321   1.499   1.653   2.950  0.5292 -0.1687  0.3873
18969TIP3    H178322   1.474   1.707   2.875  1.1949 -0.6706 -0.2013
18969TIP3    H278323   1.567   1.703   2.994  1.8406 -0.9233 -0.7039
18970TIP3   OH278324   6.160   0.981  11.587 -0.0622  0.0246 -0.0587
18970TIP3    H178325   6.194   0.898  11.556 -0.7474 -0.7649  1.2241
18970TIP3    H278326   6.109   0.959  11.665 -0.5547  1.5976  0.1077
18971TIP3   OH278327   5.057   0.275  14.495  0.6169  0.2037  0.1336
18971TIP3    H178328   5.003   0.269  14.574  0.6807 -1.0053  0.1125
18971TIP3    H278329   5.140   0.233  14.520 -0.0785 -2.1275 -1.1186
18972TIP3   OH278330   0.729   5.842  16.894 -0.1813 -0.2327  0.2686
18972TIP3    H178331   0.796   5.901  16.861 -0.0348 -1.0002 -0.8485
18972TIP3    H278332   0.647   5.876  16.858 -0.6346  1.4538  2.6412
18973TIP3   OH278333   0.658   4.099   0.978 -0.3672  0.0435  0.0790
18973TIP3    H178334   0.654   4.194   0.964  1.4718  0.3809  1.3794
18973TIP3    H278335   0.626   4.086   1.067  0.1017 -0.4610  0.1798
18974TIP3   OH278336   6.437   0.402  15.547 -0.4646  0.2042  0.0357
18974TIP3    H178337   6.461   0.459  15.620 -1.3921 -0.6713  1.0613
18974TIP3    H278338   6.385   0.459  15.490  1.6479  1.3615 -0.8559
18975TIP3   OH278339   6.732   1.510   6.690  0.4115 -0.3894 -0.0751
18975TIP3    H178340   6.754   1.602   6.704 -1.2195 -0.0862  0.6760
18975TIP3    H278341   6.710   1.504   6.597 -1.7876  0.5390  0.3274
18976TIP3   OH278342   3.144   0.337  12.497  0.2124  0.3846 -0.2273
18976TIP3    H178343   3.211   0.387  12.452  1.3531 -1.4402 -0.6703
18976TIP3    H278344   3.098   0.290  12.427  0.3927 -0.5801  0.2814
18977TIP3   OH278345   5.104   2.284  12.906 -0.7327  0.3475  1.1559
18977TIP3    H178346   5.148   2.350  12.853  0.2014 -0.9928  0.2311
18977TIP3    H278347   5.014   2.282  12.872 -0.4441  0.3011  0.3771
18978TIP3   OH278348   6.525   3.321  13.996  0.0339  0.1200  0.3721
18978TIP3    H178349   6.611   3.310  14.036 -0.1925 -0.3912  0.7183
18978TIP3    H278350   6.463   3.291  14.062 -0.2768 -2.4622 -0.9436
18979TIP3   OH278351   2.773   1.830   2.156  0.1415 -0.3800  0.1486
18979TIP3    H178352   2.859   1.819   2.198  0.1147  1.5465  0.8018
18979TIP3    H278353   2.757   1.746   2.112  2.3102 -0.8210  0.0778
18980TIP3   OH278354   2.102   1.146   1.511  0.2377 -0.4248  0.2655
18980TIP3    H178355   2.090   1.112   1.422  0.7066 -0.6410  0.2823
18980TIP3    H278356   2.107   1.068   1.566  0.3938 -0.3029  0.4244
18981TIP3   OH278357   5.821   2.911  16.966 -0.2029 -0.4133  0.6135
18981TIP3    H178358   5.870   2.878  16.891  1.5438 -1.4600  2.1348
18981TIP3    H278359   5.870   2.989  16.994  0.1487 -0.9965  1.6622
18982TIP3   OH278360   3.102   2.595   2.584 -0.0471 -0.6453 -0.4641
18982TIP3    H178361   3.061   2.587   2.497 -0.0112  0.5552 -0.6087
18982TIP3    H278362   3.035   2.637   2.638  1.1973  2.0905 -0.9114
18983TIP3   OH278363   6.768   4.341   0.826 -0.3898  0.3151 -0.2457
18983TIP3    H178364   6.825   4.358   0.751  1.6159 -2.0388  0.6298
18983TIP3    H278365   6.827   4.338   0.901 -1.9950  0.0298  1.0702
18984TIP3   OH278366   3.404   2.972   0.718 -0.4911 -0.3683 -0.0940
18984TIP3    H178367   3.344   2.947   0.788  0.0290 -0.2338  0.4023
18984TIP3    H278368   3.388   2.907   0.649 -0.6214 -0.8263  0.3623
18985TIP3   OH278369   5.489   6.021   1.721 -0.1994  0.0548  0.1853
18985TIP3    H178370   5.545   5.979   1.786  2.0257  1.5074 -0.6940
18985TIP3    H278371   5.411   5.965   1.717  1.3705 -2.3553  1.1182
18986TIP3   OH278372   4.456   1.885  13.241 -0.3899 -0.0782 -0.4808
18986TIP3    H178373   4.504   1.826  13.183 -1.5893 -0.3679 -1.2008
18986TIP3    H278374   4.448   1.835  13.323 -1.8058 -1.1562 -1.2315
18987TIP3   OH278375   6.107   5.127  15.117  0.0659 -0.0403  0.7398
18987TIP3    H178376   6.057   5.209  15.114  1.2276  0.6734 -0.9531
18987TIP3    H278377   6.192   5.150  15.080  0.5555 -1.9303  0.5855
18988TIP3   OH278378   3.453   3.442   3.386  0.2523 -0.3592  0.1928
18988TIP3    H178379   3.475   3.382   3.314 -0.0748 -1.5511  1.0462
18988TIP3    H278380   3.411   3.516   3.343 -0.1058 -1.1289 -0.8493
18989TIP3   OH278381   2.471   2.766  16.417  0.4456  0.1637  0.2857
18989TIP3    H178382   2.437   2.822  16.347  0.5734 -0.6930 -0.4976
18989TIP3    H278383   2.545   2.814  16.453  1.9561 -0.4018 -1.8488
18990TIP3   OH278384   4.684   0.533   3.177  0.7074 -0.1799  1.0523
18990TIP3    H178385   4.734   0.517   3.257  2.2685 -1.2828 -0.0703
18990TIP3    H278386   4.599   0.491   3.192  0.8836 -0.1519  2.2036
18991TIP3   OH278387   3.266   5.424  15.685  0.1175  0.2937 -0.8731
18991TIP3    H178388   3.182   5.397  15.647  0.7944 -1.5473 -1.1725
18991TIP3    H278389   3.244   5.497  15.742 -1.9837 -1.1437  0.3220
18992TIP3   OH278390   1.320   0.127  13.974 -0.3104 -0.5056 -1.0708
18992TIP3    H178391   1.319   0.144  14.069  1.4411 -1.7342 -0.7771
18992TIP3    H278392   1.279   0.041  13.965  1.3054 -1.3171 -1.1425
18993TIP3   OH278393   0.249   6.269  15.554 -0.7159 -0.0218 -0.0040
18993TIP3    H178394   0.323   6.275  15.614 -0.0761  3.9012 -0.8791
18993TIP3    H278395   0.273   6.202  15.491  1.3110 -0.0600  0.7477
18994TIP3   OH278396   5.755   1.315  14.920  0.2574 -0.2373 -0.0461
18994TIP3    H178397   5.751   1.249  14.851  1.9444  0.2398 -0.6498
18994TIP3    H278398   5.672   1.361  14.915 -0.2308 -1.1749 -0.7716
18995TIP3   OH278399   1.542   0.449   0.191 -0.4661  0.0999 -0.0303
18995TIP3    H178400   1.553   0.528   0.244 -0.7624 -1.5166  2.6264
18995TIP3    H278401   1.452   0.421   0.209  0.0112 -1.4708  0.0838
18996TIP3   OH278402   2.290   6.775   3.398  0.2383  0.6187  0.2273
18996TIP3    H178403   2.321   6.837   3.332 -0.4333  0.8282  0.1010
18996TIP3    H278404   2.231   6.716   3.351  3.0096 -1.9483 -0.3005
18997TIP3   OH278405   6.480   5.131  10.916  0.0550 -0.1934  0.6637
18997TIP3    H178406   6.530   5.171  10.846  1.4362 -0.0416  1.7042
18997TIP3    H278407   6.421   5.071  10.871 -1.5805  2.3680 -0.8972
18998TIP3   OH278408   5.007   2.626   6.120 -0.0446 -0.9819 -0.4814
18998TIP3    H178409   4.925   2.671   6.103  0.2118 -0.2389  0.2083
18998TIP3    H278410   4.983   2.551   6.174 -0.2748 -0.8299 -0.3740
18999TIP3   OH278411   0.461   2.816  17.023  0.2381 -0.1704  0.3790
18999TIP3    H178412   0.483   2.827  16.931 -2.1458 -0.6033 -0.3003
18999TIP3    H278413   0.425   2.900  17.050 -0.4220 -0.4778  0.4849
19000TIP3   OH278414   2.182   1.832  16.458 -0.3483 -0.1341  0.6411
19000TIP3    H178415   2.222   1.755  16.496 -0.9112 -0.5821  0.3466
19000TIP3    H278416   2.142   1.801  16.377 -1.5696  0.2065  1.0813
19001TIP3   OH278417   3.662   1.637  14.758 -0.1965 -0.8075 -0.1576
19001TIP3    H178418   3.610   1.685  14.822 -1.2251  0.6075 -1.9334
19001TIP3    H278419   3.603   1.625  14.683  1.2336 -1.5126 -1.2246
19002TIP3   OH278420   0.054   1.300   1.391 -0.1292  0.5940 -0.1923
19002TIP3    H178421  -0.013   1.366   1.373 -0.4225  0.2924 -0.2250
19002TIP3    H278422   0.031   1.266   1.477  0.3548  0.9332  0.0751
19003TIP3   OH278423   4.840   3.235  12.488  0.2437  0.5060 -0.1359
19003TIP3    H178424   4.932   3.240  12.461  0.5509 -1.6077  0.3394
19003TIP3    H278425   4.840   3.176  12.563 -1.5507  0.1553 -0.3635
19004TIP3   OH278426   5.436   5.889   0.436  0.4469  0.1194  0.5220
19004TIP3    H178427   5.369   5.874   0.502 -1.3481 -0.7349 -1.3663
19004TIP3    H278428   5.494   5.813   0.443  0.4783  0.2102  1.3199
19005TIP3   OH278429   6.572   6.043   6.455  0.1618  0.5723 -0.3592
19005TIP3    H178430   6.635   6.030   6.526  0.0099 -0.2756 -0.3599
19005TIP3    H278431   6.524   5.960   6.452 -1.8616  1.6691  0.5115
19006TIP3   OH278432   1.431   6.546   0.684 -0.5914  0.8018  0.0696
19006TIP3    H178433   1.438   6.551   0.779  1.6560 -2.0491  0.2199
19006TIP3    H278434   1.448   6.635   0.653 -0.7503  1.6613  2.3069
19007TIP3   OH278435   0.981   4.994  15.842  0.5037  0.0051 -0.7142
19007TIP3    H178436   1.061   5.038  15.815 -0.3786  1.4218 -1.1094
19007TIP3    H278437   1.003   4.901  15.841  1.6455  0.2607 -2.4766
19008TIP3   OH278438   4.605   2.449  14.270  0.4153 -0.9239  0.0228
19008TIP3    H178439   4.601   2.541  14.246 -1.1937 -1.0749 -0.4296
19008TIP3    H278440   4.691   2.438  14.310  0.8655  0.6322 -0.4493
19009TIP3   OH278441   4.835   0.815  11.858 -0.2137  0.3988 -0.0466
19009TIP3    H178442   4.757   0.797  11.806 -1.0435  1.3159  0.8371
19009TIP3    H278443   4.812   0.891  11.910  0.8602 -0.0203  1.0907
19010TIP3   OH278444   2.391   0.088   4.951  0.4829 -0.7018 -0.5455
19010TIP3    H178445   2.393  -0.008   4.949  0.7062 -0.6958 -0.6638
19010TIP3    H278446   2.474   0.113   4.990  0.5457 -0.5496 -0.7734
19011TIP3   OH278447   5.846   6.054   1.877 -0.6904  0.7191 -0.0352
19011TIP3    H178448   5.771   5.995   1.890 -1.4900  1.7634  0.2396
19011TIP3    H278449   5.914   5.998   1.840 -1.2108 -0.5091  0.7810
19012TIP3   OH278450   0.804   4.994  15.635 -0.4158 -0.3728  0.3223
19012TIP3    H178451   0.869   4.997  15.705 -1.2747  1.9151  1.1202
19012TIP3    H278452   0.749   4.918  15.655 -0.9566  0.5302  2.4729
19013TIP3   OH278453   0.273   0.739  16.663 -0.3886 -0.1099  0.7523
19013TIP3    H178454   0.181   0.751  16.640  0.1037  3.0365  0.0127
19013TIP3    H278455   0.277   0.756  16.757 -0.3718  1.3946  0.4983
19014TIP3   OH278456   5.331   5.896  12.128  0.0088  0.0810 -0.1569
19014TIP3    H178457   5.339   5.824  12.190 -1.2501 -0.1287 -0.2128
19014TIP3    H278458   5.254   5.875  12.076  1.2592  0.0412 -2.1056
19015TIP3   OH278459   1.486   1.806   2.461 -0.4039 -0.0006  0.7703
19015TIP3    H178460   1.457   1.893   2.432 -0.4388 -0.1754  0.2749
19015TIP3    H278461   1.561   1.824   2.518  0.6686  0.2792 -0.6746
19016TIP3   OH278462   3.167   0.266   2.142 -0.6970  0.4874  0.0459
19016TIP3    H178463   3.176   0.288   2.235 -1.1472 -1.5033  0.6030
19016TIP3    H278464   3.244   0.214   2.122 -0.6784  0.7796 -0.6732
19017TIP3   OH278465   1.158   2.922  15.743  0.1412 -1.2156 -0.3176
19017TIP3    H178466   1.123   2.893  15.659  1.4942 -2.7732 -0.3866
19017TIP3    H278467   1.089   2.903  15.806 -0.2508 -1.5768 -0.8456
19018TIP3   OH278468   1.571   5.098   3.578 -0.3900  0.3450 -0.7716
19018TIP3    H178469   1.662   5.068   3.576 -0.7586 -1.5235  2.5145
19018TIP3    H278470   1.576   5.188   3.608  0.3971 -0.4933  1.8585
19019TIP3   OH278471   2.029   5.454   3.287  0.0537  0.2714  0.3416
19019TIP3    H178472   2.055   5.507   3.362 -0.0287  1.0771 -0.1761
19019TIP3    H278473   1.977   5.514   3.233  0.0934 -0.2980 -0.3413
19020TIP3   OH278474   0.708   5.439  11.408  0.2822  0.0079 -0.5143
19020TIP3    H178475   0.763   5.516  11.421  1.6938 -1.1170  0.5572
19020TIP3    H278476   0.715   5.420  11.314 -0.3660  1.3394 -0.8619
19021TIP3   OH278477   2.365   3.075  11.737  0.6214  0.1835 -0.0895
19021TIP3    H178478   2.273   3.051  11.745  0.5455  0.2499 -0.7166
19021TIP3    H278479   2.369   3.166  11.765  0.7636 -0.2709  1.4437
19022TIP3   OH278480   3.759   2.091   3.921 -0.5225 -0.1566 -0.1897
19022TIP3    H178481   3.815   2.144   3.979  0.2083 -0.7513 -0.3322
19022TIP3    H278482   3.786   2.115   3.833 -1.1038  0.1892 -0.2761
19023TIP3   OH278483   4.765   3.728  14.100  0.2826 -0.1070  0.0580
19023TIP3    H178484   4.716   3.787  14.043  2.5296  0.8103 -1.0377
19023TIP3    H278485   4.813   3.785  14.160  0.2215 -0.9523  0.9395
19024TIP3   OH278486   2.291   2.702   5.493 -0.0049 -0.8346  0.4056
19024TIP3    H178487   2.336   2.630   5.536  1.8944  0.3782  0.5801
19024TIP3    H278488   2.250   2.751   5.564  1.7039  0.2077  0.7349
19025TIP3   OH278489   1.549   1.427   4.645 -0.0818 -0.5161  0.1922
19025TIP3    H178490   1.483   1.398   4.707 -0.5998  0.1827 -0.0206
19025TIP3    H278491   1.527   1.518   4.627  1.1035 -0.1755  0.3352
19026TIP3   OH278492   5.875   0.230   4.942  0.4035  0.2070 -0.4546
19026TIP3    H178493   5.839   0.164   5.002 -0.0645 -0.1606 -1.1283
19026TIP3    H278494   5.970   0.228   4.959  0.3036 -0.0352  0.1249
19027TIP3   OH278495   2.009   5.215   3.443 -0.1238  0.4073 -0.4297
19027TIP3    H178496   1.922   5.253   3.458  0.4194  2.1158 -1.4431
19027TIP3    H278497   2.061   5.285   3.405  2.0313 -0.2828  1.0430
19028TIP3   OH278498   3.121   4.141   0.091 -0.4708  0.2587 -0.4461
19028TIP3    H178499   3.069   4.063   0.108  0.1435 -0.3131 -1.1360
19028TIP3    H278500   3.076   4.184   0.018 -0.3308  0.0870 -0.6364
19029TIP3   OH278501   2.377   5.556   3.705  0.0561 -0.3388 -0.8862
19029TIP3    H178502   2.307   5.582   3.765 -1.6305  0.5618 -3.0932
19029TIP3    H278503   2.350   5.472   3.670  0.7889 -0.6469 -0.7274
19030TIP3   OH278504   0.143   3.717  14.763  0.7067  0.1916  0.4630
19030TIP3    H178505   0.175   3.802  14.792  1.5624 -0.8953  2.9168
19030TIP3    H278506   0.060   3.705  14.810 -0.1648  0.2336 -0.9820
19031TIP3   OH278507   4.447   5.801   2.543  0.3516 -0.4743 -0.3628
19031TIP3    H178508   4.388   5.779   2.615  1.0044 -0.6636  0.1252
19031TIP3    H278509   4.533   5.769   2.572  0.5571 -0.8765 -1.3769
19032TIP3   OH278510   1.420   1.907  15.783 -0.0576  0.2428  0.5916
19032TIP3    H178511   1.358   1.895  15.856 -0.8165  0.8861  0.0709
19032TIP3    H278512   1.406   1.830  15.727  1.1515 -0.7091  1.5393
19033TIP3   OH278513   4.150   3.273   5.853  0.3195  0.0210  0.3003
19033TIP3    H178514   4.222   3.282   5.790 -0.4788  1.5539 -0.4237
19033TIP3    H278515   4.084   3.336   5.824 -3.4635 -4.3845 -1.8777
19034TIP3   OH278516   5.576   0.626   3.912  0.0688 -0.2141  0.0861
19034TIP3    H178517   5.632   0.682   3.859  0.7911  0.3946  1.4468
19034TIP3    H278518   5.618   0.623   3.998 -2.1351  0.5202  1.2708
19035TIP3   OH278519   2.485   3.872  15.027  0.3177 -0.0844 -0.4153
19035TIP3    H178520   2.577   3.874  14.999  0.4287 -2.6167 -0.4504
19035TIP3    H278521   2.444   3.806  14.971 -0.8755 -0.9242  1.3600
19036TIP3   OH278522   3.198   6.090   1.931 -0.0949  0.4082  0.9475
19036TIP3    H178523   3.277   6.040   1.951 -0.1159  0.1066  0.2982
19036TIP3    H278524   3.223   6.148   1.860 -0.0504  1.3999  1.7411
19037TIP3   OH278525   5.007   3.102  14.873 -0.4405 -0.1993 -0.5641
19037TIP3    H178526   5.033   3.125  14.962 -1.1553 -0.3712 -0.3048
19037TIP3    H278527   4.957   3.177  14.842  0.8458  0.3856 -1.2804
19038TIP3   OH278528   1.568   6.336   4.904 -0.1802  0.4922 -0.2428
19038TIP3    H178529   1.566   6.240   4.906 -0.9026  0.4324 -2.1554
19038TIP3    H278530   1.479   6.361   4.880 -0.6586  1.7952  2.4793
19039TIP3   OH278531   5.519   6.485  11.149 -0.8034 -0.5549 -0.2288
19039TIP3    H178532   5.575   6.508  11.074 -1.1886 -0.7820 -0.5946
19039TIP3    H278533   5.553   6.402  11.180 -0.7200 -0.5216 -0.2304
19040TIP3   OH278534   6.091   6.562  10.994 -0.0529 -0.1279 -0.2543
19040TIP3    H178535   6.160   6.620  11.025  0.8467 -0.1321 -2.1312
19040TIP3    H278536   6.120   6.474  11.019 -1.9610  0.1423  3.6214
19041TIP3   OH278537   5.060   3.438   1.405 -0.1663  0.3741 -0.0213
19041TIP3    H178538   5.006   3.373   1.360 -0.0237  0.2286  0.0131
19041TIP3    H278539   5.137   3.388   1.434 -0.4905  0.3570  0.8276
19042TIP3   OH278540   6.674   3.662  13.514 -0.6897  0.3873  0.0224
19042TIP3    H178541   6.675   3.744  13.564 -1.5055  0.1440  0.4654
19042TIP3    H278542   6.590   3.621  13.537  0.2793 -1.2243  0.8739
19043TIP3   OH278543   0.488   5.954  16.183  0.8541 -0.5295  0.0819
19043TIP3    H178544   0.474   5.859  16.174 -0.9724 -0.2957  0.0389
19043TIP3    H278545   0.555   5.975  16.118  1.0631 -1.7481 -0.1201
19044TIP3   OH278546   1.022   2.001   5.441  0.0139  0.0869 -0.5040
19044TIP3    H178547   0.946   2.041   5.484  0.7999  0.1392  0.8703
19044TIP3    H278548   1.040   2.059   5.366 -1.2540  0.0958 -0.8304
19045TIP3   OH278549   5.107   2.023  12.689 -0.1012 -0.0197 -0.4047
19045TIP3    H178550   5.020   2.005  12.726  0.0437 -0.0777 -0.0895
19045TIP3    H278551   5.166   2.021  12.764 -0.4972  5.5702  0.4401
19046TIP3   OH278552   1.678   0.426  13.854 -0.6449  0.4438 -0.3015
19046TIP3    H178553   1.669   0.372  13.933 -0.9258 -1.3935 -1.5451
19046TIP3    H278554   1.770   0.453  13.855 -0.0596 -1.4450 -0.4907
19047TIP3   OH278555   4.886   3.332   0.492  0.0281 -0.4892 -0.0832
19047TIP3    H178556   4.871   3.294   0.578  1.2104 -0.3371  0.2085
19047TIP3    H278557   4.830   3.409   0.489  0.4487 -0.1466  0.7907
19048TIP3   OH278558   1.238   3.347   5.728  0.0058  1.2462 -0.0754
19048TIP3    H178559   1.185   3.280   5.686  1.4207  0.8256 -1.2632
19048TIP3    H278560   1.177   3.392   5.787 -0.9556 -1.1442  0.8826
19049TIP3   OH278561   1.644   3.335   2.701 -0.0192 -0.0521  0.3149
19049TIP3    H178562   1.618   3.265   2.761 -1.7391 -0.7854 -1.2052
19049TIP3    H278563   1.634   3.297   2.614 -0.1311  1.8131 -0.5256
19050TIP3   OH278564   5.595   4.149   4.145  1.5473  0.5371 -0.7464
19050TIP3    H178565   5.634   4.075   4.191 -0.0828 -0.4260 -0.8259
19050TIP3    H278566   5.566   4.113   4.061 -0.3460  0.9386 -0.3096
19051TIP3   OH278567   6.291   5.279   0.895 -0.3058 -0.0591 -0.8916
19051TIP3    H178568   6.269   5.338   0.967 -0.7457  2.1651 -2.7421
19051TIP3    H278569   6.208   5.240   0.870  0.0984 -2.2386  0.8581
19052TIP3   OH278570   6.320   5.347   6.073 -0.2341 -0.0997  0.0171
19052TIP3    H178571   6.372   5.404   6.129 -0.2118 -0.2443  0.1436
19052TIP3    H278572   6.255   5.308   6.131  0.8662 -1.5747  0.3136
19053TIP3   OH278573   2.657   6.553  14.000  0.3618 -0.2838  0.2891
19053TIP3    H178574   2.590   6.484  13.996  0.7335 -0.8688  2.6730
19053TIP3    H278575   2.637   6.602  14.080  1.2668  1.1730 -0.3360
19054TIP3   OH278576   0.362   0.884  15.068 -0.5675  0.2807 -0.5101
19054TIP3    H178577   0.381   0.939  15.144 -1.8103  2.6152 -1.7821
19054TIP3    H278578   0.407   0.927  14.995 -1.8442 -0.1930 -1.6145
19055TIP3   OH278579   6.602   5.432  12.311 -0.5433 -0.4940  0.5541
19055TIP3    H178580   6.686   5.423  12.357 -0.6441 -0.5030  0.7391
19055TIP3    H278581   6.594   5.526  12.293 -1.5661 -0.1358  2.6019
19056TIP3   OH278582   4.108   0.810  13.010 -0.4090  0.1745  0.2430
19056TIP3    H178583   4.016   0.836  13.012 -0.3588  0.5663 -1.3953
19056TIP3    H278584   4.108   0.720  13.042 -1.0471  0.8732  2.3916
19057TIP3   OH278585   3.780   6.669  16.859  0.0704  0.2115  0.2117
19057TIP3    H178586   3.802   6.630  16.944  0.8019 -0.3932 -0.2448
19057TIP3    H278587   3.859   6.715  16.832  0.2537 -0.5881 -0.6785
19058TIP3   OH278588   4.399   4.312   5.396 -0.6512 -0.3880  0.2067
19058TIP3    H178589   4.380   4.274   5.482  0.4021  1.2859  1.2353
19058TIP3    H278590   4.341   4.388   5.389 -0.3211 -0.1771 -0.3177
19059TIP3   OH278591   2.059   3.104   1.850  0.0623  0.1803 -0.1858
19059TIP3    H178592   2.082   3.188   1.889  0.9610  0.4966 -1.3301
19059TIP3    H278593   2.018   3.127   1.767 -2.0574 -0.4646  0.6304
19060TIP3   OH278594   4.732   2.966   5.308  0.0072 -0.0763 -0.0454
19060TIP3    H178595   4.761   2.997   5.393  1.6548  0.4688 -0.7710
19060TIP3    H278596   4.675   2.891   5.328  2.0184 -1.3183  1.4804
19061TIP3   OH278597   4.817   4.450  11.569  0.8779 -1.0290  0.3990
19061TIP3    H178598   4.832   4.530  11.619 -0.0406 -0.1016 -0.7501
19061TIP3    H278599   4.885   4.451  11.501  0.5103 -0.9039  0.0254
19062TIP3   OH278600   3.732   6.640  11.658  0.3351 -0.4190  0.0395
19062TIP3    H178601   3.823   6.663  11.679  0.1255  1.0661 -0.5594
19062TIP3    H278602   3.702   6.712  11.602 -1.0368 -1.1827 -0.2336
19063TIP3   OH278603   1.248   2.157   4.463 -0.1432  0.4352 -0.4011
19063TIP3    H178604   1.162   2.152   4.421 -0.7105  0.8835  0.6663
19063TIP3    H278605   1.262   2.250   4.479  0.5466  0.3648 -0.5537
19064TIP3   OH278606   1.325   3.531  15.302  0.3729 -0.7801 -0.2607
19064TIP3    H178607   1.391   3.525  15.233 -0.5037 -0.7984 -1.1214
19064TIP3    H278608   1.371   3.507  15.382  1.8678  0.9633 -0.5295
19065TIP3   OH278609   3.891   5.592  14.754  0.0926 -0.1394  0.0299
19065TIP3    H178610   3.815   5.536  14.769  0.8383 -1.3952 -0.7197
19065TIP3    H278611   3.964   5.531  14.745  1.0839  1.0119  0.0593
19066TIP3   OH278612   6.329   6.319   5.718 -0.0103 -0.0986 -0.4796
19066TIP3    H178613   6.360   6.230   5.734  0.4474  0.0909 -0.2859
19066TIP3    H278614   6.400   6.375   5.751  0.1518  0.3246 -1.4908
19067TIP3   OH278615   3.811   6.716  14.469 -0.0624 -0.0998 -0.4894
19067TIP3    H178616   3.855   6.688  14.549  3.9110  3.4767 -1.1061
19067TIP3    H278617   3.758   6.791  14.496 -1.4697 -0.9469 -0.7615
19068TIP3   OH278618   2.745   6.667  11.500  0.6402 -0.4571 -0.2904
19068TIP3    H178619   2.801   6.596  11.468  0.6151 -0.2679 -0.7704
19068TIP3    H278620   2.797   6.746  11.486  0.7330 -0.3921  0.3939
19069TIP3   OH278621   1.288   5.653  14.339  0.2000  0.1252 -0.0150
19069TIP3    H178622   1.350   5.717  14.306 -1.9666  1.4508 -1.8413
19069TIP3    H278623   1.277   5.675  14.431  1.7234  0.4149  0.1153
19070TIP3   OH278624   5.650   3.831   5.463 -0.0558  0.5593  0.0481
19070TIP3    H178625   5.578   3.850   5.523 -1.1477  0.6120 -1.2408
19070TIP3    H278626   5.665   3.737   5.473 -0.1857  0.5763  0.4439
19071TIP3   OH278627   6.131   6.350  15.917  0.4147  0.0960 -0.1701
19071TIP3    H178628   6.191   6.334  15.990  0.5694  1.9210  0.1515
19071TIP3    H278629   6.159   6.434  15.881 -0.9158  0.1898 -1.0655
19072TIP3   OH278630   6.731   4.128  12.713  0.2441  0.3930 -0.5360
19072TIP3    H178631   6.782   4.199  12.675  1.8185 -0.3431  0.1201
19072TIP3    H278632   6.710   4.158  12.801  1.0401 -0.0113 -0.2062
19073TIP3   OH278633   5.575   1.036  14.204  0.4324 -0.0459 -0.1375
19073TIP3    H178634   5.558   0.952  14.246  1.7310  0.2866  1.0796
19073TIP3    H278635   5.669   1.036  14.186  0.1520  0.4099 -1.8020
19074TIP3   OH278636   0.354   0.883   4.250 -0.1668  0.2733  0.5763
19074TIP3    H178637   0.417   0.873   4.321  2.7433  1.2509 -1.6503
19074TIP3    H278638   0.358   0.800   4.202 -1.3352 -0.0066  0.9318
19075TIP3   OH278639   2.208   1.219  13.377  0.0237 -0.6040 -0.4781
19075TIP3    H178640   2.181   1.203  13.467  1.7220 -1.4561 -0.0860
19075TIP3    H278641   2.303   1.229  13.381 -0.0544  1.3309 -1.9149
19076TIP3   OH278642   5.331   5.805   3.381 -0.4078 -0.3284 -0.2392
19076TIP3    H178643   5.331   5.901   3.390 -0.1984 -0.4756  1.5985
19076TIP3    H278644   5.287   5.790   3.297  1.9025  1.4544 -1.9235
19077TIP3   OH278645   1.967   6.273  16.978  0.7377  0.0319  0.3192
19077TIP3    H178646   1.970   6.320  16.895  0.3528  1.4957  1.1125
19077TIP3    H278647   1.874   6.259  16.995  0.7975  0.1104  0.7150
19078TIP3   OH278648   1.362   5.590  14.935  0.1525  0.5128 -0.1589
19078TIP3    H178649   1.413   5.669  14.916  0.3214  0.5183  0.3261
19078TIP3    H278650   1.395   5.525  14.873  3.7305 -0.7778  2.7588
19079TIP3   OH278651   3.210   5.525  14.614  0.0033  0.2682  0.3260
19079TIP3    H178652   3.256   5.543  14.532 -0.5570 -0.5629 -0.1686
19079TIP3    H278653   3.271   5.470  14.663 -0.3352 -0.5935 -0.2117
19080TIP3   OH278654   3.184   2.394   1.532  0.7498 -0.0854  0.1246
19080TIP3    H178655   3.106   2.339   1.533  0.9880 -0.4220  1.2857
19080TIP3    H278656   3.151   2.482   1.549  0.4863 -0.0278 -0.6693
19081TIP3   OH278657   2.420   2.747  15.625 -0.1143 -0.0868 -0.0919
19081TIP3    H178658   2.462   2.772  15.707 -0.4842  0.0792  0.0485
19081TIP3    H278659   2.358   2.818  15.608 -1.2670 -0.9614  0.3669
19082TIP3   OH278660   0.781   5.971   2.552  0.7044 -0.2582 -0.3941
19082TIP3    H178661   0.732   6.052   2.566 -0.6014 -0.8883 -1.0393
19082TIP3    H278662   0.821   5.982   2.466 -0.6860 -0.8304 -1.1543
19083TIP3   OH278663   3.936   0.913  14.360 -0.1171  0.2662 -0.3010
19083TIP3    H178664   4.028   0.887  14.358 -0.1133  0.3332 -1.1545
19083TIP3    H278665   3.930   0.983  14.295 -0.2134  2.1085  1.5842
19084TIP3   OH278666   2.995   1.820  15.258  0.1146 -0.3358  0.2611
19084TIP3    H178667   2.908   1.785  15.238 -0.3655  0.5479  0.7138
19084TIP3    H278668   3.037   1.832  15.173 -2.0517  3.8227 -0.5158
19085TIP3   OH278669   6.273   0.209   3.812  0.1951 -0.2143  0.3945
19085TIP3    H178670   6.187   0.199   3.853 -1.7339  0.3456 -3.1173
19085TIP3    H278671   6.302   0.120   3.793 -0.8500 -0.3577 -0.6225
19086TIP3   OH278672   0.640   5.879   4.553 -0.4180  0.7251 -0.3771
19086TIP3    H178673   0.688   5.852   4.474 -0.4259  0.0275 -0.1449
19086TIP3    H278674   0.552   5.841   4.542  0.4335 -2.0658  1.3712
19087TIP3   OH278675   6.381   4.993  14.107 -0.8381 -0.3918 -0.2434
19087TIP3    H178676   6.370   4.978  14.201 -0.0904 -0.7090 -0.1991
19087TIP3    H278677   6.421   5.080  14.101 -0.3668 -0.6069 -0.2383
19088TIP3   OH278678   5.583   2.439   3.415 -0.4804 -0.8980 -0.7596
19088TIP3    H178679   5.515   2.485   3.366 -1.6826 -1.5283  0.2742
19088TIP3    H278680   5.546   2.353   3.433  1.0897 -1.7170 -1.2250
19089TIP3   OH278681   6.424   1.701   2.434 -0.9003 -0.2221  0.0097
19089TIP3    H178682   6.464   1.779   2.471 -1.1148 -0.7142  1.3141
19089TIP3    H278683   6.346   1.685   2.487 -0.3618 -1.8504  0.3842
19090TIP3   OH278684   4.058   5.229  13.876 -0.1040  0.1340 -0.4065
19090TIP3    H178685   4.067   5.143  13.835 -0.4721  0.5881 -1.4571
19090TIP3    H278686   4.009   5.212  13.956  1.0157 -0.8311  0.1075
19091TIP3   OH278687   0.237   3.293  13.576  0.4241  0.5213 -0.1231
19091TIP3    H178688   0.281   3.280  13.660  0.8765 -1.0937 -0.5745
19091TIP3    H278689   0.146   3.272  13.593  0.2438  1.5232  0.2511
19092TIP3   OH278690   2.220   6.153   2.554 -1.0848 -0.1987  0.0666
19092TIP3    H178691   2.249   6.224   2.611  0.4193 -0.7545  0.0565
19092TIP3    H278692   2.292   6.142   2.492 -1.9924 -0.6766 -0.9389
19093TIP3   OH278693   4.993   1.895  12.059 -0.8743  0.5119 -0.3101
19093TIP3    H178694   5.042   1.880  12.141 -2.0207  1.3063  0.5488
19093TIP3    H278695   5.007   1.987  12.039  0.5141  0.0287 -1.8012
19094TIP3   OH278696   4.881   6.540   5.361  0.7890  0.1049  0.2171
19094TIP3    H178697   4.838   6.618   5.398  0.8556 -0.3527  1.2882
19094TIP3    H278698   4.826   6.467   5.389  1.8236 -0.4127  0.9287
19095TIP3   OH278699   0.846   1.621  12.924 -0.5951 -0.5865 -0.4234
19095TIP3    H178700   0.908   1.605  12.996 -3.1884  0.1692  2.1799
19095TIP3    H278701   0.858   1.548  12.864  1.9757 -1.0468  0.5384
19096TIP3   OH278702   5.825   1.768  12.849  0.3758 -0.0178 -0.3065
19096TIP3    H178703   5.908   1.744  12.888 -0.7253  0.8632  2.8711
19096TIP3    H278704   5.841   1.854  12.809  0.6722  0.9064  1.6925
19097TIP3   OH278705   2.462   2.031   4.972  0.4185 -0.3546  0.4948
19097TIP3    H178706   2.469   1.940   4.941 -2.2127 -0.0871 -1.1841
19097TIP3    H278707   2.380   2.033   5.021 -1.3952  1.7018 -2.2909
19098TIP3   OH278708   0.555   0.980   5.361  0.2579 -0.0850  0.2433
19098TIP3    H178709   0.492   1.026   5.417  1.1564  0.0472  1.1866
19098TIP3    H278710   0.615   0.938   5.423  1.3346  0.1456 -0.6197
19099TIP3   OH278711   5.997   6.608  15.928  0.0470  0.1832 -0.1231
19099TIP3    H178712   6.050   6.638  16.002  1.0835 -1.1947 -0.2816
19099TIP3    H278713   6.058   6.603  15.855 -0.7662  0.5793 -0.8443
19100TIP3   OH278714   1.483   4.750   1.801 -0.3845  0.4383 -0.0326
19100TIP3    H178715   1.395   4.764   1.767 -0.3096  0.6788 -0.1250
19100TIP3    H278716   1.508   4.665   1.766 -2.1175 -1.5964  3.1472
19101TIP3   OH278717   6.571   1.079   2.845 -0.2179  0.2397  0.5644
19101TIP3    H178718   6.478   1.074   2.866 -0.4714  0.3404 -0.4691
19101TIP3    H278719   6.597   0.988   2.831 -0.5445  0.3227 -0.6738
19102TIP3   OH278720   5.415   2.417  14.414 -0.6796 -0.1484  0.4017
19102TIP3    H178721   5.391   2.510  14.411  0.9008  0.2584 -0.9847
19102TIP3    H278722   5.389   2.383  14.329 -0.0762 -0.6695  0.4213
19103TIP3   OH278723   0.288   3.169  13.829 -0.0696  0.3617  0.7633
19103TIP3    H178724   0.262   3.141  13.917 -1.2333  0.3093  0.4164
19103TIP3    H278725   0.367   3.221  13.843 -1.1949  1.8181  2.0422
19104TIP3   OH278726   6.185   2.833   1.631 -0.3113 -0.2247 -0.2782
19104TIP3    H178727   6.214   2.742   1.637 -0.6857 -0.2640  1.3999
19104TIP3    H278728   6.200   2.868   1.719 -3.1169  0.4157  0.0103
19105TIP3   OH278729   4.150   2.221   2.674  0.4149  0.2292 -0.2056
19105TIP3    H178730   4.224   2.181   2.629  0.0186 -0.8646  0.0688
19105TIP3    H278731   4.146   2.175   2.758  0.0070  0.9418  0.1770
19106TIP3   OH278732   0.523   6.659  12.993  0.0588 -0.2096 -0.3066
19106TIP3    H178733   0.466   6.710  12.936 -3.1141 -0.9275  1.9714
19106TIP3    H278734   0.543   6.717  13.066  2.2314 -0.0533 -0.9369
19107TIP3   OH278735   4.224   4.751   0.991  0.2702  0.3324 -0.3598
19107TIP3    H178736   4.211   4.768   0.898  1.9895  1.4001 -0.4515
19107TIP3    H278737   4.198   4.659   1.003 -0.7417  0.4197 -1.7113
19108TIP3   OH278738   0.322   1.909  10.647  0.0543 -0.4564  0.0261
19108TIP3    H178739   0.278   1.980  10.600 -0.3601  0.2746  1.4491
19108TIP3    H278740   0.312   1.932  10.740 -0.1763 -2.4229  0.5383
19109TIP3   OH278741   0.837   4.480  14.010  0.9549  0.4299 -0.3900
19109TIP3    H178742   0.744   4.472  13.986  0.7424 -0.3293  0.6086
19109TIP3    H278743   0.873   4.543  13.947 -0.8548  2.9428  0.9407
19110TIP3   OH278744   5.498   0.360  15.813 -0.1573  0.3537 -0.2313
19110TIP3    H178745   5.547   0.312  15.746 -1.2535 -0.4820 -0.4571
19110TIP3    H278746   5.508   0.308  15.892  1.2591  1.4176  0.3348
19111TIP3   OH278747   6.069   3.761  15.792 -0.2975 -0.0315  0.0541
19111TIP3    H178748   6.105   3.809  15.717 -1.0914  1.1868  0.4411
19111TIP3    H278749   6.146   3.733  15.841  0.1918  0.5130 -0.3811
19112TIP3   OH278750   3.797   2.705  10.793  0.1384 -0.4725  0.3257
19112TIP3    H178751   3.870   2.747  10.838  0.9731 -1.8592  0.2940
19112TIP3    H278752   3.756   2.776  10.743  0.8274  0.5262  1.1410
19113TIP3   OH278753   0.879   0.630   1.151 -0.3015 -0.1157  0.0305
19113TIP3    H178754   0.929   0.647   1.071 -0.6405 -0.8242 -0.3407
19113TIP3    H278755   0.788   0.645   1.126 -0.4245 -0.5081  0.2361
19114TIP3   OH278756   4.694   2.241   2.829  0.1786  0.0123  0.2107
19114TIP3    H178757   4.772   2.222   2.776  0.3498 -0.4771  0.6335
19114TIP3    H278758   4.705   2.188   2.908 -0.4328  0.1827  0.4139
19115TIP3   OH278759   5.637   6.337  11.869 -0.0487  0.4751  0.0936
19115TIP3    H178760   5.662   6.282  11.943  1.5633 -0.3874 -1.0223
19115TIP3    H278761   5.633   6.277  11.794  0.0848  1.5929 -0.8474
19116TIP3   OH278762   3.219   3.448  16.768 -0.5414  0.2760  0.7959
19116TIP3    H178763   3.300   3.481  16.728 -0.7212 -1.9734 -1.5963
19116TIP3    H278764   3.179   3.526  16.807 -0.2856  2.7738 -3.3358
19117TIP3   OH278765   6.199   6.655  10.617 -0.4948  0.0531  0.4983
19117TIP3    H178766   6.120   6.622  10.659 -0.9611 -1.0368 -1.1644
19117TIP3    H278767   6.171   6.683  10.530  0.7486  0.7149  0.2857
19118TIP3   OH278768   2.542   3.638  11.540 -1.3842  0.4144  0.2072
19118TIP3    H178769   2.572   3.647  11.630  0.0948 -1.5610 -0.0206
19118TIP3    H278770   2.524   3.728  11.512  1.7024  1.5402  1.3222
19119TIP3   OH278771   4.681   0.348  15.281 -0.2460 -0.4842 -0.5448
19119TIP3    H178772   4.633   0.430  15.268 -0.4519  0.1603  3.0993
19119TIP3    H278773   4.766   0.364  15.241 -1.3331  0.2539 -2.7033
19120TIP3   OH278774   6.153   5.599  11.894  0.3483 -0.3677  0.6251
19120TIP3    H178775   6.148   5.666  11.963 -2.3022  0.3186 -0.1263
19120TIP3    H278776   6.213   5.533  11.930 -0.6777  0.0918  3.5001
19121TIP3   OH278777   4.858   1.634   5.350 -0.2894 -0.6911  0.4634
19121TIP3    H178778   4.810   1.570   5.296 -0.2576  1.2911 -2.1372
19121TIP3    H278779   4.897   1.694   5.286  0.8778  1.1019  2.7239
19122TIP3   OH278780   3.138   1.886   4.232 -0.8459 -0.4869 -0.1657
19122TIP3    H178781   3.085   1.869   4.155 -0.5852  0.9579 -0.6961
19122TIP3    H278782   3.228   1.894   4.199 -0.1818 -3.2322  0.7581
19123TIP3   OH278783   5.532   2.497   3.891  0.1281  0.7015 -0.3462
19123TIP3    H178784   5.449   2.458   3.916  0.6072 -0.7220 -0.8942
19123TIP3    H278785   5.596   2.427   3.903  1.6186  2.3009  1.9803
19124TIP3   OH278786   4.567   6.180   3.192  0.5165  0.5236  0.7949
19124TIP3    H178787   4.655   6.144   3.200 -0.1767 -1.0732  1.6543
19124TIP3    H278788   4.513   6.128   3.252 -0.9928  1.5616  0.4210
19125TIP3   OH278789   2.341   1.555  16.253 -0.4241  0.8383 -0.3665
19125TIP3    H178790   2.409   1.494  16.282  0.0514  2.0590  1.2192
19125TIP3    H278791   2.309   1.595  16.334 -3.6772 -0.2973 -0.9164
19126TIP3   OH278792   5.384   6.245   2.899  0.5906  0.5306 -0.2357
19126TIP3    H178793   5.360   6.332   2.869 -0.0262  0.7167  0.7341
19126TIP3    H278794   5.479   6.247   2.907  0.5197  1.4055  0.5904
19127TIP3   OH278795   0.638   2.072  11.991  0.7849 -0.1154 -0.5205
19127TIP3    H178796   0.664   2.161  12.015  3.6710 -0.9481 -0.1820
19127TIP3    H278797   0.547   2.081  11.962 -0.0860  2.4022  2.4170
19128TIP3   OH278798   5.543   4.034   2.157  0.5408  0.2475 -0.0433
19128TIP3    H178799   5.553   4.103   2.091  1.0562  0.5799  0.3739
19128TIP3    H278800   5.449   4.028   2.172  0.5356  1.3888  0.4624
19129TIP3   OH278801   3.390   2.190  11.055 -0.0801 -0.1978  0.1691
19129TIP3    H178802   3.410   2.120  10.993  1.6211  0.2857  0.1259
19129TIP3    H278803   3.339   2.148  11.124 -2.2905 -0.6873 -1.6536
19130TIP3   OH278804   3.773   1.623   4.815  0.2975 -0.2193  0.4070
19130TIP3    H178805   3.745   1.532   4.817  0.9429 -0.4069  1.6394
19130TIP3    H278806   3.793   1.645   4.906  2.1120  0.5139 -0.1190
19131TIP3   OH278807   1.157   5.434   5.951 -0.0715 -0.1274  0.1617
19131TIP3    H178808   1.106   5.451   6.031 -1.6168 -0.0357 -0.7974
19131TIP3    H278809   1.149   5.339   5.938  0.9611 -0.2813  0.6132
19132TIP3   OH278810   1.197   2.803   5.125 -0.3810  0.1790 -0.0629
19132TIP3    H178811   1.235   2.730   5.174 -0.4254  1.0684  1.3778
19132TIP3    H278812   1.235   2.796   5.037  2.1902  0.3052  0.9553
19133TIP3   OH278813   4.203   2.278  11.385 -0.3680 -0.1920 -0.2281
19133TIP3    H178814   4.178   2.191  11.416 -2.2478  0.1848 -0.5830
19133TIP3    H278815   4.241   2.262  11.298  1.5482 -0.8604  0.6710
19134TIP3   OH278816   0.158   5.488  14.965  0.1796 -1.1471  0.0169
19134TIP3    H178817   0.159   5.542  14.885 -1.1077  0.6169  1.1190
19134TIP3    H278818   0.250   5.482  14.991  0.3230  1.3573  0.3345
19135TIP3   OH278819   4.364   4.307   4.154  0.3067 -0.2704 -0.5691
19135TIP3    H178820   4.284   4.327   4.203 -0.1212 -2.3598 -0.2961
19135TIP3    H278821   4.425   4.277   4.221  1.6344  1.9877 -0.6781
19136TIP3   OH278822   1.255   1.559  13.981 -0.0256  0.2885 -0.1635
19136TIP3    H178823   1.267   1.519  14.067 -1.4526 -1.1991 -0.6094
19136TIP3    H278824   1.165   1.594  13.982 -0.3842 -0.5312 -1.3250
19137TIP3   OH278825   4.682   0.045   2.640  0.1683  0.2492 -0.6149
19137TIP3    H178826   4.735   0.108   2.690  0.6979  0.7907 -1.8222
19137TIP3    H278827   4.657   0.093   2.561 -1.4423 -0.2791 -0.4551
19138TIP3   OH278828   0.145   6.504  16.683  0.0738  0.1128 -0.2765
19138TIP3    H178829   0.111   6.468  16.765 -0.0377 -0.0523 -0.3959
19138TIP3    H278830   0.236   6.475  16.680  0.4119  1.0607  0.3350
19139TIP3   OH278831   3.432   5.375  16.650  0.2022  0.4373  0.3879
19139TIP3    H178832   3.379   5.391  16.572  1.4729 -0.5036 -0.7265
19139TIP3    H278833   3.514   5.338  16.616  0.5354 -0.6386  2.2061
19140TIP3   OH278834   5.577   5.629   1.067 -0.1940 -0.0469  0.7950
19140TIP3    H178835   5.653   5.687   1.056 -2.3276  2.5932 -1.6760
19140TIP3    H278836   5.605   5.546   1.029  1.3087  1.0832 -0.7617
19141TIP3   OH278837   5.297   1.958   1.076 -0.3889  0.5470 -0.1765
19141TIP3    H178838   5.262   1.922   1.157 -2.1893  0.3581 -1.0019
19141TIP3    H278839   5.273   2.051   1.079  0.9929  0.9254  0.2268
19142TIP3   OH278840   6.751   4.361   2.593 -0.0859  0.1347  0.4459
19142TIP3    H178841   6.832   4.335   2.549 -0.2333  1.1257 -0.4610
19142TIP3    H278842   6.745   4.304   2.670  0.4544 -1.2723 -0.5302
19143TIP3   OH278843   0.627   5.573  14.756  0.2407 -0.0416 -0.1828
19143TIP3    H178844   0.679   5.653  14.757  0.9518 -0.5028  0.2656
19143TIP3    H278845   0.655   5.526  14.678 -1.3502  0.8759 -1.3822
19144TIP3   OH278846   6.455   6.164  16.053 -0.1797 -0.9417 -0.4046
19144TIP3    H178847   6.410   6.235  16.098 -0.3426 -0.6061 -1.0883
19144TIP3    H278848   6.521   6.134  16.116  2.4153  2.2128 -1.3036
19145TIP3   OH278849   6.360   6.282  11.480 -0.3736 -0.0705 -0.2514
19145TIP3    H178850   6.287   6.225  11.457  0.0272 -0.5375 -0.3902
19145TIP3    H278851   6.406   6.236  11.550  0.8209 -0.6573 -1.3831
19146TIP3   OH278852   5.325   5.463   4.227 -0.1360  0.4772 -0.2693
19146TIP3    H178853   5.324   5.554   4.257 -0.4667  1.2099 -2.3418
19146TIP3    H278854   5.417   5.437   4.235 -0.0537  0.9454  0.4312
19147TIP3   OH278855   2.082   2.897  15.431 -1.0244  0.0066  0.4037
19147TIP3    H178856   2.127   2.922  15.511 -0.3311  3.5330 -0.8907
19147TIP3    H278857   1.997   2.940  15.436 -1.1311 -0.0613 -0.5966
19148TIP3   OH278858   2.355   0.452  12.476 -0.7680  0.2291  0.8563
19148TIP3    H178859   2.392   0.383  12.530 -0.5320 -0.7450 -0.5039
19148TIP3    H278860   2.431   0.487  12.428 -1.2958 -0.5446 -0.5949
19149TIP3   OH278861   0.327   3.381   1.140 -0.4019  0.1575  0.1506
19149TIP3    H178862   0.350   3.471   1.114 -1.2409  0.4999  0.5329
19149TIP3    H278863   0.403   3.329   1.117  0.1714  1.0029  0.0795
19150TIP3   OH278864   6.205   3.336  13.123 -0.1091 -0.6550  0.6395
19150TIP3    H178865   6.186   3.253  13.167  0.9286 -1.3605 -0.2022
19150TIP3    H278866   6.152   3.335  13.044 -0.1489 -0.4860  0.6631
19151TIP3   OH278867   6.715   4.562   0.362 -0.1251 -0.6700  0.6564
19151TIP3    H178868   6.620   4.565   0.373  0.0792 -0.3599  2.7090
19151TIP3    H278869   6.749   4.628   0.423  1.5204 -2.6371  2.0129
19152TIP3   OH278870   3.621   5.530  12.297 -0.0036 -0.0257 -0.8575
19152TIP3    H178871   3.571   5.610  12.279  1.0420  0.8259 -0.1109
19152TIP3    H278872   3.675   5.552  12.373 -2.2272 -2.5722  1.6318
19153TIP3   OH278873   5.458   2.103  14.564 -0.2062 -0.7761  0.2855
19153TIP3    H178874   5.424   2.178  14.614  0.9710 -1.2987  1.9836
19153TIP3    H278875   5.528   2.068  14.619 -0.5466 -2.9938 -0.5861
19154TIP3   OH278876   3.058   5.893  15.608 -0.0313  0.3091 -0.4319
19154TIP3    H178877   3.108   5.967  15.643  0.9834  0.5409 -2.2468
19154TIP3    H278878   3.101   5.872  15.525 -0.0274 -2.6282  0.2076
19155TIP3   OH278879   4.778   6.433   2.225  0.0506 -0.0372  0.5477
19155TIP3    H178880   4.699   6.481   2.198 -0.7114 -0.6139  1.6572
19155TIP3    H278881   4.744   6.354   2.268  1.2185  0.1820  1.9345
19156TIP3   OH278882   3.925   2.901   4.851 -0.1600  0.2002 -0.6937
19156TIP3    H178883   3.941   2.924   4.943 -1.1956 -1.0356 -0.1689
19156TIP3    H278884   3.917   2.805   4.851 -0.2551  0.1851 -2.0654
19157TIP3   OH278885   0.915   2.261  16.245  0.3900  0.4986  0.3125
19157TIP3    H178886   0.893   2.330  16.307 -0.7523 -0.4011  0.9508
19157TIP3    H278887   0.831   2.229  16.213  0.8911 -0.5724 -0.0053
19158TIP3   OH278888   6.104   2.965   3.435 -0.1959  0.2955  0.6130
19158TIP3    H178889   6.121   3.052   3.470  0.0254  0.2064  0.7296
19158TIP3    H278890   6.090   2.910   3.512  0.6137  0.0346  0.5840
19159TIP3   OH278891   4.029   2.246   2.431 -0.0129  0.2447 -0.2661
19159TIP3    H178892   4.081   2.239   2.512  2.2142  1.6168 -1.4637
19159TIP3    H278893   3.986   2.161   2.423  1.5643 -0.7685  1.1874
19160TIP3   OH278894   0.596   1.560   4.590 -0.3069 -0.0811  0.2244
19160TIP3    H178895   0.562   1.649   4.595 -0.8596 -0.1563 -1.6573
19160TIP3    H278896   0.687   1.568   4.618  0.1535  1.3988 -1.5416
19161TIP3   OH278897   6.424   0.655   0.145 -0.4794  0.3399  0.1318
19161TIP3    H178898   6.444   0.667   0.237  1.5460  1.9949 -0.4571
19161TIP3    H278899   6.459   0.568   0.124  0.6771  0.6937  0.5327
19162TIP3   OH278900   4.708   3.185  14.746  0.2018 -0.3027 -0.3466
19162TIP3    H178901   4.706   3.204  14.840  0.6341  0.2475 -0.4455
19162TIP3    H278902   4.731   3.269  14.705 -3.7157  0.5124 -1.2421
19163TIP3   OH278903   1.132   2.899  16.935 -0.3472  0.1036  0.4077
19163TIP3    H178904   1.210   2.901  16.991 -1.3118 -0.9303  1.8509
19163TIP3    H278905   1.152   2.831  16.870 -0.1940 -0.4842  1.0492
19164TIP3   OH278906   4.873   5.682  15.846  0.3761  0.3442  0.2570
19164TIP3    H178907   4.929   5.728  15.909  0.7638  0.2474 -0.0145
19164TIP3    H278908   4.853   5.599  15.888  2.3669 -0.6506 -0.5761
19165TIP3   OH278909   5.633   2.702  12.804 -0.0411  0.8827  0.2623
19165TIP3    H178910   5.700   2.665  12.747 -2.2298 -3.0547 -0.1250
19165TIP3    H278911   5.600   2.778  12.757  0.8131 -0.0326 -1.9465
19166TIP3   OH278912   6.493   4.640  12.527  0.1284  0.3406  0.5490
19166TIP3    H178913   6.534   4.616  12.444 -1.7443  2.3140 -1.0477
19166TIP3    H278914   6.423   4.577  12.539  1.2740 -0.8296  1.4525
19167TIP3   OH278915   2.723   2.815  17.130  0.5613  0.4704 -0.2377
19167TIP3    H178916   2.780   2.740  17.149  0.6125  0.4433 -0.4958
19167TIP3    H278917   2.700   2.805  17.037 -1.1499 -0.4029  0.2361
19168TIP3   OH278918   6.486   0.116   5.512 -0.6100 -0.4886 -0.0387
19168TIP3    H178919   6.487   0.193   5.570 -1.0267 -1.0092  0.6795
19168TIP3    H278920   6.578   0.099   5.494 -0.5426  0.7519 -0.9959
19169TIP3   OH278921   4.151   4.611  14.284  0.1256  0.1986  0.5382
19169TIP3    H178922   4.089   4.577  14.219 -0.2514  2.4861 -0.4281
19169TIP3    H278923   4.221   4.650  14.232  0.0214  1.7194  1.4486
19170TIP3   OH278924   6.370   6.416  15.507  0.0233 -0.1360 -0.1160
19170TIP3    H178925   6.285   6.405  15.464  0.9767 -1.6941 -1.7221
19170TIP3    H278926   6.434   6.392  15.440  1.8252  2.1641  0.6543
19171TIP3   OH278927   2.095   5.810  14.198 -0.3157 -0.4646 -0.8509
19171TIP3    H178928   2.084   5.890  14.251 -0.4044 -0.6850 -0.5340
19171TIP3    H278929   2.009   5.769  14.199  0.2599 -1.7773  0.9586
19172TIP3   OH278930   3.892   6.425   6.178  0.0966 -0.1431  0.0858
19172TIP3    H178931   3.833   6.375   6.234 -0.1438  0.6088  0.5183
19172TIP3    H278932   3.915   6.502   6.230  0.6655  0.0682 -0.4663
19173TIP3   OH278933   1.048   3.569   1.074  0.4730  0.5646  0.0959
19173TIP3    H178934   1.042   3.636   1.006  1.0233  0.2795 -0.2405
19173TIP3    H278935   0.963   3.524   1.072  0.6457  0.2644 -0.7106
19174TIP3   OH278936   6.510   4.348  17.080 -0.1108 -0.1747  0.1243
19174TIP3    H178937   6.598   4.372  17.051 -0.8369 -0.4766 -2.5835
19174TIP3    H278938   6.495   4.403  17.157  1.5783  1.6178 -0.7255
19175TIP3   OH278939   3.368   3.466  11.169 -0.4097  0.3676 -0.1297
19175TIP3    H178940   3.419   3.541  11.139  0.7228 -0.9799 -1.8301
19175TIP3    H278941   3.421   3.390  11.144 -2.0817 -1.0353  0.3883
19176TIP3   OH278942   3.339   4.400   5.252 -0.1330  0.0659 -0.1844
19176TIP3    H178943   3.267   4.403   5.315  1.3636  1.2653  1.5640
19176TIP3    H278944   3.296   4.401   5.167 -2.1865  0.9068  0.7892
19177TIP3   OH278945   5.097   4.247   2.543 -0.0007 -0.0026  0.4049
19177TIP3    H178946   5.100   4.341   2.530  1.0572 -0.0429  0.2769
19177TIP3    H278947   5.056   4.212   2.464  0.6472  0.2602 -0.0501
19178TIP3   OH278948   0.034   3.253  16.373  0.6225 -0.5895  0.2087
19178TIP3    H178949   0.109   3.194  16.378  0.4190 -0.9450 -0.6584
19178TIP3    H278950   0.069   3.333  16.334  0.5034 -0.8674 -0.4917
19179TIP3   OH278951   0.275   1.345   6.373  0.3063  0.5818  0.0880
19179TIP3    H178952   0.328   1.292   6.314 -0.4258 -0.6606  0.4922
19179TIP3    H278953   0.194   1.294   6.384 -0.2299  1.5704  0.8724
19180TIP3   OH278954   2.285   3.825  15.884 -0.3268  0.1017 -0.5369
19180TIP3    H178955   2.235   3.751  15.918 -1.0251  0.3397 -1.0322
19180TIP3    H278956   2.292   3.886  15.958  1.1175 -0.8653  0.1886
19181TIP3   OH278957   6.674   6.174  15.838 -0.0840  0.6768  0.5499
19181TIP3    H178958   6.734   6.126  15.895  1.3102 -0.0527 -1.4175
19181TIP3    H278959   6.587   6.140  15.860  0.7450 -2.1793 -0.1160
19182TIP3   OH278960   4.600   3.242   3.496 -0.5309  0.0134 -0.7476
19182TIP3    H178961   4.639   3.169   3.544 -0.0425  0.5430 -0.3201
19182TIP3    H278962   4.673   3.301   3.478 -1.2123  1.4221  0.7655
19183TIP3   OH278963   6.711   0.967   5.733 -0.3445 -0.3152 -0.0491
19183TIP3    H178964   6.694   0.963   5.639  0.7176 -0.5754 -0.2449
19183TIP3    H278965   6.730   0.876   5.758  0.2164 -0.1257  0.2384
19184TIP3   OH278966   5.496   3.836   6.102 -0.2015 -0.1801 -0.3520
19184TIP3    H178967   5.447   3.783   6.039 -0.9871  0.0801  0.0253
19184TIP3    H278968   5.466   3.804   6.188 -0.9524  1.1134 -0.1173
19185TIP3   OH278969   6.514   0.651   2.920 -0.2287 -0.5441 -0.0236
19185TIP3    H178970   6.540   0.569   2.878 -0.5453 -0.7921  0.2516
19185TIP3    H278971   6.570   0.717   2.881 -0.2931 -0.8213 -0.5942
19186TIP3   OH278972   4.382   3.550  17.109 -0.5130 -0.2312 -0.1989
19186TIP3    H178973   4.442   3.614  17.071  0.5797 -0.4162  1.1428
19186TIP3    H278974   4.426   3.466  17.097 -1.0453 -0.5108 -0.2330
19187TIP3   OH278975   4.076   2.083   5.416  0.5670 -0.5266  0.0752
19187TIP3    H178976   4.132   2.025   5.468  1.7269  0.6386  0.1964
19187TIP3    H278977   4.128   2.104   5.339  1.0172  1.8122  0.9183
19188TIP3   OH278978   2.378   2.840  12.592 -0.6371 -0.3413 -0.1015
19188TIP3    H178979   2.407   2.752  12.616 -0.8226 -0.0645  1.2188
19188TIP3    H278980   2.452   2.896  12.615 -0.6949 -0.0890 -0.5210
19189TIP3   OH278981   0.094   1.274   2.448  0.0312 -0.1160  0.5159
19189TIP3    H178982   0.136   1.197   2.487  0.8323  0.8467  1.6514
19189TIP3    H278983   0.005   1.246   2.429  1.2203 -2.4246 -2.4767
19190TIP3   OH278984   1.009   1.910   6.524  0.7316 -0.1418  0.1955
19190TIP3    H178985   1.056   1.972   6.468 -0.6253 -0.8867 -1.8695
19190TIP3    H278986   0.917   1.938   6.519  0.3265 -1.3505  0.5332
19191TIP3   OH278987   0.920   0.731  13.900 -0.2056 -0.5157 -0.2526
19191TIP3    H178988   0.825   0.725  13.885  0.1528 -1.0319 -2.6626
19191TIP3    H278989   0.959   0.728  13.813  2.1316 -1.7817  0.7323
19192TIP3   OH278990   0.985   3.401   4.570  0.3867 -0.4766  0.1970
19192TIP3    H178991   0.942   3.420   4.653  2.2374 -0.6797  1.2518
19192TIP3    H278992   1.072   3.439   4.579  1.2094 -1.9929 -0.9797
19193TIP3   OH278993   0.727   4.630   3.481 -0.2847 -0.0385  0.0864
19193TIP3    H178994   0.722   4.632   3.577 -1.2637  2.0737  0.0570
19193TIP3    H278995   0.684   4.548   3.457  0.4747 -0.8768  1.4540
19194TIP3   OH278996   3.794   5.330   1.525  0.0368 -0.2578 -0.4986
19194TIP3    H178997   3.743   5.373   1.594  1.0600 -0.6384  0.5381
19194TIP3    H278998   3.790   5.237   1.547 -0.1615 -0.4541 -1.3350
19195TIP3   OH278999   2.579   6.095  13.069 -0.1004  0.0722  0.0284
19195TIP3    H179000   2.631   6.081  13.148 -0.3232  0.9592  0.3426
19195TIP3    H279001   2.601   6.184  13.042 -1.4974  0.4900  0.2060
19196TIP3   OH279002   0.438   4.476  15.290  0.2069 -0.0269 -0.3246
19196TIP3    H179003   0.429   4.521  15.375  1.0315 -0.3962 -0.0333
19196TIP3    H279004   0.401   4.537  15.227 -1.9675 -0.4079  0.4678
19197TIP3   OH279005   6.693   0.166   0.038 -0.2399 -0.2574 -0.4743
19197TIP3    H179006   6.640   0.107   0.092  0.2925 -0.1783  0.1401
19197TIP3    H279007   6.713   0.114  -0.040  1.4421 -1.4756  0.6827
19198TIP3   OH279008   3.211   4.422  13.159  0.2366  0.2333  0.0383
19198TIP3    H179009   3.242   4.497  13.210  0.0818 -0.2267  0.8382
19198TIP3    H279010   3.117   4.421  13.172  0.1594  0.2825 -0.5087
19199TIP3   OH279011   1.844   4.519  16.518  0.1078  0.2916 -0.2851
19199TIP3    H179012   1.818   4.435  16.556 -2.2902  0.2767 -1.7600
19199TIP3    H279013   1.806   4.584  16.577 -1.0550  0.2851 -1.0020
19200TIP3   OH279014   2.414   5.747   1.086  0.5278 -0.0047 -0.1539
19200TIP3    H179015   2.428   5.742   1.180 -0.9373 -1.8246  0.0285
19200TIP3    H279016   2.319   5.754   1.076  0.6612  0.2726 -1.5068
19201TIP3   OH279017   0.710   1.824  14.666 -0.5866 -0.6630 -0.0829
19201TIP3    H179018   0.792   1.873  14.656 -0.7868 -0.1158  0.8103
19201TIP3    H279019   0.652   1.859  14.598 -0.1894 -0.8312 -0.5124
19202TIP3   OH279020   6.120   3.856  11.892  0.2191  0.1775  0.1648
19202TIP3    H179021   6.193   3.871  11.833 -0.9831 -0.3947 -1.5745
19202TIP3    H279022   6.042   3.872  11.838 -0.9449 -0.1291  1.6748
19203TIP3   OH279023   5.380   0.842  14.803 -0.2207  0.0313 -0.2499
19203TIP3    H179024   5.365   0.748  14.812 -1.4261  0.2826  0.6236
19203TIP3    H279025   5.412   0.853  14.714  3.3607 -1.5865  0.6605
19204TIP3   OH279026   2.159   2.371   5.927  0.1301 -0.2040 -0.0654
19204TIP3    H179027   2.115   2.307   5.983 -1.2715  1.5634  0.9338
19204TIP3    H279028   2.108   2.370   5.846  1.2828 -1.6855 -0.8432
19205TIP3   OH279029   2.108   1.608  14.363  0.1055 -0.1641 -0.4026
19205TIP3    H179030   2.192   1.649  14.344  0.4471 -0.8630 -0.4164
19205TIP3    H279031   2.046   1.652  14.304  0.1501  1.4160  0.6538
19206TIP3   OH279032   2.085   4.852   2.636 -0.2280 -0.2159 -0.1806
19206TIP3    H179033   2.071   4.897   2.553 -0.5669 -1.2965 -0.7239
19206TIP3    H279034   1.998   4.819   2.660  0.1577 -1.3033 -0.2330
19207TIP3   OH279035   2.787   0.216  13.251  0.2536  0.6951 -0.6317
19207TIP3    H179036   2.871   0.173  13.239  0.8303  0.9359  1.9360
19207TIP3    H279037   2.734   0.153  13.301  0.9883  2.6017  2.8580
19208TIP3   OH279038   3.791   2.907   0.236 -0.3818 -0.1522 -0.5048
19208TIP3    H179039   3.869   2.956   0.211 -0.7513  0.8774  0.2839
19208TIP3    H279040   3.719   2.952   0.192 -0.6975 -0.1249  0.0317
19209TIP3   OH279041   1.837   2.872   5.459  0.3178 -0.4394 -0.3246
19209TIP3    H179042   1.911   2.822   5.425  2.1604  2.4481 -0.9179
19209TIP3    H279043   1.877   2.946   5.504 -2.2259  1.2893 -0.7003
19210TIP3   OH279044   2.785   2.379  13.229  0.1232 -0.3468 -0.5139
19210TIP3    H179045   2.823   2.378  13.141  1.1288  1.2823 -0.1633
19210TIP3    H279046   2.701   2.424  13.219  0.2676 -0.1042 -0.6559
19211TIP3   OH279047   0.904   2.180  14.163 -0.4702  0.3582 -0.5657
19211TIP3    H179048   0.907   2.153  14.071 -1.8342  1.3769 -0.9312
19211TIP3    H279049   0.927   2.273  14.161  0.4938  0.1554  0.2555
19212TIP3   OH279050   0.596   0.763   0.539  0.0718 -0.0857 -0.5301
19212TIP3    H179051   0.669   0.702   0.545 -0.6967 -0.9978 -0.0001
19212TIP3    H279052   0.548   0.734   0.461  0.2719  0.5112 -0.8796
19213TIP3   OH279053   3.418   5.428  13.967  0.5627  0.4427  0.1262
19213TIP3    H179054   3.328   5.415  13.997  0.5549  3.2177  1.6210
19213TIP3    H279055   3.420   5.389  13.880 -1.3469 -1.8981  1.0105
19214TIP3   OH279056   0.780   2.509   3.394  0.0835  0.1225 -0.1264
19214TIP3    H179057   0.706   2.465   3.437 -0.4257  0.1796 -0.9307
19214TIP3    H279058   0.852   2.501   3.457 -0.6403  0.1937  0.7411
19215TIP3   OH279059   2.472   5.112  11.928 -0.6828 -0.1505  0.1460
19215TIP3    H179060   2.538   5.180  11.936 -0.8720  0.0648 -0.0891
19215TIP3    H279061   2.450   5.088  12.018  0.2489 -0.7508  0.2186
19216TIP3   OH279062   4.086   5.594  14.022  0.2379 -0.3929  0.0108
19216TIP3    H179063   4.043   5.637  13.948  1.3130 -1.7849 -1.4834
19216TIP3    H279064   4.126   5.665  14.072  0.0152  0.5217 -1.0906
19217TIP3   OH279065   3.421   6.176   4.603 -1.0629  0.1583 -0.1431
19217TIP3    H179066   3.353   6.230   4.642  0.3049  1.3746  0.6435
19217TIP3    H279067   3.441   6.110   4.670 -0.4027  0.7583  0.2613
19218TIP3   OH279068   5.274   6.090  11.031  0.6753  0.3746 -0.5567
19218TIP3    H179069   5.228   6.157  10.980 -0.3224  0.8003  0.8282
19218TIP3    H279070   5.366   6.101  11.009  0.8265  3.6217  1.1198
19219TIP3   OH279071   3.977   1.367   1.813  0.6838  0.0398  0.3164
19219TIP3    H179072   4.016   1.388   1.898 -0.5078 -0.3748  0.9924
19219TIP3    H279073   3.960   1.273   1.817 -0.8836  0.2969  0.2839
19220TIP3   OH279074   3.688   4.081  16.601  0.3747  0.2566 -0.0207
19220TIP3    H179075   3.673   4.172  16.575  2.0892  1.4456  2.7797
19220TIP3    H279076   3.751   4.048  16.537 -0.8171  0.7434 -1.5061
19221TIP3   OH279077   4.132   5.904  14.113  0.0967  0.0251  0.3787
19221TIP3    H179078   4.170   5.853  14.185 -0.4522 -0.6346  0.2148
19221TIP3    H279079   4.203   5.961  14.083  0.3533  0.2521  1.3894
19222TIP3   OH279080   0.105   5.882   3.906 -0.0855  0.5792 -0.2363
19222TIP3    H179081   0.018   5.848   3.925 -0.4875 -0.3992 -3.1707
19222TIP3    H279082   0.090   5.962   3.857  0.4655 -0.7282 -2.7407
19223TIP3   OH279083   1.498   6.375  12.716  0.1317  0.1101 -0.5549
19223TIP3    H179084   1.528   6.460  12.748  1.0623 -0.0414 -0.9900
19223TIP3    H279085   1.409   6.366  12.751  0.8710  0.2117  1.4978
19224TIP3   OH279086   3.922   1.492   3.336 -0.1186  0.6605  0.0285
19224TIP3    H179087   3.873   1.414   3.360 -0.6749  1.1738  0.6233
19224TIP3    H279088   4.013   1.471   3.358 -0.2457  0.1467  0.0764
19225TIP3   OH279089   1.670   1.393  14.236  0.3249 -0.2205 -0.4980
19225TIP3    H179090   1.736   1.430  14.295 -1.4691  0.3829  1.2595
19225TIP3    H279091   1.665   1.456  14.163  1.7867 -0.3867 -0.7631
19226TIP3   OH279092   0.136   4.668  15.692  0.1152 -0.1520 -0.0875
19226TIP3    H179093   0.124   4.587  15.741  0.3048 -0.4850 -0.5845
19226TIP3    H279094   0.070   4.664  15.623 -0.4243  0.5048  0.3722
19227TIP3   OH279095   4.683   5.248   4.807  0.1490  0.3657  0.1791
19227TIP3    H179096   4.691   5.324   4.865  0.8015  0.0972  0.4516
19227TIP3    H279097   4.638   5.282   4.729 -1.3358  0.5780  1.0950
19228TIP3   OH279098   4.617   0.156  12.729  0.3974 -0.0365 -0.1838
19228TIP3    H179099   4.703   0.173  12.767 -0.1974 -2.2431  2.4202
19228TIP3    H279100   4.622   0.066  12.697 -1.2483 -0.6471  1.1242
19229TIP3   OH279101   3.159   6.637   3.645 -0.3031 -0.2592 -0.3447
19229TIP3    H179102   3.164   6.732   3.653  0.5261 -0.4318  1.9528
19229TIP3    H279103   3.250   6.608   3.640 -0.5192 -0.9963 -0.1826
19230TIP3   OH279104   5.280   4.227   0.048 -0.5140  0.1451  0.0873
19230TIP3    H179105   5.241   4.288  -0.015 -1.4626 -0.5126  0.0221
19230TIP3    H279106   5.282   4.143   0.003 -0.1835 -0.0985  0.5451
19231TIP3   OH279107   3.109   2.224   3.157  0.3807 -0.5519 -0.1394
19231TIP3    H179108   3.047   2.227   3.229 -1.1395 -0.3501 -1.3996
19231TIP3    H279109   3.105   2.134   3.125 -2.6240  0.3478 -2.9094
19232TIP3   OH279110   0.551   6.007   5.458 -0.1516  0.0159 -0.1797
19232TIP3    H179111   0.513   6.011   5.370  0.3313 -0.7070 -0.4249
19232TIP3    H279112   0.613   6.079   5.460  1.1738 -1.0537 -1.0808
19233TIP3   OH279113   5.984   2.595   1.757 -0.6022 -0.3206  0.1993
19233TIP3    H179114   6.075   2.592   1.727 -0.5663 -1.9889  0.3941
19233TIP3    H279115   5.932   2.586   1.678 -0.5457 -1.7643  0.3050
19234TIP3   OH279116   2.570   0.200   0.558  0.1691 -0.4649 -0.0424
19234TIP3    H179117   2.560   0.191   0.652  1.5620 -1.1627  0.0602
19234TIP3    H279118   2.613   0.119   0.530  0.4120  0.0328 -1.1739
19235TIP3   OH279119   4.198   1.418  13.174  0.2546  0.1737 -0.4368
19235TIP3    H179120   4.118   1.373  13.147 -0.1803  1.4666 -1.4324
19235TIP3    H279121   4.169   1.482  13.238  0.6723 -0.1014  0.0306
19236TIP3   OH279122   4.968   1.617  15.170  0.0365 -0.7631 -0.3015
19236TIP3    H179123   4.988   1.706  15.141  0.6605 -1.5832 -2.5522
19236TIP3    H279124   4.935   1.629  15.259  0.6669  1.6552 -0.3012
19237TIP3   OH279125   4.622   3.659  12.813 -0.1847 -0.0907  0.6834
19237TIP3    H179126   4.615   3.611  12.731 -0.1020 -3.4333  2.4293
19237TIP3    H279127   4.542   3.711  12.818  0.1087  0.7213 -1.7231
19238TIP3   OH279128   0.425   6.288   5.029 -0.1660  0.0595 -0.0752
19238TIP3    H179129   0.349   6.344   5.042  0.6666  1.2343 -0.1837
19238TIP3    H279130   0.469   6.324   4.953  0.4300 -0.7034 -0.1031
19239TIP3   OH279131   0.264   1.203  16.234 -0.3669  0.1646  0.1161
19239TIP3    H179132   0.315   1.283  16.227 -1.3572  0.8435  0.4528
19239TIP3    H279133   0.285   1.154  16.155 -1.2494  1.6745 -1.1104
19240TIP3   OH279134   1.801   4.761   4.241  0.5329  0.7796 -0.0442
19240TIP3    H179135   1.871   4.714   4.287 -0.4500 -0.7298 -0.0260
19240TIP3    H279136   1.734   4.776   4.307 -0.0832  0.2493 -0.5276
19241TIP3   OH279137   2.707   5.903  11.781 -0.2630  0.0450 -0.4360
19241TIP3    H179138   2.658   5.840  11.834 -0.9964  1.1507  0.2426
19241TIP3    H279139   2.762   5.849  11.724 -0.4942 -1.1952  0.4715
19242TIP3   OH279140   0.331   0.439  13.046 -0.2158  0.2671  0.0967
19242TIP3    H179141   0.273   0.514  13.058 -1.1672  0.0570 -2.5374
19242TIP3    H279142   0.419   0.477  13.037 -0.5040  0.9252  0.0457
19243TIP3   OH279143   1.853   2.387   5.129  0.2861  0.1772  0.1073
19243TIP3    H179144   1.931   2.442   5.129  0.2725  0.1966 -0.4675
19243TIP3    H279145   1.864   2.330   5.054 -1.2730  1.6341 -1.3008
19244TIP3   OH279146   6.771   3.957  10.804  0.1120 -0.2508  0.2748
19244TIP3    H179147   6.713   3.921  10.736  0.8592  0.4180 -0.7536
19244TIP3    H279148   6.858   3.924  10.780  0.7006  1.5733 -0.2735
19245TIP3   OH279149   2.292   5.846   4.491  0.7522 -0.4347 -0.3615
19245TIP3    H179150   2.308   5.932   4.454 -0.2093 -0.2908 -0.4678
19245TIP3    H279151   2.371   5.795   4.469  1.2855  0.3839 -0.3683
19246TIP3   OH279152   1.456   6.605   4.554 -0.0507  0.1870  0.2734
19246TIP3    H179153   1.476   6.679   4.496 -2.4748  0.5235 -0.2265
19246TIP3    H279154   1.540   6.560   4.565  1.2619  2.3475 -0.3258
19247TIP3   OH279155   1.884   1.650   5.922 -0.1184  0.2533 -0.0377
19247TIP3    H179156   1.942   1.616   5.853  0.4092 -0.0035  0.5248
19247TIP3    H279157   1.848   1.731   5.885 -0.0616 -0.0254 -0.7254
19248TIP3   OH279158   4.105   4.164   3.250 -0.4689  0.0736  0.7634
19248TIP3    H179159   4.022   4.146   3.206  0.3302  0.5573 -1.0267
19248TIP3    H279160   4.106   4.259   3.264  0.0158  0.1528  0.2413
19249TIP3   OH279161   3.648   0.906  14.017  0.5768 -0.8777  0.0835
19249TIP3    H179162   3.678   0.925  13.928  2.4140  0.6124  0.9298
19249TIP3    H279163   3.642   0.992  14.059 -1.9106 -1.3945  0.9608
19250TIP3   OH279164   6.334   2.569  11.717 -0.4968 -0.8004 -0.1412
19250TIP3    H179165   6.369   2.487  11.752  0.4200  0.1833  1.3990
19250TIP3    H279166   6.405   2.603  11.662 -0.4541 -0.5595  0.0593
19251TIP3   OH279167   4.151   0.185  14.475  1.0198  0.5618 -0.0227
19251TIP3    H179168   4.114   0.273  14.472 -0.7206 -0.1458 -1.4126
19251TIP3    H279169   4.156   0.164  14.568 -1.1800  1.1117  0.2817
19252TIP3   OH279170   2.175   5.161   5.430  0.4732 -0.0979 -0.1145
19252TIP3    H179171   2.211   5.215   5.360 -0.5048  0.7441  0.0208
19252TIP3    H279172   2.154   5.223   5.500  1.1772 -0.8878  0.8378
19253TIP3   OH279173   4.530   5.016   4.150  0.6208 -0.1884 -0.5072
19253TIP3    H179174   4.561   4.957   4.081 -0.1406  0.2433 -1.2522
19253TIP3    H279175   4.492   4.957   4.216 -0.6431 -0.5400 -1.5008
19254TIP3   OH279176   1.932   2.031  16.481  0.0091  0.4237 -0.0383
19254TIP3    H179177   1.870   2.062  16.547 -0.6153  1.4572 -1.0836
19254TIP3    H279178   2.011   2.083  16.496  0.0853  0.2166  0.2866
19255TIP3   OH279179   3.847   3.643  17.247  0.7058  0.8118  0.0354
19255TIP3    H179180   3.801   3.682  17.173 -0.9999  1.5827  1.4089
19255TIP3    H279181   3.895   3.715  17.287 -0.9082  1.1781  1.4548
19256TIP3   OH279182   6.012   2.616   0.829 -0.0162  0.2015 -0.1360
19256TIP3    H179183   6.078   2.672   0.871 -1.0508  0.2556  1.4603
19256TIP3    H279184   6.041   2.527   0.848 -0.3547  0.2244  0.4900
19257TIP3   OH279185   6.352   6.557   3.002  0.6615 -0.4485 -0.3718
19257TIP3    H179186   6.311   6.618   3.064 -1.5810  0.5562 -2.6749
19257TIP3    H279187   6.424   6.606   2.964 -0.0035  0.1497 -0.8914
19258TIP3   OH279188   1.305   5.378  13.929 -0.1011 -0.7712 -0.7544
19258TIP3    H179189   1.309   5.449  13.994  1.2021 -1.1857 -0.3556
19258TIP3    H279190   1.388   5.384  13.882 -0.8342 -0.7830 -2.0801
19259TIP3   OH279191   3.096   4.649  15.362  0.2465 -0.4967  0.6406
19259TIP3    H179192   3.071   4.593  15.288  2.2361 -0.6599  0.0344
19259TIP3    H279193   3.176   4.610  15.397  0.7909  1.0396  1.2349
19260TIP3   OH279194   1.048   2.840   0.100  0.0550  0.5038 -0.5514
19260TIP3    H179195   1.014   2.928   0.082  1.9053  2.1437  2.8793
19260TIP3    H279196   0.982   2.799   0.156  0.0116  0.3873 -0.6856
19261TIP3   OH279197   0.893   5.970  13.857  0.3517  0.1753  0.2635
19261TIP3    H179198   0.828   5.969  13.786  2.0969 -2.2130 -1.4768
19261TIP3    H279199   0.931   6.058  13.854 -0.6793  0.6102 -0.7308
19262TIP3   OH279200   2.939   2.628  17.065  0.9285  0.3141 -0.2344
19262TIP3    H179201   2.893   2.553  17.102 -1.6503  1.0456 -1.7168
19262TIP3    H279202   3.014   2.590  17.019  1.2630 -1.0373  1.3185
19263TIP3   OH279203   3.862   2.063   5.981  0.4181 -0.3010  0.3218
19263TIP3    H179204   3.834   2.015   6.059  1.6457 -0.4139  0.7068
19263TIP3    H279205   3.784   2.064   5.925 -0.9978  1.1243  2.1680
19264TIP3   OH279206   4.953   5.909   6.714  0.5306 -0.1298 -0.3282
19264TIP3    H179207   4.966   5.955   6.631  0.9806  0.4100  0.0288
19264TIP3    H279208   5.001   5.962   6.778 -1.6038  0.7142  0.6853
19265TIP3   OH279209   4.067   6.111   4.237  0.1425 -0.1362  0.3643
19265TIP3    H179210   3.990   6.079   4.283 -0.4219  1.7554  0.8168
19265TIP3    H279211   4.033   6.171   4.171  1.2142  0.4528  0.3200
19266TIP3   OH279212   5.810   2.892  12.501 -0.3043 -0.5033 -0.5125
19266TIP3    H179213   5.724   2.849  12.495 -0.2768 -0.9290  1.4872
19266TIP3    H279214   5.796   2.963  12.564  1.2346 -1.8290  1.4469
19267TIP3   OH279215   3.464   3.937  12.391  0.1842 -0.0694  0.9178
19267TIP3    H179216   3.369   3.930  12.386 -0.3393  4.3615  0.1861
19267TIP3    H279217   3.490   3.872  12.456 -2.9973 -2.8161 -0.2612
19268TIP3   OH279218   4.051   0.980   1.639  0.8698  0.0820  0.4016
19268TIP3    H179219   4.047   1.049   1.705  1.7166  0.5947 -0.0611
19268TIP3    H279220   4.144   0.961   1.630  0.6780 -0.7871  0.1724
19269TIP3   OH279221   0.070   6.345   2.079  0.0115 -0.1340  0.3205
19269TIP3    H179222   0.010   6.352   2.005  0.5304 -1.2878 -0.2254
19269TIP3    H279223   0.019   6.300   2.146 -0.0669 -0.1792  0.2313
19270TIP3   OH279224   0.428   3.334  11.898 -0.1829 -0.6942  0.5174
19270TIP3    H179225   0.365   3.353  11.967  1.5247  1.5424  1.5826
19270TIP3    H279226   0.513   3.339  11.941  0.8469 -1.7173 -1.2725
19271TIP3   OH279227   1.359   6.288   3.464  0.1545 -0.2543 -0.1410
19271TIP3    H179228   1.399   6.355   3.409  1.4673 -1.6231 -0.9707
19271TIP3    H279229   1.268   6.282   3.434  0.3590  0.3033 -0.9017
19272TIP3   OH279230   2.137   0.103  13.839  0.1287  0.1731 -0.1575
19272TIP3    H179231   2.147   0.138  13.751 -1.3601  0.9336 -0.0544
19272TIP3    H279232   2.181   0.166  13.896  2.1552 -0.9279 -0.4129
19273TIP3   OH279233   4.308   5.076   0.703  0.1056 -0.0629 -0.4215
19273TIP3    H179234   4.267   5.000   0.662  0.8277 -0.4991 -0.3491
19273TIP3    H279235   4.371   5.039   0.766  1.1242  0.5708 -1.0379
19274TIP3   OH279236   5.692   5.051  10.932 -0.0873  0.5492  0.3372
19274TIP3    H179237   5.758   5.040  10.864  0.7603  0.9495  1.0732
19274TIP3    H279238   5.661   5.141  10.921  1.1849  1.1523  1.4406
19275TIP3   OH279239   0.920   4.304  12.773  0.2971 -0.1700 -0.1509
19275TIP3    H179240   0.838   4.303  12.822  1.0810  0.4174  1.2298
19275TIP3    H279241   0.916   4.385  12.722  0.6576  0.6556  1.0951
19276TIP3   OH279242   5.589   0.889  16.113 -0.3311  0.2261 -0.9281
19276TIP3    H179243   5.542   0.953  16.060 -2.3863  0.6194  1.2218
19276TIP3    H279244   5.595   0.928  16.200 -0.2191 -1.8284  0.0585
19277TIP3   OH279245   1.306   6.034  10.761 -0.7461 -0.7521 -0.0154
19277TIP3    H179246   1.239   5.980  10.803 -1.0435  1.1030  2.1159
19277TIP3    H279247   1.257   6.102  10.715 -0.4021  0.4213  1.2763
19278TIP3   OH279248   1.329   4.475   0.568  0.3036  0.1784 -0.3815
19278TIP3    H179249   1.285   4.398   0.531  1.5281  0.1215 -1.8381
19278TIP3    H279250   1.336   4.456   0.661  2.3304 -2.4767 -0.9485
19279TIP3   OH279251   6.638   2.173  16.876 -0.2956 -0.1118 -0.2617
19279TIP3    H179252   6.564   2.226  16.905 -0.6526 -0.5330 -0.3903
19279TIP3    H279253   6.600   2.088  16.855  0.4292 -0.7531  0.9460
19280TIP3   OH279254   4.657   6.245   2.415  0.3405 -0.1412  0.5360
19280TIP3    H179255   4.656   6.188   2.338  0.3271 -0.0105  0.4393
19280TIP3    H279256   4.601   6.201   2.478 -3.6973  2.0291 -1.1524
19281TIP3   OH279257   3.032   5.925  14.090  0.2040  0.2145 -0.1140
19281TIP3    H179258   2.954   5.980  14.100  0.1140  0.0451  0.1046
19281TIP3    H279259   3.018   5.878  14.008 -0.9685 -1.5024  1.0125
19282TIP3   OH279260   1.563   4.314  11.278 -0.1414  0.6079 -0.7293
19282TIP3    H179261   1.596   4.227  11.297 -0.9076  0.3241 -0.6428
19282TIP3    H279262   1.506   4.301  11.202 -1.1979  0.8147  0.0113
19283TIP3   OH279263   2.477   2.309   0.727 -0.3353 -0.5489 -0.5615
19283TIP3    H179264   2.526   2.348   0.799 -1.3705 -0.5732  0.1870
19283TIP3    H279265   2.532   2.323   0.649  0.5518 -0.0443  0.1420
19284TIP3   OH279266   3.648   4.955   2.330  0.4124  0.3108 -0.2467
19284TIP3    H179267   3.733   4.987   2.361 -0.1746  0.8048  0.9248
19284TIP3    H279268   3.602   5.035   2.302 -1.4015  0.8035  3.5107
19285TIP3   OH279269   0.308   1.619  11.340  0.4567 -0.4841 -0.3953
19285TIP3    H179270   0.362   1.586  11.268  1.5755 -1.1067  0.7017
19285TIP3    H279271   0.308   1.714  11.329  3.1457 -0.3057  0.4619
19286TIP3   OH279272   4.553   4.682  11.850  0.0419 -0.6091 -0.2073
19286TIP3    H179273   4.555   4.775  11.868 -0.2181 -0.7287  0.4582
19286TIP3    H279274   4.548   4.676  11.754 -0.1181  0.0579 -0.2431
19287TIP3   OH279275   5.300   4.720  13.371  0.2293  0.2256 -0.2609
19287TIP3    H179276   5.274   4.810  13.393  0.5268 -0.0147  1.2113
19287TIP3    H279277   5.319   4.723  13.278 -0.0428  1.6313 -0.2996
19288TIP3   OH279278   0.630   1.708   5.394  0.2634  0.0170  0.5582
19288TIP3    H179279   0.585   1.785   5.359 -1.5267 -0.7996  0.9162
19288TIP3    H279280   0.627   1.721   5.489  1.6704  0.3962  0.5652
19289TIP3   OH279281   1.579   1.935   4.424  0.3282  0.3899 -0.6629
19289TIP3    H179282   1.485   1.953   4.416  0.0487 -1.4461 -2.1185
19289TIP3    H279283   1.620   1.998   4.365 -0.2857 -0.8034 -2.4393
19290TIP3   OH279284   3.612   5.066  11.384  0.2281  0.0121  0.3498
19290TIP3    H179285   3.587   5.017  11.306  0.7583 -0.0305  0.2055
19290TIP3    H279286   3.601   5.005  11.456 -0.2943  0.0609  0.3166
19291TIP3   OH279287   1.514   0.188   3.330 -0.7034 -0.6810  0.5346
19291TIP3    H179288   1.485   0.253   3.266  0.1736 -1.1421 -0.3674
19291TIP3    H279289   1.579   0.234   3.383  0.3467 -0.9519 -0.4755
19292TIP3   OH279290   3.895   4.794  13.038 -0.5658 -0.2518  0.1018
19292TIP3    H179291   3.811   4.822  13.074 -0.5246  1.1080 -0.7489
19292TIP3    H279292   3.960   4.828  13.099 -0.5998 -0.4578  0.2521
19293TIP3   OH279293   0.332   4.401   1.504 -0.2705  0.0692 -0.4763
19293TIP3    H179294   0.341   4.459   1.428  0.8057 -1.1333 -1.3178
19293TIP3    H279295   0.320   4.314   1.466  2.2819 -0.8737  0.6611
19294TIP3   OH279296   0.743   1.119  11.248 -0.2840  0.4907 -0.1572
19294TIP3    H179297   0.761   1.212  11.264 -2.7751  0.8238  1.2268
19294TIP3    H279298   0.788   1.099  11.166 -1.1322  3.4023 -1.4500
19295TIP3   OH279299   0.233   5.523   2.942 -0.2400  1.0485  0.4159
19295TIP3    H179300   0.220   5.470   3.020  1.2325 -0.7194 -0.4485
19295TIP3    H279301   0.146   5.533   2.904 -0.4047 -3.5828 -1.0482
19296TIP3   OH279302   3.917   3.303   6.748  0.1188 -0.3669  0.3914
19296TIP3    H179303   4.008   3.331   6.765  0.1776  0.0857 -0.6050
19296TIP3    H279304   3.866   3.384   6.753  0.1280 -0.2177 -1.4394
19297TIP3   OH279305   3.374   3.166  15.951  0.7840 -0.1555 -0.1403
19297TIP3    H179306   3.302   3.104  15.937  2.1863 -2.1377  0.8804
19297TIP3    H279307   3.399   3.194  15.863  0.3808 -1.3766 -0.6725
19298TIP3   OH279308   6.526   2.666   0.067 -0.5793  0.4543 -0.4857
19298TIP3    H179309   6.447   2.613   0.075 -0.4547  0.3204 -0.1298
19298TIP3    H279310   6.515   2.713  -0.015  0.2701 -1.6825 -1.8985
19299TIP3   OH279311   5.837   0.953  14.165  0.5035  0.0102 -0.0637
19299TIP3    H179312   5.832   0.944  14.070  1.2142 -1.3173  0.0026
19299TIP3    H279313   5.930   0.959  14.184  0.3754  0.0775  0.5633
19300TIP3   OH279314   4.889   1.813  15.403 -0.3065  0.5630  0.1623
19300TIP3    H179315   4.959   1.811  15.467  0.0492  2.1262 -0.1268
19300TIP3    H279316   4.823   1.753  15.437  0.7569 -0.2151  0.9116
19301TIP3   OH279317   4.535   0.064  12.978  0.2291  0.3908 -0.4806
19301TIP3    H179318   4.456   0.115  12.994 -1.1241 -1.1849 -1.8141
19301TIP3    H279319   4.554   0.077  12.886  2.9211  2.5299  0.2432
19302TIP3   OH279320   6.009   0.612   5.763 -0.4210 -0.2673 -0.2999
19302TIP3    H179321   6.048   0.597   5.677  0.8985  0.4386  0.1533
19302TIP3    H279322   5.957   0.533   5.780  0.2617 -0.9331 -1.2214
19303TIP3   OH279323   2.508   0.196  15.794  0.7365 -0.1830  0.2399
19303TIP3    H179324   2.465   0.271  15.752  0.7144  0.4399  1.3118
19303TIP3    H279325   2.439   0.156  15.847  0.9449 -0.4755  0.2892
19304TIP3   OH279326   0.557   3.318   2.459  0.2814 -0.0079  0.0033
19304TIP3    H179327   0.483   3.267   2.492  0.4881 -2.1769 -2.5082
19304TIP3    H279328   0.630   3.256   2.458  0.5166  0.1493 -3.3133
19305TIP3   OH279329   2.085   3.740  12.023  0.7039  0.1335  0.1034
19305TIP3    H179330   2.180   3.732  12.012  0.9191  2.8693 -0.7521
19305TIP3    H279331   2.074   3.754  12.117  1.0992 -0.5066  0.2553
19306TIP3   OH279332   5.678   6.363  13.266 -0.3144  0.9593 -0.3425
19306TIP3    H179333   5.669   6.451  13.301 -0.0795  0.6997  0.3807
19306TIP3    H279334   5.720   6.313  13.336  0.6957  0.5724 -1.2039
19307TIP3   OH279335   1.013   5.628  12.292  0.0547  0.4327 -0.4892
19307TIP3    H179336   1.062   5.635  12.374  0.0146  1.9116 -0.5738
19307TIP3    H279337   0.958   5.550  12.304  1.7605 -0.7735 -0.0566
19308TIP3   OH279338   6.471   3.821  16.253  0.0258 -1.0083  0.6592
19308TIP3    H179339   6.407   3.888  16.230  0.5582 -0.6551  0.2040
19308TIP3    H279340   6.511   3.852  16.333 -0.1952 -1.1081  0.8093
19309TIP3   OH279341   0.669   5.221  13.163  0.3771 -0.0705 -0.2559
19309TIP3    H179342   0.586   5.266  13.176 -0.6883 -0.2584 -4.7626
19309TIP3    H279343   0.650   5.129  13.180 -0.0833 -0.0085 -0.4447
19310TIP3   OH279344   5.927   4.432   1.731  0.6550  0.1979  0.6073
19310TIP3    H179345   5.839   4.420   1.765  0.0288  0.7131 -0.7750
19310TIP3    H279346   5.965   4.500   1.786 -0.2626  0.8691  0.4232
19311TIP3   OH279347   2.757   3.883  11.840 -0.2757  0.6117 -0.1727
19311TIP3    H179348   2.718   3.946  11.900 -0.7142 -0.9105  1.2102
19311TIP3    H279349   2.843   3.865  11.877 -0.0844  0.5111 -0.6552
19312TIP3   OH279350   5.342   0.297  14.926  0.2839  0.2167  0.2763
19312TIP3    H179351   5.335   0.218  14.980  1.2421  0.4950  0.8185
19312TIP3    H279352   5.312   0.368  14.982 -0.5032  0.2602 -0.1867
19313TIP3   OH279353   5.541   0.456   3.504  0.0812 -0.1841 -0.1421
19313TIP3    H179354   5.625   0.496   3.525  0.4652 -0.5412 -0.9524
19313TIP3    H279355   5.511   0.502   3.426 -1.1473  0.8652  0.8751
19314TIP3   OH279356   1.984   6.416  13.172  0.0717 -0.5340  0.1126
19314TIP3    H179357   1.957   6.405  13.081 -1.6696 -2.1498  0.7682
19314TIP3    H279358   2.053   6.351  13.185  1.8867  1.1368 -0.5581
19315TIP3   OH279359   6.132   2.119  14.240  0.5101 -0.1970  0.5101
19315TIP3    H179360   6.079   2.054  14.286 -0.9520  1.7680  1.7498
19315TIP3    H279361   6.072   2.192  14.223  1.5934  0.1646 -2.4701
19316TIP3   OH279362   1.373   3.872   2.660  0.0632 -0.3846  0.5157
19316TIP3    H179363   1.369   3.869   2.756  2.7815  0.7968  0.7503
19316TIP3    H279364   1.466   3.877   2.640 -0.4172  4.4951 -1.9387
19317TIP3   OH279365   1.056   3.381  15.376  0.6166 -1.1059  0.3689
19317TIP3    H179366   1.102   3.465  15.382  0.9605 -1.3705  2.4528
19317TIP3    H279367   0.985   3.397  15.314  0.5480  0.8093  0.8620
19318TIP3   OH279368   2.330   5.226  16.850 -0.2436  0.5111 -0.0370
19318TIP3    H179369   2.237   5.215  16.828 -0.3191  1.1677 -0.0759
19318TIP3    H279370   2.352   5.312  16.815  1.1563 -0.7904 -2.6769
19319TIP3   OH279371   5.505   3.672   0.321  0.0403  0.0460  0.6640
19319TIP3    H179372   5.550   3.724   0.388  0.4758  0.7117 -0.1207
19319TIP3    H279373   5.445   3.734   0.279  1.2791  0.2208 -0.9491
19320TIP3   OH279374   4.494   5.903   3.647 -0.4258 -0.1314 -0.8117
19320TIP3    H179375   4.515   5.845   3.574  0.0462 -1.5038  0.3704
19320TIP3    H279376   4.403   5.880   3.669 -0.3269 -0.2209 -0.5080
19321TIP3   OH279377   4.673   1.349  16.229 -0.5587 -0.8596 -0.4632
19321TIP3    H179378   4.655   1.297  16.307 -1.6445  0.6251  0.3256
19321TIP3    H279379   4.587   1.364  16.190 -0.7524  2.7355  0.9534
19322TIP3   OH279380   4.091   4.793  11.969  0.0569  0.4713  0.5314
19322TIP3    H179381   4.021   4.768  12.029  1.3051 -0.9751  1.4599
19322TIP3    H279382   4.128   4.872  12.007 -1.1574  1.3695 -0.0792
19323TIP3   OH279383   0.750   5.683  13.392  0.7531 -0.1160  0.3397
19323TIP3    H179384   0.843   5.701  13.384  0.5181  0.6469 -0.9013
19323TIP3    H279385   0.713   5.764  13.430  0.4012  0.1462 -0.5414
19324TIP3   OH279386   1.539   3.366  16.084  0.2909  0.1908  0.0930
19324TIP3    H179387   1.448   3.374  16.113  0.8863  1.5325  1.7596
19324TIP3    H279388   1.546   3.277  16.049 -1.0301 -0.8476  2.2807
19325TIP3   OH279389   2.304   2.406   3.519 -0.3661  0.2313 -0.6790
19325TIP3    H179390   2.320   2.342   3.450 -1.8190 -1.9235  0.8402
19325TIP3    H279391   2.246   2.361   3.580  0.5028  2.1921  1.7446
19326TIP3   OH279392   0.917   5.189  15.275 -0.3939 -0.2584 -0.2792
19326TIP3    H179393   0.982   5.123  15.251  0.6711  0.2713  1.0187
19326TIP3    H279394   0.846   5.139  15.316  0.9096 -0.5800  1.7404
19327TIP3   OH279395   5.849   4.002   0.772  0.0844 -1.1955  0.6807
19327TIP3    H179396   5.933   3.969   0.803  1.0435  1.7080  1.5186
19327TIP3    H279397   5.811   4.046   0.849  0.0832  1.6672 -0.8148
19328TIP3   OH279398   4.681   1.318  13.580 -0.3849  0.4055 -0.0903
19328TIP3    H179399   4.755   1.338  13.636 -0.6427  0.4791  0.2234
19328TIP3    H279400   4.612   1.289  13.640 -0.0462 -1.3625 -0.5155
19329TIP3   OH279401   5.999   2.980   1.476 -0.1404 -0.5138  0.4179
19329TIP3    H179402   6.055   2.950   1.548 -1.0001  1.0600  1.8128
19329TIP3    H279403   6.057   2.985   1.400  0.8015 -2.1654  0.9847
19330TIP3   OH279404   2.629   2.538   3.585  0.4395  0.1340 -0.5481
19330TIP3    H179405   2.721   2.565   3.585  0.5669 -0.2746  0.1286
19330TIP3    H279406   2.631   2.443   3.575  0.2319 -0.2056  2.0513
19331TIP3   OH279407   6.068   1.603  14.831 -0.2924 -0.0316 -0.3458
19331TIP3    H179408   6.083   1.698  14.824  0.7986 -0.0940  0.9321
19331TIP3    H279409   6.154   1.565  14.844 -0.5284 -1.3969 -2.2590
19332TIP3   OH279410   4.884   5.493  16.072 -0.1373  0.1689  0.4169
19332TIP3    H179411   4.807   5.499  16.128  0.2434 -1.4293  1.1624
19332TIP3    H279412   4.951   5.544  16.119 -0.1192 -0.3014  0.9182
19333TIP3   OH279413   1.491   0.772   4.076 -0.2974 -0.0630 -0.5208
19333TIP3    H179414   1.459   0.846   4.126 -0.0501 -0.3815  0.1315
19333TIP3    H279415   1.442   0.774   3.994  0.9963  1.8927 -1.3122
19334TIP3   OH279416   1.765   2.466  16.532  0.3011 -0.4102 -0.0762
19334TIP3    H179417   1.845   2.519  16.531 -0.1234  0.2618  0.3319
19334TIP3    H279418   1.695   2.528  16.510 -0.2172 -0.7942  0.4603
19335TIP3   OH279419   6.078   2.072   4.003 -0.4432  1.1371  0.1749
19335TIP3    H179420   6.106   2.107   3.919  2.0550 -1.5612 -0.2571
19335TIP3    H279421   6.154   2.085   4.061 -0.1738 -1.5084  0.5404
19336TIP3   OH279422   2.266   6.088  12.956  0.2121 -0.0205  0.4528
19336TIP3    H179423   2.255   6.002  12.915  2.5104  0.4488 -1.3443
19336TIP3    H279424   2.361   6.103  12.956 -0.0816  2.2567  1.3103
19337TIP3   OH279425   4.038   4.272   5.988 -0.0424  0.0882  0.5948
19337TIP3    H179426   3.966   4.267   6.051 -1.0352 -0.1284 -0.5258
19337TIP3    H279427   3.999   4.249   5.904  1.1877  0.6529 -0.1687
19338TIP3   OH279428   5.454   5.728   6.594  0.0077  0.3055  0.2440
19338TIP3    H179429   5.411   5.690   6.518  1.1224  1.0795 -0.8101
19338TIP3    H279430   5.401   5.700   6.668 -1.2789 -0.2191 -0.8389
19339TIP3   OH279431   6.183   1.268   3.185  0.0377 -0.1610  0.3350
19339TIP3    H179432   6.249   1.201   3.201  1.3471  1.0434  0.2076
19339TIP3    H279433   6.102   1.231   3.220  0.7358 -1.7406  0.3740
19340TIP3   OH279434   2.075   4.208  12.475 -0.0915  0.5944  0.1581
19340TIP3    H179435   2.014   4.271  12.437 -1.4888  0.2103  1.6480
19340TIP3    H279436   2.121   4.171  12.400 -1.2239  1.3885 -0.9678
19341TIP3   OH279437   1.508   2.246  13.257  0.0934  0.0069 -0.0321
19341TIP3    H179438   1.599   2.219  13.270  0.1522  0.1574 -0.1367
19341TIP3    H279439   1.512   2.340  13.243  0.0618 -0.1832 -1.4654
19342TIP3   OH279440   5.154   4.766  16.520  0.1271 -0.2945 -0.2954
19342TIP3    H179441   5.190   4.845  16.560  3.0452 -0.8398 -1.5712
19342TIP3    H279442   5.213   4.696  16.549 -2.3447 -2.0731  0.7744
19343TIP3   OH279443   2.788   1.998  17.178  0.3522 -0.1607  0.0987
19343TIP3    H179444   2.778   2.092  17.166 -0.0541 -0.4224 -1.9822
19343TIP3    H279445   2.841   1.970  17.104 -0.0923 -1.6649  0.3182
19344TIP3   OH279446   3.091   1.165   0.249  0.3530 -0.0195  0.2410
19344TIP3    H179447   3.056   1.214   0.175 -0.6824 -2.9797 -1.4099
19344TIP3    H279448   3.185   1.156   0.229  0.6749  1.6382  0.8519
19345TIP3   OH279449   1.669   0.932  11.402  0.4245  0.2397 -0.1943
19345TIP3    H179450   1.723   0.999  11.361  0.8707  0.4517  0.7062
19345TIP3    H279451   1.731   0.865  11.431 -0.0029 -0.4979 -0.9556
19346TIP3   OH279452   1.043   0.331   1.059 -0.2598 -0.2782 -0.6808
19346TIP3    H179453   1.081   0.305   1.143 -1.6631  1.7447  0.6921
19346TIP3    H279454   0.963   0.278   1.053 -0.4525 -0.0258 -0.4235
19347TIP3   OH279455   6.488   1.750   1.806  0.1081 -1.0781  0.1210
19347TIP3    H179456   6.427   1.695   1.854  1.7069 -1.3251  1.9865
19347TIP3    H279457   6.438   1.828   1.784 -0.9784 -1.4288  1.2337
19348TIP3   OH279458   4.149   3.702   2.737  0.2654  0.4931  0.2538
19348TIP3    H179459   4.190   3.658   2.811 -2.2935 -0.2235  1.3363
19348TIP3    H279460   4.223   3.731   2.683  2.1658 -0.3931  2.2236
19349TIP3   OH279461   1.579   3.120   3.377 -0.0273 -0.2961 -0.6558
19349TIP3    H179462   1.637   3.131   3.301  2.5912 -0.9569  1.1143
19349TIP3    H279463   1.534   3.037   3.360  1.9402 -1.4152 -0.6936
19350TIP3   OH279464   4.397   5.999  14.218 -0.1021  1.0576  0.2551
19350TIP3    H179465   4.407   5.989  14.124  1.0229  0.1503  0.4383
19350TIP3    H279466   4.333   6.068  14.229 -0.9932  0.4895 -1.1705
19351TIP3   OH279467   1.609   5.860   0.124 -0.6300  0.1017 -0.7028
19351TIP3    H179468   1.611   5.802   0.048 -2.9202  3.0896 -3.3275
19351TIP3    H279469   1.520   5.852   0.158  0.8213 -2.6216  3.1812
19352TIP3   OH279470   1.933   1.040   4.959 -0.1041 -0.1658  0.1058
19352TIP3    H179471   1.905   0.996   5.040 -0.0886 -0.4099 -0.0212
19352TIP3    H279472   1.857   1.032   4.901  0.5508 -1.6686 -0.5830
19353TIP3   OH279473   1.263   2.698  13.238  0.3960  0.1241 -0.1007
19353TIP3    H179474   1.278   2.638  13.165  0.5646 -0.5958  0.5107
19353TIP3    H279475   1.219   2.644  13.304  0.0962  0.8053  0.2699
19354TIP3   OH279476   6.001   1.783  15.502  0.3269  0.2026 -0.1964
19354TIP3    H179477   5.936   1.846  15.536 -1.2639 -0.9785 -0.9059
19354TIP3    H279478   6.068   1.838  15.462 -0.8680  1.4775 -0.5502
19355TIP3   OH279479   0.297   6.230   5.474 -0.2473  0.2751 -0.4224
19355TIP3    H179480   0.365   6.297   5.487  1.2150 -1.3556  0.7651
19355TIP3    H279481   0.321   6.187   5.392  1.0467 -1.2155  0.6799
19356TIP3   OH279482   1.596   6.359   5.893 -0.1739  0.2956  0.6240
19356TIP3    H179483   1.572   6.443   5.931  1.2389  0.3678  1.4383
19356TIP3    H279484   1.650   6.316   5.960  0.3848 -0.6045 -0.3569
19357TIP3   OH279485   3.953   5.831  11.201 -0.1038 -0.0196 -0.0408
19357TIP3    H179486   4.004   5.897  11.248  0.0916  0.5276 -1.0094
19357TIP3    H279487   3.896   5.793  11.268 -0.2838  1.1883  0.5140
19358TIP3   OH279488   2.158   5.978  14.437 -0.0404  0.4624  0.3188
19358TIP3    H179489   2.164   5.883  14.446 -0.7726  0.4612  0.8765
19358TIP3    H279490   2.238   6.011  14.478 -0.8340  0.1775  2.2235
19359TIP3   OH279491   5.235   2.283  11.305  0.2860 -0.0309 -0.2775
19359TIP3    H179492   5.235   2.335  11.385 -1.2963  0.6403 -0.6612
19359TIP3    H279493   5.166   2.323  11.251 -0.3516 -1.9517 -0.9672
19360TIP3   OH279494   4.298   1.027   1.745  0.0512 -0.0926 -0.4352
19360TIP3    H179495   4.285   1.036   1.839  0.6873 -0.9815 -0.2524
19360TIP3    H279496   4.361   1.096   1.723 -0.3342  0.3157 -0.2701
19361TIP3   OH279497   1.422   0.886  13.304  0.7003  0.1264 -0.8901
19361TIP3    H179498   1.331   0.914  13.318  1.6078  2.5783  0.9722
19361TIP3    H279499   1.421   0.845  13.218 -2.4385 -1.3560 -0.2960
19362TIP3   OH279500   1.595   0.830  15.738  0.0804  0.1341 -0.0711
19362TIP3    H179501   1.567   0.843  15.828 -0.3822 -0.6298 -0.0961
19362TIP3    H279502   1.634   0.743  15.736  1.4567  0.7239 -0.2975
19363TIP3   OH279503   4.032   5.924  10.911 -0.5179  0.2909 -0.2303
19363TIP3    H179504   4.000   5.900  10.998  0.8041 -0.5773  0.0477
19363TIP3    H279505   4.044   6.018  10.914 -0.3466  0.2486  0.5788
19364TIP3   OH279506   6.254   4.261  12.839 -0.5018 -0.2666 -0.1915
19364TIP3    H179507   6.283   4.170  12.845  1.0646  0.3150  2.0767
19364TIP3    H279508   6.223   4.282  12.927 -1.1595  1.3197 -0.7668
19365TIP3   OH279509   2.965   4.945   3.852  0.0734 -0.0239 -0.9345
19365TIP3    H179510   2.984   5.025   3.901  0.3028 -0.5813 -0.0791
19365TIP3    H279511   2.896   4.970   3.790 -2.0447  0.1658  1.3295
19366TIP3   OH279512   5.440   2.789  16.790  0.4319 -0.0344 -0.0058
19366TIP3    H179513   5.442   2.882  16.769 -1.2809 -0.0538 -0.3727
19366TIP3    H279514   5.519   2.753  16.750 -0.7227  0.6150 -3.0967
19367TIP3   OH279515   5.910   5.833  11.838 -0.0531  0.0876 -0.2783
19367TIP3    H179516   5.946   5.809  11.923  0.3842 -0.9540 -0.7419
19367TIP3    H279517   5.815   5.819  11.847  0.0535 -0.5647 -0.1347
19368TIP3   OH279518   3.679   0.112  15.086  0.3760 -0.0356 -0.6772
19368TIP3    H179519   3.631   0.117  15.004  1.3278  1.0962 -1.1931
19368TIP3    H279520   3.771   0.106  15.059  0.7399  0.8882  0.2991
19369TIP3   OH279521   4.279   5.992   1.696 -0.4440  0.1305  0.1696
19369TIP3    H179522   4.272   5.958   1.607 -1.3019 -0.4960  0.4576
19369TIP3    H279523   4.360   5.953   1.731 -1.2819 -1.4826  0.4083
19370TIP3   OH279524   0.625   6.026   4.217  0.8551 -0.8277 -0.1688
19370TIP3    H179525   0.573   5.962   4.265  0.2379 -0.1686  0.0678
19370TIP3    H279526   0.705   5.980   4.194  0.5343 -1.5985  0.2246
19371TIP3   OH279527   0.990   6.112   2.329 -0.1356  0.4029 -0.0744
19371TIP3    H179528   0.926   6.048   2.297  0.0735  0.5396 -0.7911
19371TIP3    H279529   1.064   6.059   2.357  0.8052  0.3696 -2.4006
19372TIP3   OH279530   6.681   0.470  12.863 -0.1471  0.0053 -0.4621
19372TIP3    H179531   6.688   0.532  12.936 -2.0624  0.5717 -0.7134
19372TIP3    H279532   6.721   0.390  12.896  1.1712  0.9447  0.3442
19373TIP3   OH279533   4.375   5.188  15.982  0.3756  0.6085 -0.3709
19373TIP3    H179534   4.382   5.274  16.024  0.7934  0.9148 -1.0619
19373TIP3    H279535   4.287   5.187  15.944  0.3254  0.6796 -0.2572
19374TIP3   OH279536   6.620   1.665  16.208 -0.2269  0.1924  0.5576
19374TIP3    H179537   6.688   1.600  16.226 -2.2746 -2.0492  0.6560
19374TIP3    H279538   6.617   1.719  16.287 -0.2795 -1.3143  1.6235
19375TIP3   OH279539   1.346   5.730  13.424  0.2783 -0.0741 -0.0331
19375TIP3    H179540   1.329   5.812  13.378  0.4589 -0.5682 -1.0221
19375TIP3    H279541   1.325   5.662  13.360  3.3784 -0.7685 -0.4879
19376TIP3   OH279542   2.975   3.318   0.093 -0.2875 -0.1092  0.2924
19376TIP3    H179543   2.945   3.278   0.011  1.1454 -1.3524  0.3186
19376TIP3    H279544   2.960   3.250   0.159  0.1124  0.2478  0.7588
19377TIP3   OH279545   3.540   2.670  12.724  0.0082 -0.4755 -0.6105
19377TIP3    H179546   3.518   2.579  12.745  2.0255 -0.8254  0.1947
19377TIP3    H279547   3.533   2.675  12.629 -2.7151 -0.7013 -0.5014
19378TIP3   OH279548   3.866   0.543  11.811  0.8316  0.1263  0.1886
19378TIP3    H179549   3.810   0.617  11.790 -0.0873 -0.3308  0.9190
19378TIP3    H279550   3.955   0.578  11.813  0.6277  0.7896 -1.3820
19379TIP3   OH279551   3.809   4.540   6.274  0.1458  0.0542 -0.1524
19379TIP3    H179552   3.755   4.508   6.202 -0.3047  0.5493 -0.0408
19379TIP3    H279553   3.853   4.462   6.308  0.0223 -0.2477 -0.6797
19380TIP3   OH279554   4.041   5.240  11.363  0.0556  0.4801  0.3083
19380TIP3    H179555   4.113   5.179  11.347 -0.5362  0.0715 -0.8218
19380TIP3    H279556   4.060   5.315  11.307 -0.9842 -0.1208 -0.8971
19381TIP3   OH279557   4.801   3.517  13.911  0.6416 -0.0785 -0.0118
19381TIP3    H179558   4.778   3.580  13.980 -2.6454 -0.1636 -0.8506
19381TIP3    H279559   4.774   3.561  13.830 -1.6713 -2.4241 -0.6312
19382TIP3   OH279560   4.020   6.317   4.040  0.4788  0.9973 -0.9144
19382TIP3    H179561   4.008   6.381   4.110 -0.4797 -0.3388  0.1773
19382TIP3    H279562   4.115   6.312   4.028  0.6706  1.1518  0.3885
19383TIP3   OH279563   1.606   4.164  16.949 -0.2833 -0.0722  0.2455
19383TIP3    H179564   1.588   4.113  16.870 -0.7328  0.2282  0.1476
19383TIP3    H279565   1.519   4.183  16.986 -0.1462  0.9703  0.0541
19384TIP3   OH279566   6.483   4.082  11.302 -0.3665 -0.4370 -0.4208
19384TIP3    H179567   6.431   4.154  11.338  1.1149  0.4665  0.0013
19384TIP3    H279568   6.419   4.026  11.259 -1.7522  0.3517  0.5140
19385TIP3   OH279569   1.868   1.868  13.122  0.3138  0.0413  0.0176
19385TIP3    H179570   1.783   1.835  13.152 -0.1049  0.4790 -0.6509
19385TIP3    H279571   1.926   1.792  13.126 -0.4953 -0.6657 -0.9886
19386TIP3   OH279572   2.422   4.669   3.633 -0.5170  0.0856  0.1837
19386TIP3    H179573   2.421   4.579   3.601 -0.9644 -0.2764  1.1647
19386TIP3    H279574   2.330   4.692   3.642 -0.4059  0.7227 -0.2563
19387TIP3   OH279575   5.396   3.003   2.654  0.3690  0.3912  0.1567
19387TIP3    H179576   5.457   2.951   2.603 -1.2308 -1.9326  0.4409
19387TIP3    H279577   5.350   3.057   2.589  0.9234  0.2242 -0.3817
19388TIP3   OH279578   0.429   0.952   5.986 -0.1097 -0.2119 -0.2553
19388TIP3    H179579   0.355   0.976   5.930  0.8075 -0.1666 -1.4724
19388TIP3    H279580   0.486   0.899   5.930  0.3237 -1.0713  0.9499
19389TIP3   OH279581   6.597   6.536  13.503 -0.4684 -0.5421 -0.4225
19389TIP3    H179582   6.646   6.588  13.566  1.9523 -1.4623 -1.4138
19389TIP3    H279583   6.569   6.459  13.553 -0.9659  0.0204  0.1768
19390TIP3   OH279584   3.362   0.813  10.751 -0.4682  0.4504 -0.5901
19390TIP3    H179585   3.423   0.774  10.689 -0.8952  1.2138 -1.5077
19390TIP3    H279586   3.418   0.841  10.824  0.3302  1.3110 -1.4971
19391TIP3   OH279587   0.264   0.314   5.041  0.0133  0.0948  0.6213
19391TIP3    H179588   0.324   0.344   4.972  0.0960  2.3361  1.5993
19391TIP3    H279589   0.203   0.256   4.995  0.9678  0.3131 -1.0343
19392TIP3   OH279590   4.491   5.276  13.971 -0.5129  0.1940  0.2014
19392TIP3    H179591   4.527   5.308  13.888 -0.3451 -2.1521 -0.6905
19392TIP3    H279592   4.397   5.291  13.964 -0.3969  0.8458 -0.0134
19393TIP3   OH279593   2.217   2.539   3.752 -0.0951  0.6615 -0.4588
19393TIP3    H179594   2.129   2.536   3.714  0.2777 -1.3229 -1.3034
19393TIP3    H279595   2.273   2.501   3.684  0.7928 -1.9027  1.5463
19394TIP3   OH279596   1.377   6.660   1.574 -0.2444  0.2003 -0.4950
19394TIP3    H179597   1.445   6.600   1.603  0.1927  0.5394 -0.8075
19394TIP3    H279598   1.423   6.742   1.558 -0.9376  0.8092  0.5444
19395TIP3   OH279599   0.583   3.954  11.125  0.4872 -0.1281  0.2580
19395TIP3    H179600   0.511   3.957  11.189  1.3595 -0.2956  1.2828
19395TIP3    H279601   0.597   4.046  11.101  0.5661  0.0112  0.8071
19396TIP3   OH279602   2.525   4.853  16.400 -0.3845 -0.0568  0.7196
19396TIP3    H179603   2.522   4.947  16.422  1.6620  0.3484 -0.4074
19396TIP3    H279604   2.488   4.849  16.311 -0.5463 -0.3205  0.8015
19397TIP3   OH279605   0.923   3.862  16.757 -0.4270 -0.1719  0.0402
19397TIP3    H179606   1.018   3.859  16.768 -0.4381 -0.8164  0.0386
19397TIP3    H279607   0.899   3.772  16.731 -0.9209  0.2213 -0.9256
19398TIP3   OH279608   4.472   6.322   4.287 -0.6870  0.3585  0.1421
19398TIP3    H179609   4.501   6.298   4.375  0.4075 -1.1129 -0.5712
19398TIP3    H279610   4.550   6.314   4.233 -1.7014 -0.4879 -1.2687
19399TIP3   OH279611   4.366   6.391   3.112 -0.0514  0.0101 -0.6020
19399TIP3    H179612   4.287   6.337   3.111  0.0593 -0.1512 -0.9543
19399TIP3    H279613   4.438   6.327   3.107  0.0731  0.1994 -1.5135
19400TIP3   OH279614   3.682   2.141   2.755  0.1682  0.0791  0.0734
19400TIP3    H179615   3.600   2.114   2.713  0.1303  2.0331 -1.3115
19400TIP3    H279616   3.707   2.221   2.708  1.9336  0.5403  1.6571
19401TIP3   OH279617   3.392   3.245   1.499  0.3833  0.2023  0.6610
19401TIP3    H179618   3.310   3.273   1.540 -0.0012  0.1951 -0.0933
19401TIP3    H279619   3.459   3.298   1.542 -0.0646  0.5222  0.9761
19402TIP3   OH279620   6.214   6.659   4.098  0.0115 -0.0985 -0.0622
19402TIP3    H179621   6.299   6.655   4.056 -0.3321  1.1715 -0.9160
19402TIP3    H279622   6.155   6.694   4.032 -0.7793  0.8765  1.1136
19403TIP3   OH279623   5.742   1.941  16.065 -0.0115  0.0478 -0.0722
19403TIP3    H179624   5.788   1.973  16.143  0.3231  1.3604 -0.7781
19403TIP3    H279625   5.671   1.888  16.100 -0.7992  1.8183  1.2223
19404TIP3   OH279626   0.617   5.495   1.665 -0.5024 -0.1472 -0.4466
19404TIP3    H179627   0.668   5.418   1.639 -2.2262 -1.5835  0.1632
19404TIP3    H279628   0.634   5.503   1.759  1.4858  1.7124 -0.8919
19405TIP3   OH279629   3.254   2.974   3.323  0.1871 -0.0146 -0.0527
19405TIP3    H179630   3.241   3.069   3.320  0.7181  0.0811  0.3581
19405TIP3    H279631   3.332   2.963   3.378 -0.3158 -0.7266  0.5315
19406TIP3   OH279632   5.756   2.750  11.842 -0.5106  0.5629  0.1520
19406TIP3    H179633   5.834   2.743  11.898 -0.9431  0.8047  0.7984
19406TIP3    H279634   5.761   2.675  11.784  0.3077  0.6795  0.0572
19407TIP3   OH279635   4.276   6.398   5.436 -0.1326 -0.6307  0.3434
19407TIP3    H179636   4.197   6.347   5.418 -1.4694  1.2384  0.5852
19407TIP3    H279637   4.247   6.466   5.497  0.7961  2.2140 -2.1339
19408TIP3   OH279638   1.754   1.531   3.596 -0.1438  0.4547  0.1039
19408TIP3    H179639   1.759   1.573   3.510  0.6693  0.4249  0.1290
19408TIP3    H279640   1.703   1.592   3.649  0.8734  1.3328  0.0893
19409TIP3   OH279641   6.663   0.704   5.247 -0.4451  0.3984 -0.0772
19409TIP3    H179642   6.601   0.702   5.175  0.9451  0.6223 -1.3196
19409TIP3    H279643   6.742   0.663   5.212  0.9442  2.3306  0.6421
19410TIP3   OH279644   0.161   2.225   0.721  0.0266  0.0056 -0.1542
19410TIP3    H179645   0.134   2.302   0.671  3.3492  0.6098 -1.2821
19410TIP3    H279646   0.100   2.222   0.795 -0.3581  3.6494 -0.1290
19411TIP3   OH279647   2.117   3.332  12.724  0.5531 -0.8488 -0.1887
19411TIP3    H179648   2.195   3.375  12.759  0.5213 -0.3215 -0.7398
19411TIP3    H279649   2.148   3.289  12.644  0.3228 -0.7903 -0.3095
19412TIP3   OH279650   5.432   1.826  10.762  0.0949  0.0115  0.4046
19412TIP3    H179651   5.418   1.919  10.781  0.9180 -0.0635  1.4967
19412TIP3    H279652   5.397   1.814  10.674  2.9088  2.1378 -1.2097
19413TIP3   OH279653   4.391   1.940   1.429  0.2832  0.0224  0.0559
19413TIP3    H179654   4.398   1.926   1.523 -0.2561 -0.5173  0.0280
19413TIP3    H279655   4.324   2.008   1.419  1.2183  0.9568  0.1046
19414TIP3   OH279656   3.761   5.426  15.109 -0.1239  0.5624 -0.1208
19414TIP3    H179657   3.741   5.381  15.027 -1.0374 -0.1111  0.4473
19414TIP3    H279658   3.768   5.355  15.173 -0.0376  1.1223  0.5004
19415TIP3   OH279659   5.971   3.350   3.813  0.3355 -0.1107 -0.4348
19415TIP3    H179660   6.029   3.308   3.876  0.2402  1.2468  0.6085
19415TIP3    H279661   5.928   3.421   3.862 -1.0129 -0.0671 -1.5834
19416TIP3   OH279662   4.380   4.510  16.656  0.1587 -0.1664 -0.3919
19416TIP3    H179663   4.447   4.527  16.722 -0.1298 -1.4995  0.2661
19416TIP3    H279664   4.360   4.417  16.664 -1.8668  0.2074 -0.4804
19417TIP3   OH279665   2.509   0.779  13.382  0.0698  0.2718  0.3069
19417TIP3    H179666   2.472   0.853  13.430 -0.8026  0.3560 -0.4790
19417TIP3    H279667   2.524   0.712  13.449  0.5017  1.0093  0.9651
19418TIP3   OH279668   1.689   4.917   3.730  0.0969  0.6354 -0.0863
19418TIP3    H179669   1.714   4.993   3.783 -0.0636  1.6752 -1.4595
19418TIP3    H279670   1.614   4.946   3.679  0.8571  0.0113 -1.6222
19419TIP3   OH279671   1.458   5.725   1.551 -0.2944 -0.5155 -0.1093
19419TIP3    H179672   1.553   5.717   1.549 -0.3436 -2.4443  1.6615
19419TIP3    H279673   1.439   5.801   1.496  2.2798  0.1577 -0.1961
19420TIP3   OH279674   4.662   6.169  11.829 -0.3605  0.1803 -0.3057
19420TIP3    H179675   4.667   6.227  11.906 -1.0961 -1.0041  0.6679
19420TIP3    H279676   4.573   6.181  11.796  0.0037  0.7987 -1.0807
19421TIP3   OH279677   1.401   4.761  14.515 -0.2809 -0.3651 -0.2446
19421TIP3    H179678   1.345   4.754  14.593  0.8189 -1.3869  0.4864
19421TIP3    H279679   1.341   4.787  14.445 -0.8597  3.7407  1.4938
19422TIP3   OH279680   5.387   4.488   6.368 -0.8944  0.1216  0.2896
19422TIP3    H179681   5.425   4.413   6.323  0.7739  0.3436  1.2480
19422TIP3    H279682   5.422   4.564   6.321  1.6336  0.3861  2.4102
19423TIP3   OH279683   5.220   6.530  15.534  0.0361 -0.1285  0.0862
19423TIP3    H179684   5.212   6.607  15.590 -2.1095 -0.2540  0.0366
19423TIP3    H279685   5.295   6.482  15.570  0.9292  1.5484  0.6023
19424TIP3   OH279686   5.110   1.730   4.291 -0.0482  0.1559  0.5909
19424TIP3    H179687   5.188   1.689   4.330  1.3713  0.8948 -1.3155
19424TIP3    H279688   5.074   1.663   4.233  0.8984  0.7286 -0.7188
19425TIP3   OH279689   3.907   6.416   0.619 -0.6044 -0.0504  0.3239
19425TIP3    H179690   3.836   6.418   0.556 -0.8567  0.4370  0.6153
19425TIP3    H279691   3.964   6.489   0.593  0.8861 -1.6526 -1.1368
19426TIP3   OH279692   4.602   0.995   5.051 -0.4158 -0.5136  0.1750
19426TIP3    H179693   4.542   1.030   4.985 -0.1880 -1.6456 -0.6562
19426TIP3    H279694   4.649   1.072   5.082 -0.9488  0.1297 -0.5397
19427TIP3   OH279695   0.824   5.205   3.073 -0.5177 -0.0814  0.6921
19427TIP3    H179696   0.746   5.249   3.105  0.3808  0.0126  2.9181
19427TIP3    H279697   0.826   5.122   3.120  0.4624 -0.2907  0.3099
19428TIP3   OH279698   5.741   2.457  11.060 -0.2442 -0.2097  0.0126
19428TIP3    H179699   5.799   2.468  11.136  1.5477 -2.6319 -0.8651
19428TIP3    H279700   5.700   2.372  11.073 -3.6554  1.3326  0.4847
19429TIP3   OH279701   0.233   1.335   4.109 -0.1158  0.3757 -0.3041
19429TIP3    H179702   0.272   1.375   4.186  0.2989 -0.8354  0.1409
19429TIP3    H279703   0.157   1.390   4.089 -2.3904 -1.1879  3.1342
19430TIP3   OH279704   1.768   3.221  10.510  0.3186 -0.4094  0.0342
19430TIP3    H179705   1.838   3.197  10.449 -0.2618 -2.5230  0.1347
19430TIP3    H279706   1.809   3.213  10.597  0.1413 -1.0017  0.0650
19431TIP3   OH279707   1.982   4.275  16.255 -0.1283 -0.2503 -0.4763
19431TIP3    H179708   1.967   4.284  16.161 -0.0178 -0.1391 -0.4829
19431TIP3    H279709   1.925   4.341  16.294 -0.4266 -0.5234 -0.4471
19432TIP3   OH279710   6.124   2.895  13.967 -0.8576  0.7142  0.3609
19432TIP3    H179711   6.110   2.953  14.042 -1.6754  1.6096 -0.4669
19432TIP3    H279712   6.216   2.906  13.945 -0.9123  1.3921  0.4606
19433TIP3   OH279713   5.207   0.783  11.562  0.6146 -0.7609  0.4847
19433TIP3    H179714   5.236   0.786  11.471  1.5349 -0.0728  0.7920
19433TIP3    H279715   5.223   0.693  11.589  0.3095 -0.9794 -0.0295
19434TIP3   OH279716   5.878   1.066  15.782 -0.0106 -0.2314  0.2826
19434TIP3    H179717   5.839   1.048  15.868  0.0884  0.1487  0.4084
19434TIP3    H279718   5.903   1.158  15.786 -0.6212 -0.0302 -0.3994
19435TIP3   OH279719   5.555   6.365   5.253 -0.0364 -0.0077  0.0731
19435TIP3    H179720   5.514   6.448   5.278  0.1480  0.5520 -1.3486
19435TIP3    H279721   5.644   6.371   5.289 -0.5227 -0.3242  1.3781
19436TIP3   OH279722   1.774   6.319  16.527  0.2857  0.5001 -0.1650
19436TIP3    H179723   1.777   6.225  16.508  1.5529  0.4517  0.2477
19436TIP3    H279724   1.687   6.332  16.567 -0.7192 -0.1243 -2.0273
19437TIP3   OH279725   1.964   1.985  16.854  0.1581 -0.3764 -0.4417
19437TIP3    H179726   1.941   2.038  16.777  0.4665  0.2024 -0.1466
19437TIP3    H279727   1.880   1.959  16.891 -0.0052 -1.8161 -1.7361
19438TIP3   OH279728   1.211   0.204  13.705 -0.2327 -0.0810 -0.2138
19438TIP3    H179729   1.207   0.186  13.799 -0.8344  1.2666  0.0329
19438TIP3    H279730   1.173   0.126  13.665 -1.8603  0.1582  0.7797
19439TIP3   OH279731   6.115   5.649   6.021  0.0270  0.7569  0.2915
19439TIP3    H179732   6.049   5.706   5.981 -0.9630 -0.3183  0.3744
19439TIP3    H279733   6.181   5.710   6.055 -1.2413  1.8871  0.8019
19440TIP3   OH279734   6.695   3.816   3.963 -0.1748  0.1436 -0.1607
19440TIP3    H179735   6.713   3.752   4.032 -0.0750  1.9138  1.5363
19440TIP3    H279736   6.780   3.857   3.945 -0.1469 -0.4420 -1.5615
19441TIP3   OH279737   0.750   2.488   2.237  0.0656  0.3580 -0.5324
19441TIP3    H179738   0.669   2.523   2.274 -1.1759 -0.8041 -1.9876
19441TIP3    H279739   0.814   2.496   2.308 -1.4950  0.6633  0.9208
19442TIP3   OH279740   1.806   4.048   1.081 -0.2905 -0.4494 -0.3877
19442TIP3    H179741   1.783   4.075   0.992 -2.4787 -1.1190 -0.0966
19442TIP3    H279742   1.762   4.111   1.138  1.1704  0.0361  0.2529
19443TIP3   OH279743   6.212   0.220   4.649  0.0446  0.3939  0.1299
19443TIP3    H179744   6.194   0.314   4.643 -2.4558 -0.0791 -0.7642
19443TIP3    H279745   6.162   0.191   4.725 -3.2494 -0.9427 -2.3119
19444TIP3   OH279746   1.259   0.541   0.786  0.1561 -0.0164  0.4595
19444TIP3    H179747   1.354   0.534   0.775  0.2100 -0.4114  1.1416
19444TIP3    H279748   1.248   0.617   0.843  0.1572 -0.7685  1.5058
19445TIP3   OH279749   1.342   3.306  12.132 -0.1233  0.4958  0.7379
19445TIP3    H179750   1.352   3.379  12.193 -2.4678 -0.8871  2.9920
19445TIP3    H279751   1.413   3.246  12.154 -0.0495  0.6979  1.0562
19446TIP3   OH279752   2.982   2.811  16.838  0.2185 -0.4167 -0.3771
19446TIP3    H179753   2.953   2.900  16.817  2.7392  0.9482  1.3863
19446TIP3    H279754   2.902   2.762  16.851 -1.3224  2.3356  1.4130
19447TIP3   OH279755   6.187   4.828  13.158  0.0609 -0.2704  0.2377
19447TIP3    H179756   6.113   4.858  13.210 -0.1916 -0.7798  0.1777
19447TIP3    H279757   6.242   4.906  13.146  0.7328 -0.3889  2.2661
19448TIP3   OH279758   6.092   4.066  14.939 -0.1915 -0.2123  0.3628
19448TIP3    H179759   6.071   3.990  14.993  2.0633 -1.5454 -0.4976
19448TIP3    H279760   6.153   4.117  14.992  3.1863 -2.2519 -1.1867
19449TIP3   OH279761   2.237   2.651  14.329 -0.0353  0.2211  0.0436
19449TIP3    H179762   2.268   2.620  14.414 -1.2376  0.2962  0.5259
19449TIP3    H279763   2.301   2.717  14.302 -0.3097  1.1139  1.4888
19450TIP3   OH279764   5.721   3.017   3.824 -0.1420  0.0372  0.7017
19450TIP3    H179765   5.783   3.069   3.773  0.6932  1.2601  2.8346
19450TIP3    H279766   5.682   3.079   3.886 -0.0800 -1.5837  2.4766
19451TIP3   OH279767   6.447   3.941   2.969  0.0529 -0.3955 -0.3807
19451TIP3    H179768   6.385   3.970   3.036 -0.8715 -0.1403 -1.3112
19451TIP3    H279769   6.399   3.950   2.887  0.5920 -2.1839 -0.9530
19452TIP3   OH279770   3.441   0.837   4.106  0.6273  0.1889 -0.0808
19452TIP3    H179771   3.494   0.911   4.075  0.0860  0.3770 -0.5965
19452TIP3    H279772   3.370   0.878   4.155  0.3502  0.0162 -0.3307
19453TIP3   OH279773   0.160   4.145  15.942  0.0814 -0.0921 -0.3482
19453TIP3    H179774   0.068   4.149  15.971  0.4220  1.7568  0.6232
19453TIP3    H279775   0.177   4.052  15.932 -1.9115 -0.4929 -0.5688
19454TIP3   OH279776   6.709   5.713  12.833  0.1881 -0.1933 -0.1687
19454TIP3    H179777   6.716   5.638  12.893 -1.0969 -0.3595 -0.2021
19454TIP3    H279778   6.699   5.789  12.890  2.1660  0.0812 -0.1116
19455TIP3   OH279779   3.867   1.053  16.304  0.2254 -0.4228 -0.2290
19455TIP3    H179780   3.864   1.095  16.218  0.9231 -0.2379 -0.1677
19455TIP3    H279781   3.849   1.123  16.366 -0.5926 -0.6178 -0.2329
19456TIP3   OH279782   1.052   0.163  11.094 -0.4471 -0.0765  0.4108
19456TIP3    H179783   1.119   0.118  11.145 -0.6061 -0.7934 -0.0017
19456TIP3    H279784   1.101   0.218  11.033 -0.2480 -0.2114  0.4506
19457TIP3   OH279785   3.028   4.829   3.384 -0.3525 -0.0118  0.4754
19457TIP3    H179786   3.098   4.883   3.421 -0.3274  0.5094 -0.3241
19457TIP3    H279787   2.998   4.877   3.307 -1.1945 -0.5200  0.4708
19458TIP3   OH279788   6.417   1.689  14.560 -0.3158  0.1119 -0.2616
19458TIP3    H179789   6.445   1.614  14.613  1.0104  0.1319 -0.8777
19458TIP3    H279790   6.327   1.670  14.536 -0.9506  0.0750  1.9454
19459TIP3   OH279791   2.886   2.008  12.286 -0.0910 -0.1741  0.4119
19459TIP3    H179792   2.813   2.045  12.237 -0.6198 -0.4851  0.9434
19459TIP3    H279793   2.880   2.050  12.372  2.7191  2.8088 -0.6527
19460TIP3   OH279794   5.000   4.089  12.439  0.4779 -0.0395 -0.1122
19460TIP3    H179795   5.034   4.148  12.507  0.9014 -0.5224  0.1010
19460TIP3    H279796   4.941   4.030  12.486 -1.0379  1.0510 -0.5400
19461TIP3   OH279797   2.027   4.254   0.974 -0.1988 -0.2081 -0.2074
19461TIP3    H179798   1.992   4.308   0.902 -0.3062 -1.5438 -1.2066
19461TIP3    H279799   1.979   4.172   0.967  0.2751 -0.6085  1.0009
19462TIP3   OH279800   1.412   5.682  16.602  0.3681  0.1715  0.1801
19462TIP3    H179801   1.339   5.732  16.567  0.3432  0.9645  1.2955
19462TIP3    H279802   1.372   5.624  16.667  0.8785  2.0496  2.3147
19463TIP3   OH279803   3.744   5.293  11.778  0.1681  0.1351 -0.0576
19463TIP3    H179804   3.766   5.248  11.696  2.4696  0.7974  0.1087
19463TIP3    H279805   3.818   5.273  11.836 -1.3747 -0.2457  1.8681
19464TIP3   OH279806   6.200   2.096  13.972  0.7876 -0.2262  0.1069
19464TIP3    H179807   6.192   2.092  14.067 -0.2449 -2.6196  0.0163
19464TIP3    H279808   6.119   2.138  13.943  0.3278 -0.9606  0.2687
19465TIP3   OH279809   2.012   3.558  11.267 -0.2245 -0.0917 -0.1234
19465TIP3    H179810   1.971   3.644  11.271  2.1538  1.2735 -2.2330
19465TIP3    H279811   1.994   3.526  11.179  1.1039 -0.5510 -0.2518
19466TIP3   OH279812   6.719   0.391  16.519  0.4600 -0.4660 -0.1482
19466TIP3    H179813   6.796   0.444  16.496  0.4864 -0.2617  0.3842
19466TIP3    H279814   6.662   0.452  16.567 -0.9103 -0.0743 -2.1284
19467TIP3   OH279815   3.484   2.549   4.551 -0.4483 -0.0715 -0.3702
19467TIP3    H179816   3.404   2.566   4.600  0.8559  1.9761  1.2595
19467TIP3    H279817   3.553   2.545   4.617  1.2092  1.3068 -1.8876
19468TIP3   OH279818   6.373   2.570  13.569 -0.3022  0.5883  0.1327
19468TIP3    H179819   6.280   2.560  13.589 -0.7883  0.8860 -1.7794
19468TIP3    H279820   6.398   2.654  13.607 -0.2062 -0.4492  2.5543
19469TIP3   OH279821   5.552   1.235   4.601 -0.1287  0.0932 -0.2409
19469TIP3    H179822   5.532   1.149   4.566  2.5452 -0.8039  0.1797
19469TIP3    H279823   5.534   1.228   4.695  0.7603 -0.2568 -0.0906
19470TIP3   OH279824   0.404   2.745   2.246  0.3253 -0.2593 -0.0816
19470TIP3    H179825   0.386   2.788   2.330 -0.0167  0.8520 -0.6975
19470TIP3    H279826   0.321   2.750   2.199  0.5273 -0.8359 -0.5138
19471TIP3   OH279827   4.882   6.444   4.661 -0.0766 -0.1163 -0.7838
19471TIP3    H179828   4.972   6.429   4.635  0.1459 -0.7100  0.2796
19471TIP3    H279829   4.846   6.356   4.675  0.6957  0.0607  3.6951
19472TIP3   OH279830   5.633   3.830  14.765  0.0343  0.1868  0.3543
19472TIP3    H179831   5.703   3.851  14.827  0.3844  0.0295  0.0137
19472TIP3    H279832   5.553   3.860  14.808  0.3962  1.1073  0.3995
19473TIP3   OH279833   6.331   2.456   3.220 -0.3405  0.0636  0.2346
19473TIP3    H179834   6.399   2.500   3.271 -0.4250  2.4500 -1.5938
19473TIP3    H279835   6.265   2.431   3.286  1.4384 -0.8079  1.8022
19474TIP3   OH279836   0.467   3.108  13.108  0.7268  0.1093 -0.1319
19474TIP3    H179837   0.486   3.139  13.196 -2.9016  1.0237  0.4555
19474TIP3    H279838   0.482   3.014  13.111  1.8021  0.2949  1.0645
19475TIP3   OH279839   3.555   0.597   2.770  0.3396 -0.2521  0.2076
19475TIP3    H179840   3.571   0.555   2.686  0.9039  1.6087 -0.6715
19475TIP3    H279841   3.486   0.545   2.811  1.6104 -2.5197 -0.3854
19476TIP3   OH279842   2.584   3.891   1.127  0.1911 -0.0348 -0.2175
19476TIP3    H179843   2.663   3.934   1.159 -0.5621  0.1439  1.5712
19476TIP3    H279844   2.522   3.962   1.110  0.0714 -0.2267 -0.6118
19477TIP3   OH279845   1.425   4.125  11.110  0.8900  0.2437 -0.2462
19477TIP3    H179846   1.390   4.059  11.051  0.5189  0.2020  0.0180
19477TIP3    H279847   1.497   4.165  11.061 -1.0643  2.0674 -1.8039
19478TIP3   OH279848   0.221   0.845  10.986  0.2685 -0.2710 -0.2705
19478TIP3    H179849   0.178   0.798  10.915  1.0611 -0.2791 -0.7652
19478TIP3    H279850   0.293   0.892  10.943  0.8183 -0.3582  0.5377
19479TIP3   OH279851   6.000   4.161   6.454  0.3261  0.2981  0.4317
19479TIP3    H179852   6.061   4.146   6.525 -0.2913 -0.3498  0.8375
19479TIP3    H279853   5.954   4.241   6.478  0.8372  0.6546  0.2417
19480TIP3   OH279854   3.681   5.070   1.255  0.2176  0.9549 -0.3288
19480TIP3    H179855   3.590   5.077   1.285  0.3301 -0.6412  0.4898
19480TIP3    H279856   3.682   4.995   1.196  1.4537 -0.7643  1.7414
19481TIP3   OH279857   0.744   5.868  10.560  0.2117  0.6261 -0.3406
19481TIP3    H179858   0.692   5.791  10.537 -2.5936  1.2780  3.0050
19481TIP3    H279859   0.818   5.832  10.610  0.0065 -0.0166 -0.4887
19482TIP3   OH279860   3.690   4.978   0.384  0.1632  0.2669  0.2984
19482TIP3    H179861   3.749   4.966   0.310 -0.6354 -0.2222 -0.2786
19482TIP3    H279862   3.635   5.053   0.360 -1.3992 -1.0782 -0.5106
19483TIP3   OH279863   5.296   3.998  14.114 -0.2169 -0.3086  0.0243
19483TIP3    H179864   5.270   3.928  14.174  0.2174 -0.3411  0.1719
19483TIP3    H279865   5.230   3.995  14.044 -0.5267 -0.4890  0.3236
19484TIP3   OH279866   3.552   1.789  10.642 -0.5692 -0.2285 -0.2422
19484TIP3    H179867   3.493   1.717  10.662  0.4154 -1.1962 -0.6943
19484TIP3    H279868   3.542   1.803  10.547 -1.7586  1.1743  0.0557
19485TIP3   OH279869   4.366   0.852  15.034  1.0456 -1.0668  0.2812
19485TIP3    H179870   4.325   0.778  15.079 -0.5096 -0.0723  0.5713
19485TIP3    H279871   4.387   0.914  15.104 -2.7211  1.1489 -0.2767
19486TIP3   OH279872   4.121   1.728   6.624  0.1822 -0.0495  0.3338
19486TIP3    H179873   4.118   1.786   6.700  1.2154 -0.7543  0.9316
19486TIP3    H279874   4.167   1.779   6.557 -2.9895  1.6172 -0.8250
19487TIP3   OH279875   5.340   6.774   5.063  0.0071 -0.2241  0.2809
19487TIP3    H179876   5.333   6.810   4.975  1.1865 -0.8534 -0.0934
19487TIP3    H279877   5.353   6.851   5.119 -0.0452  0.1293 -0.1810
19488TIP3   OH279878   2.125   1.493   2.500  0.8058 -0.4828 -0.0146
19488TIP3    H179879   2.172   1.573   2.521 -1.0685  0.3020  1.4416
19488TIP3    H279880   2.035   1.521   2.483  0.2705 -2.1891 -0.2396
19489TIP3   OH279881   4.837   2.551  13.856  0.2304  0.1979 -0.0888
19489TIP3    H179882   4.844   2.647  13.854 -2.3666  0.4626 -1.2835
19489TIP3    H279883   4.851   2.524  13.766 -0.8420 -0.3329 -0.1174
19490TIP3   OH279884   5.138   4.627  12.366  0.2509 -0.3079 -0.6239
19490TIP3    H179885   5.180   4.711  12.348 -0.9380  0.2183 -1.0092
19490TIP3    H279886   5.123   4.588  12.279  0.7279 -0.8954 -0.4532
19491TIP3   OH279887   5.270   1.575   0.674 -0.0926 -0.2841 -0.2004
19491TIP3    H179888   5.197   1.633   0.697  1.0799  0.6351  1.3705
19491TIP3    H279889   5.289   1.528   0.754  3.1326  1.8851  0.4731
19492TIP3   OH279890   2.456   3.224   4.279 -0.0230 -0.0388 -0.0354
19492TIP3    H179891   2.424   3.135   4.267 -1.4407  0.5760 -1.1070
19492TIP3    H279892   2.399   3.261   4.348  0.7904 -0.0667  0.6601
19493TIP3   OH279893   6.390   4.924  12.216 -0.0296  0.7206  0.2922
19493TIP3    H179894   6.308   4.906  12.264 -0.5883  1.7573 -0.2508
19493TIP3    H279895   6.459   4.914  12.282 -0.2947 -2.6350  0.2436
19494TIP3   OH279896   5.088   6.605   5.102 -0.1139  0.6954 -0.8102
19494TIP3    H179897   5.171   6.651   5.114  0.4091 -0.3968 -0.0821
19494TIP3    H279898   5.035   6.633   5.177 -0.3086  1.1681 -1.1184
19495TIP3   OH279899   6.162   5.490   1.412  0.6678 -0.7619  0.9460
19495TIP3    H179900   6.103   5.511   1.485  0.5635 -0.7074  0.8453
19495TIP3    H279901   6.154   5.565   1.353 -0.6559 -1.6232 -0.0396
19496TIP3   OH279902   3.430   6.547  15.690 -0.0667 -0.5860 -0.0224
19496TIP3    H179903   3.411   6.636  15.720 -0.2619 -0.3718 -0.7752
19496TIP3    H279904   3.455   6.557  15.599 -0.7758 -1.3820 -0.3199
19497TIP3   OH279905   5.457   5.559  13.264 -0.3703 -0.0463 -0.0133
19497TIP3    H179906   5.542   5.520  13.242 -0.6948 -0.2927 -0.8759
19497TIP3    H279907   5.398   5.525  13.197 -1.4517 -0.9710  1.3556
19498TIP3   OH279908   1.161   4.749   3.881 -0.1724 -0.3368 -0.0808
19498TIP3    H179909   1.158   4.844   3.887 -1.9068 -0.4323  1.2865
19498TIP3    H279910   1.173   4.719   3.971 -0.9884 -1.4085 -0.2973
19499TIP3   OH279911   1.758   5.276  14.662  0.4765  0.2929 -0.2935
19499TIP3    H179912   1.847   5.277  14.697  0.7643  1.0987 -1.0078
19499TIP3    H279913   1.769   5.266  14.567 -0.2140 -0.1535 -0.3332
19500TIP3   OH279914   4.000   2.211   4.481  0.0072  0.4956 -0.3768
19500TIP3    H179915   4.001   2.123   4.443 -1.7673  0.8434 -1.3328
19500TIP3    H279916   3.966   2.198   4.570 -1.4568  0.3091 -0.9311
19501TIP3   OH279917   5.737   1.084   5.280 -0.1854  0.5272 -0.4422
19501TIP3    H179918   5.770   1.078   5.370  0.0801 -0.7203 -0.6069
19501TIP3    H279919   5.658   1.029   5.280  0.5496 -0.5682 -1.2824
19502TIP3   OH279920   4.533   0.576  11.223 -0.2431  0.5794  0.0070
19502TIP3    H179921   4.597   0.636  11.184 -0.0092 -1.2414 -2.6765
19502TIP3    H279922   4.449   0.617  11.205 -0.1380 -0.0969 -2.4743
19503TIP3   OH279923   5.850   2.939  16.521  0.2452  0.8120  0.4875
19503TIP3    H179924   5.772   2.892  16.493  1.1406 -0.7285  0.4220
19503TIP3    H279925   5.818   3.023  16.554 -1.3185  0.6266 -0.4570
19504TIP3   OH279926   0.132   6.438  15.354  0.8167 -0.6656  0.0177
19504TIP3    H179927   0.151   6.345  15.366  1.9289 -0.4524 -0.0126
19504TIP3    H279928   0.080   6.462  15.431 -0.7387 -1.6323 -0.6961
19505TIP3   OH279929   2.011   5.406  10.763 -0.0952  0.4476 -0.2502
19505TIP3    H179930   1.918   5.405  10.739 -0.0999 -0.2867 -0.2186
19505TIP3    H279931   2.021   5.485  10.816 -0.5580  0.8963 -0.8250
19506TIP3   OH279932   6.757   3.515   1.096 -0.2659 -0.2593  0.3370
19506TIP3    H179933   6.793   3.440   1.144 -1.2042 -0.8629  0.1128
19506TIP3    H279934   6.706   3.563   1.162  0.9648  0.6373  0.6726
19507TIP3   OH279935   5.042   0.846   5.713 -0.5062  0.4482 -0.1609
19507TIP3    H179936   4.953   0.817   5.689 -1.0397 -0.5187  2.6908
19507TIP3    H279937   5.045   0.938   5.685 -3.1200  1.0779  1.3120
19508TIP3   OH279938   0.549   0.657   3.930 -0.6287  0.1496 -0.1264
19508TIP3    H179939   0.501   0.615   4.002 -1.7339  1.8239  0.1589
19508TIP3    H279940   0.560   0.748   3.957  2.1164  0.0308 -0.5348
19509TIP3   OH279941   2.370   1.282  12.972 -0.3099  0.2073 -0.6288
19509TIP3    H179942   2.396   1.331  12.894  1.3217  0.8659  0.2722
19509TIP3    H279943   2.276   1.297  12.980 -0.1378  1.8699 -1.3057
19510TIP3   OH279944   1.946   4.973  14.481  0.1047  0.0570 -0.2169
19510TIP3    H179945   1.930   4.878  14.479  4.9602 -1.0302  0.1407
19510TIP3    H279946   1.933   5.001  14.390  0.8415 -1.4560 -0.8155
19511TIP3   OH279947   0.931   3.245  12.350 -0.3313 -0.2320 -0.3192
19511TIP3    H179948   1.009   3.227  12.298  0.8865 -0.7732  1.5863
19511TIP3    H279949   0.919   3.167  12.405 -1.1122  0.5763  0.7178
19512TIP3   OH279950   0.376   4.201   0.429 -0.0671 -0.6156  0.1895
19512TIP3    H179951   0.355   4.127   0.374 -2.4191  0.7876 -0.9443
19512TIP3    H279952   0.406   4.269   0.368 -0.4904  0.2158  0.8829
19513TIP3   OH279953   0.584   3.701  15.707  0.6033  0.1983  0.6117
19513TIP3    H179954   0.541   3.624  15.669 -0.7041  0.5346  1.3594
19513TIP3    H279955   0.580   3.687  15.802  0.8705  0.9195  0.7386
19514TIP3   OH279956   5.228   1.769  13.337  0.1487 -0.0123  0.0428
19514TIP3    H179957   5.259   1.679  13.351 -2.2529 -0.9196 -0.0576
19514TIP3    H279958   5.206   1.773  13.244 -1.1053  0.2021  0.3367
19515TIP3   OH279959   2.274   0.853   2.340 -0.0609  0.0174  0.2956
19515TIP3    H179960   2.286   0.907   2.418 -1.2106  2.1017 -0.8785
19515TIP3    H279961   2.343   0.882   2.280  0.4811 -1.1927  0.2973
19516TIP3   OH279962   5.337   3.072  17.262  0.2299 -0.5799  0.5583
19516TIP3    H179963   5.353   3.165  17.280  0.7464 -0.5792  0.1147
19516TIP3    H279964   5.411   3.027  17.303  0.2223 -0.7581  0.3753
19517TIP3   OH279965   2.535   3.071  15.438  0.1245  0.0652 -0.1012
19517TIP3    H179966   2.452   3.083  15.392  0.6152  1.0122 -0.7591
19517TIP3    H279967   2.574   2.994  15.396  0.8067  1.2150 -1.6794
19518TIP3   OH279968   2.040   6.725   4.982  0.5882  0.8189 -0.3846
19518TIP3    H179969   2.074   6.806   5.020  1.2336 -0.8357  2.9161
19518TIP3    H279970   1.949   6.721   5.012  0.9336 -0.2508  0.5593
19519TIP3   OH279971   2.794   2.018   0.680 -0.7339 -0.2006 -0.0280
19519TIP3    H179972   2.846   2.096   0.661 -2.0660  0.4803 -1.0475
19519TIP3    H279973   2.845   1.946   0.642 -0.8129  0.5220 -1.6112
19520TIP3   OH279974   2.109   6.395  14.100 -0.4193 -0.0163  0.2959
19520TIP3    H179975   2.111   6.490  14.094  0.0332 -0.1096 -1.8227
19520TIP3    H279976   2.033   6.376  14.156 -1.7711  1.5479 -0.9163
19521TIP3   OH279977   4.915   5.187   3.534  0.6475  0.4250  0.4810
19521TIP3    H179978   4.844   5.225   3.585 -0.4950 -0.9483 -0.0144
19521TIP3    H279979   4.975   5.260   3.518 -1.4618  2.0508 -0.4835
19522TIP3   OH279980   6.430   4.683   5.520 -0.5398  0.5472  0.1032
19522TIP3    H179981   6.339   4.707   5.503  0.0058  1.1851 -2.2082
19522TIP3    H279982   6.428   4.588   5.529 -1.2743  0.3898 -1.3894
19523TIP3   OH279983   5.067   5.369   3.806  0.4325 -0.6102  0.8038
19523TIP3    H179984   4.972   5.353   3.806  0.0721  1.1901 -0.2607
19523TIP3    H279985   5.090   5.374   3.713  1.9719 -2.8690  0.9877
19524TIP3   OH279986   3.529   1.993   3.451  0.3254  0.2831  0.3372
19524TIP3    H179987   3.622   1.973   3.443  0.0140 -0.5005 -2.2561
19524TIP3    H279988   3.490   1.915   3.490  0.3958 -0.6931 -1.4149
19525TIP3   OH279989   0.990   6.708   5.668  0.1770 -0.0730 -0.4991
19525TIP3    H179990   1.044   6.763   5.611  1.0831  0.3752  0.7364
19525TIP3    H279991   1.017   6.732   5.756 -0.6155 -1.3180  0.1081
19526TIP3   OH279992   5.731   5.482  14.735 -0.5039 -1.0945 -0.6068
19526TIP3    H179993   5.809   5.439  14.700  0.3890  0.7583 -1.0322
19526TIP3    H279994   5.739   5.473  14.830 -0.5624 -2.2106 -0.7033
19527TIP3   OH279995   3.888   2.247   3.551  0.2659  0.7689  0.7255
19527TIP3    H179996   3.802   2.216   3.580 -0.3510  1.3564 -0.4118
19527TIP3    H279997   3.897   2.212   3.463  1.5599  0.0496  1.1219
19528TIP3   OH279998   5.938   3.524   0.329  0.5555 -0.3037 -0.1604
19528TIP3    H179999   5.935   3.477   0.246 -0.0380  0.5458 -0.6439
19528TIP3    H280000   5.887   3.604   0.313  1.2831  0.3628  0.7154
19529TIP3   OH280001   3.422   3.575   5.102  0.0373  0.3649 -0.0345
19529TIP3    H180002   3.376   3.510   5.157 -1.9182  0.5823 -1.2984
19529TIP3    H280003   3.401   3.549   5.012 -0.3683  2.4328 -0.5907
19530TIP3   OH280004   6.143   1.328   0.705  0.2131 -0.8006  0.4668
19530TIP3    H180005   6.128   1.401   0.644 -0.8408 -0.5611  0.9971
19530TIP3    H280006   6.156   1.252   0.649 -1.5272 -0.7306 -0.0653
19531TIP3   OH280007   4.735   0.438   1.218 -0.1750 -0.5041  0.7383
19531TIP3    H180008   4.686   0.461   1.138 -0.3859 -0.2120  0.9484
19531TIP3    H280009   4.780   0.357   1.195 -1.4727 -1.2790  0.8176
19532TIP3   OH280010   4.312   5.993  14.647  0.0125 -0.3386  0.2290
19532TIP3    H180011   4.395   5.969  14.607 -0.0882  1.1342 -0.9708
19532TIP3    H280012   4.336   6.031  14.732  0.5221 -0.3578  0.0936
19533TIP3   OH280013   5.805   1.516   0.315  0.1326  0.6826 -0.0067
19533TIP3    H180014   5.849   1.571   0.380  2.1303  0.0537 -0.7525
19533TIP3    H280015   5.796   1.431   0.358  1.0065  0.4033 -0.3652
19534TIP3   OH280016   2.382   1.005  16.101  0.7257 -0.1061 -0.3725
19534TIP3    H180017   2.304   0.957  16.127  0.7796 -1.0486 -1.8405
19534TIP3    H280018   2.355   1.097  16.103 -0.5204 -0.4292 -1.1288
19535TIP3   OH280019   3.272   4.258   1.555  0.3452  0.4170  0.0204
19535TIP3    H180020   3.331   4.222   1.489 -1.2193 -0.6331 -0.8686
19535TIP3    H280021   3.320   4.251   1.637  0.6923 -2.4774 -0.3242
19536TIP3   OH280022   3.890   2.415  12.677  0.2988  0.2306  0.1051
19536TIP3    H180023   3.968   2.368  12.705  0.4150  1.6321  2.3907
19536TIP3    H280024   3.896   2.500  12.721 -0.4299  2.0262 -2.9675
19537TIP3   OH280025   4.257   4.023   1.034  0.8039 -0.0328 -0.2845
19537TIP3    H180026   4.314   3.991   0.964 -0.3268 -1.0090 -0.7799
19537TIP3    H280027   4.168   4.012   1.001  0.2976  2.4667  0.0417
19538TIP3   OH280028   4.386   3.493   1.367 -0.4959 -0.3885  0.1609
19538TIP3    H180029   4.373   3.411   1.414  0.3823 -1.3229 -1.1887
19538TIP3    H280030   4.446   3.543   1.422  0.6015 -1.5074  0.0201
19539TIP3   OH280031   2.152   4.506  14.421  0.0735  0.0538  0.2806
19539TIP3    H180032   2.091   4.483  14.491 -1.4738 -2.0311 -1.6500
19539TIP3    H280033   2.103   4.565  14.364  0.1036 -0.9858 -0.8508
19540TIP3   OH280034   2.497   4.400   1.951 -0.5017 -0.3919  0.6165
19540TIP3    H180035   2.455   4.384   2.035  1.0500  2.1551  1.9782
19540TIP3    H280036   2.588   4.420   1.972  0.6117 -2.1542 -1.9261
19541TIP3   OH280037   3.813   5.355   1.228 -0.6430 -0.5277  0.1279
19541TIP3    H180038   3.842   5.369   1.318  0.0960  0.7978 -0.3009
19541TIP3    H280039   3.784   5.263   1.227  0.6350 -0.9868  1.3604
19542TIP3   OH280040   0.100   0.294  12.979 -0.3140  0.0968  0.3452
19542TIP3    H180041   0.154   0.373  12.984  2.4185 -1.6566  0.4676
19542TIP3    H280042   0.123   0.244  13.057 -0.5702 -1.6359 -0.6433
19543TIP3   OH280043   6.709   4.460  12.777 -0.1165  0.1554 -0.1087
19543TIP3    H180044   6.639   4.512  12.735 -0.2102  0.3519  0.2896
19543TIP3    H280045   6.666   4.417  12.851  0.5841  1.7813  1.3122
19544TIP3   OH280046   4.461   4.829   2.415 -0.2383  0.2746  0.0843
19544TIP3    H180047   4.493   4.758   2.360  0.3331  2.4025 -2.5574
19544TIP3    H280048   4.502   4.814   2.501  2.2660 -0.9593 -1.2135
19545TIP3   OH280049   0.870   2.110   4.579  0.6647  0.2984 -0.4272
19545TIP3    H180050   0.899   2.115   4.488  0.2089 -2.0835 -0.7722
19545TIP3    H280051   0.907   2.028   4.612 -0.8729  0.0595  0.8588
19546TIP3   OH280052   0.963   0.926  14.136  0.0467 -0.6472 -0.6548
19546TIP3    H180053   0.873   0.943  14.165  0.1666 -3.2156  1.6953
19546TIP3    H280054   0.952   0.864  14.063 -0.0709 -0.0351 -1.1725
19547TIP3   OH280055   4.926   5.834   0.360 -0.0103  0.2551 -0.3121
19547TIP3    H180056   4.868   5.798   0.293 -0.1278 -1.0890  0.4913
19547TIP3    H280057   4.990   5.765   0.377 -0.5845  0.1705  1.6723
19548TIP3   OH280058   6.450   0.617  10.561  0.1133  0.9927  0.0823
19548TIP3    H180059   6.384   0.584  10.500  0.4805 -0.2389  0.3369
19548TIP3    H280060   6.524   0.558  10.550  0.1828  0.7485  1.7301
19549TIP3   OH280061   4.559   5.868  16.053  0.0645  0.5050  0.2436
19549TIP3    H180062   4.493   5.861  16.122  0.3725 -0.0774  0.4818
19549TIP3    H280063   4.560   5.962  16.031 -1.7113  0.3520 -0.6374
19550TIP3   OH280064   0.262   1.565  15.699 -0.2556 -0.0961  0.2248
19550TIP3    H180065   0.174   1.603  15.705  0.9516  2.9974  0.3559
19550TIP3    H280066   0.297   1.600  15.617  0.8405 -1.3712  0.1225
19551TIP3   OH280067   5.431   2.302   4.996 -0.2158  0.3052 -0.0865
19551TIP3    H180068   5.351   2.338   4.958 -0.4417 -0.2413 -0.1407
19551TIP3    H280069   5.496   2.307   4.926  0.3166  2.4019  0.4954
19552TIP3   OH280070   4.062   0.375   4.058 -0.7350 -0.2412 -0.2312
19552TIP3    H180071   3.992   0.310   4.056 -1.1218  0.1460  0.4151
19552TIP3    H280072   4.044   0.432   3.983 -1.1521 -0.1001 -0.0236
19553TIP3   OH280073   5.353   2.993  11.816  0.0756  0.3703 -0.3903
19553TIP3    H180074   5.370   3.059  11.883  1.8340 -0.0429 -0.3642
19553TIP3    H280075   5.350   3.042  11.734 -0.8202  0.7215 -0.1622
19554TIP3   OH280076   4.699   2.397   1.631  0.1986  0.2638 -0.3173
19554TIP3    H180077   4.788   2.426   1.652  0.5906 -0.9663 -0.2111
19554TIP3    H280078   4.706   2.357   1.545 -0.4878  1.1463 -0.7937
19555TIP3   OH280079   5.282   0.710   1.330 -0.1257 -0.1185 -0.0544
19555TIP3    H180080   5.223   0.701   1.405 -0.3615 -0.0518 -0.2288
19555TIP3    H280081   5.329   0.626   1.326  0.9639  0.4181  1.0613
19556TIP3   OH280082   5.734   0.255  11.019 -0.4681 -0.1022  0.1629
19556TIP3    H180083   5.681   0.182  10.987  0.3101 -0.5445 -0.1443
19556TIP3    H280084   5.727   0.322  10.952 -1.4796  0.2656  0.6124
19557TIP3   OH280085   1.180   3.821  13.049  0.5791 -0.3997 -0.2570
19557TIP3    H180086   1.172   3.843  13.142 -0.1846  2.5797 -0.9082
19557TIP3    H280087   1.273   3.801  13.037  1.2369  1.7157  0.7498
19558TIP3   OH280088   2.889   1.111   1.808  0.6815  0.2342 -0.3342
19558TIP3    H180089   2.858   1.133   1.720  0.1973  1.9118  0.2059
19558TIP3    H280090   2.838   1.033   1.832  1.6183 -0.9300 -1.9223
19559TIP3   OH280091   2.316   1.706   5.795  0.1362 -0.2242 -0.2494
19559TIP3    H180092   2.240   1.760   5.815 -1.3119 -2.0205 -0.7203
19559TIP3    H280093   2.372   1.713   5.873 -0.9781  0.2935  0.5253
19560TIP3   OH280094   4.289   2.896  15.222 -0.1566 -0.3558 -0.0417
19560TIP3    H180095   4.230   2.956  15.267  0.7932  1.9263 -1.6792
19560TIP3    H280096   4.293   2.928  15.132  2.1988 -1.4487 -0.4174
19561TIP3   OH280097   4.076   1.890   0.210  0.2091  0.4445 -0.6865
19561TIP3    H180098   4.093   1.978   0.245 -3.2173  0.8206  0.4429
19561TIP3    H280099   3.983   1.891   0.188 -0.5917 -3.5745  1.4995
19562TIP3   OH280100   5.634   1.003   1.412 -0.5784  0.2109  0.0613
19562TIP3    H180101   5.702   1.066   1.433 -1.0343  1.1195 -1.0788
19562TIP3    H280102   5.649   0.930   1.472  0.3439  1.1246  0.9668
19563TIP3   OH280103   6.580   1.233  17.073 -0.2902 -0.2152 -0.3940
19563TIP3    H180104   6.604   1.311  17.023 -0.5829 -0.1260 -0.3972
19563TIP3    H280105   6.534   1.268  17.149 -0.5492 -0.3919 -0.4699
19564TIP3   OH280106   4.599   1.955   2.329  0.6270  0.1286  0.3483
19564TIP3    H180107   4.575   2.045   2.311 -0.4201 -0.4036 -1.1054
19564TIP3    H280108   4.666   1.934   2.263 -2.1287 -1.3661 -2.2069
19565TIP3   OH280109   4.004   0.050   4.528 -0.3433 -0.4323  0.0559
19565TIP3    H180110   3.953  -0.030   4.536 -0.7000 -0.1951  0.1802
19565TIP3    H280111   3.951   0.107   4.472 -0.7272  0.2146  1.0351
19566TIP3   OH280112   1.931   2.499   0.340 -0.3427 -0.3865 -0.3894
19566TIP3    H180113   2.011   2.454   0.367  0.1472  0.7364  0.1267
19566TIP3    H280114   1.860   2.443   0.370  0.2472 -0.8741  0.1194
19567TIP3   OH280115   4.862   5.675  11.744 -0.5261  0.2999 -0.1214
19567TIP3    H180116   4.794   5.666  11.811 -1.0839  0.5063 -0.6549
19567TIP3    H280117   4.883   5.585  11.719 -0.7183  0.2395 -0.0689
19568TIP3   OH280118   5.729   1.362   4.390 -0.0130 -0.5678  0.8360
19568TIP3    H180119   5.675   1.328   4.462 -3.1056  0.9513 -0.5683
19568TIP3    H280120   5.743   1.286   4.333 -2.3878 -0.6778  0.3050
19569TIP3   OH280121   6.080   3.040   2.355  0.1145  0.3531  0.4853
19569TIP3    H180122   6.133   3.040   2.434  0.1128 -1.5981  0.5443
19569TIP3    H280123   6.055   2.948   2.343 -0.3946  0.6951 -1.4355
19570TIP3   OH280124   1.914   0.263  11.821 -0.1399 -0.4075 -0.4143
19570TIP3    H180125   1.959   0.284  11.903 -0.1547  0.5147 -0.6354
19570TIP3    H280126   1.944   0.174  11.800  0.8946 -0.1499 -0.1013
19571TIP3   OH280127   2.119   4.025  16.316  0.2118 -0.1505 -0.5232
19571TIP3    H180128   2.066   4.105  16.307 -1.6291 -1.2921 -0.4244
19571TIP3    H280129   2.121   4.008  16.410  0.6523 -0.1842 -0.5387
19572TIP3   OH280130   2.302   1.197  14.110 -0.0405 -0.0112  0.4644
19572TIP3    H180131   2.246   1.147  14.050  1.9085 -1.3270 -0.3419
19572TIP3    H280132   2.328   1.133  14.177 -1.0515  1.0880  1.9829
19573TIP3   OH280133   5.432   2.131   3.694 -0.3177  0.1039 -0.0280
19573TIP3    H180134   5.411   2.224   3.690 -1.0637  0.0515  1.8103
19573TIP3    H280135   5.349   2.086   3.678 -0.1982 -0.2322  0.2807
19574TIP3   OH280136   2.597   3.969  14.740  0.3936  0.2240  0.2468
19574TIP3    H180137   2.520   4.001  14.786  0.8361  1.0500  0.4241
19574TIP3    H280138   2.563   3.905  14.677 -0.5120  1.0679 -0.1339
19575TIP3   OH280139   6.142   0.706   6.850 -0.2413 -0.2430  0.1371
19575TIP3    H180140   6.099   0.778   6.897 -0.1881  0.3665 -0.7248
19575TIP3    H280141   6.073   0.669   6.796 -0.3862 -1.1676  0.9350
19576TIP3   OH280142   5.359   3.434   1.719 -0.2139 -0.2167 -0.1797
19576TIP3    H180143   5.382   3.527   1.714  0.3226 -0.1716  1.9569
19576TIP3    H280144   5.292   3.430   1.788  0.2032 -1.4694  0.1708
19577TIP3   OH280145   4.641   3.185  12.300  0.1927 -0.0947  0.3773
19577TIP3    H180146   4.709   3.207  12.364 -0.6474 -2.4156  2.2599
19577TIP3    H280147   4.564   3.165  12.354 -0.8200 -1.3403 -1.4260
19578TIP3   OH280148   4.572   0.401   2.614  0.7307 -0.6148  1.0148
19578TIP3    H180149   4.493   0.353   2.641  0.3090 -0.3188  0.3455
19578TIP3    H280150   4.584   0.466   2.683  0.1954 -0.4485  0.9589
19579TIP3   OH280151   5.551   1.976   4.612  1.3570 -0.3523 -0.4168
19579TIP3    H180152   5.502   2.047   4.570  2.9771  1.0705 -0.0478
19579TIP3    H280153   5.492   1.901   4.611 -0.6514  1.1493 -0.3587
19580TIP3   OH280154   0.323   6.111   0.596 -0.0095 -0.1965 -0.8988
19580TIP3    H180155   0.404   6.155   0.620 -0.5143  0.1853  0.2233
19580TIP3    H280156   0.300   6.060   0.674  1.1708 -3.5031 -2.5539
19581TIP3   OH280157   6.464   0.531   1.951 -0.0822 -0.2614 -0.2032
19581TIP3    H180158   6.493   0.616   1.985  1.0881 -0.6757 -0.1194
19581TIP3    H280159   6.519   0.518   1.873  0.3539 -1.3300  0.2738
19582TIP3   OH280160   6.080   3.561  11.335  0.1639  0.3985 -0.3172
19582TIP3    H180161   6.027   3.562  11.255 -0.4145 -2.1452 -0.0488
19582TIP3    H280162   6.147   3.495  11.319  0.0017 -0.2140  1.2813
19583TIP3   OH280163   6.740   2.814   0.650  0.2168 -0.1076  0.2173
19583TIP3    H180164   6.677   2.882   0.626  0.7932  0.6012  0.6678
19583TIP3    H280165   6.689   2.732   0.646 -0.8532  0.4874  1.0005
19584TIP3   OH280166   1.592   1.099  13.923  0.5862 -0.2988 -0.0681
19584TIP3    H180167   1.555   1.019  13.887 -2.2544  0.8925 -0.0772
19584TIP3    H280168   1.606   1.155  13.846  0.0929  0.1232  0.1424
19585TIP3   OH280169   4.285   6.656  16.834  0.4178  0.5066  0.8295
19585TIP3    H180170   4.211   6.669  16.894 -0.4652 -0.9311  0.1123
19585TIP3    H280171   4.295   6.741  16.790 -0.1978  0.9970  1.6108
19586TIP3   OH280172   6.073   5.912   3.411 -0.4802 -0.3394  0.2975
19586TIP3    H180173   6.094   5.958   3.492 -0.6752  2.0903 -0.9448
19586TIP3    H280174   6.155   5.912   3.361 -0.2745 -2.1099  0.5754
19587TIP3   OH280175   3.680   6.679  16.370  0.1524 -0.1575 -0.5232
19587TIP3    H180176   3.681   6.655  16.463  0.3013 -0.6414 -0.6457
19587TIP3    H280177   3.705   6.772  16.369 -0.6106  0.0574 -0.0281
19588TIP3   OH280178   2.424   2.736   0.600 -0.2060 -0.1638 -0.1163
19588TIP3    H180179   2.466   2.779   0.525 -0.8936  1.2352  0.2768
19588TIP3    H280180   2.352   2.685   0.562 -1.0199  1.1368 -0.3517
19589TIP3   OH280181   5.476   0.514  13.784 -0.2085  0.1566  0.3142
19589TIP3    H180182   5.428   0.578  13.731 -0.9373 -1.5615 -1.2102
19589TIP3    H280183   5.416   0.492  13.855 -0.3809  0.3897  0.2418
19590TIP3   OH280184   0.872   0.663   0.603  0.3777  0.2078  0.1830
19590TIP3    H180185   0.943   0.709   0.556  0.7432 -0.0053  0.5212
19590TIP3    H280186   0.902   0.658   0.693  0.0614 -0.1458  0.2721
19591TIP3   OH280187   0.192   6.489   0.938  0.5097 -0.3371 -0.2515
19591TIP3    H180188   0.183   6.561   1.001 -1.9293 -0.9296  0.1843
19591TIP3    H280189   0.271   6.510   0.889  1.1046  1.4578  1.3433
19592TIP3   OH280190   5.008   4.048  15.191 -0.6775  0.1486 -0.0829
19592TIP3    H180191   5.023   4.115  15.258 -2.0314  0.4595 -0.0544
19592TIP3    H280192   4.995   4.097  15.110 -1.3187 -0.0813 -0.1282
19593TIP3   OH280193   1.831   2.180   0.726 -0.7294  0.1152  0.3272
19593TIP3    H180194   1.776   2.102   0.731 -0.4939 -0.1907 -1.3398
19593TIP3    H280195   1.805   2.232   0.802 -2.4749 -0.5648  0.2509
19594TIP3   OH280196   4.504   1.015  15.238 -0.4588 -0.0742  0.0174
19594TIP3    H180197   4.587   0.969  15.248  0.3091  1.5156  1.5199
19594TIP3    H280198   4.465   1.014  15.326 -1.0317  0.9654 -0.1992
19595TIP3   OH280199   4.033   2.272  13.102  0.2452 -0.8219  0.7611
19595TIP3    H180200   4.115   2.224  13.114  0.5041 -0.5328  0.1890
19595TIP3    H280201   3.967   2.218  13.145  0.9544 -0.3345  2.5481
19596TIP3   OH280202   1.512   6.539   5.125 -0.1334 -0.3308 -0.0182
19596TIP3    H180203   1.602   6.559   5.098  0.1586  0.4697  1.4123
19596TIP3    H280204   1.507   6.444   5.125 -0.1551 -0.4092 -2.7119
19597TIP3   OH280205   1.444   3.495   4.748  0.6131  0.3619 -0.2726
19597TIP3    H180206   1.363   3.484   4.699  0.7275 -0.9663 -0.2164
19597TIP3    H280207   1.415   3.511   4.838  0.3913 -0.1747 -0.2385
19598TIP3   OH280208   2.264   3.483   4.902 -0.2441 -0.6289  0.6086
19598TIP3    H180209   2.340   3.519   4.857 -0.1542 -1.0067  0.4485
19598TIP3    H280210   2.212   3.559   4.928  0.6774 -0.3067  1.5877
19599TIP3   OH280211   4.049   4.513  11.360  0.3806 -0.0094  0.0246
19599TIP3    H180212   4.110   4.586  11.369 -1.7538  1.8977 -0.3052
19599TIP3    H280213   4.023   4.491  11.449  1.5306 -0.9036  0.1765
19600TIP3   OH280214   3.835   0.962   5.992 -0.2654 -0.2863  0.1934
19600TIP3    H180215   3.765   0.964   6.057  0.0338  0.1636  0.5160
19600TIP3    H280216   3.906   1.012   6.032  0.4305 -1.1589  0.0847
19601TIP3   OH280217   5.542   5.090   4.473  0.2526 -0.0720  0.3531
19601TIP3    H180218   5.453   5.079   4.508  0.2805  0.8439  0.7682
19601TIP3    H280219   5.537   5.059   4.383 -0.1037 -1.4574  0.8257
19602TIP3   OH280220   1.829   0.953  16.028  0.4781 -0.4810  0.1274
19602TIP3    H180221   1.813   0.859  16.026 -0.8864 -0.2657 -0.2686
19602TIP3    H280222   1.807   0.983  15.940  1.9614  0.0794 -0.0908
19603TIP3   OH280223   0.161   2.759   2.111  0.6221  0.2096 -0.1907
19603TIP3    H180224   0.123   2.695   2.050  1.0046  1.1710 -1.4685
19603TIP3    H280225   0.089   2.779   2.171  0.6623 -1.8663  0.6576
19604TIP3   OH280226   0.409   2.051  16.684  0.4891  0.2008 -0.1572
19604TIP3    H180227   0.365   2.123  16.729  1.2128 -0.1508  1.1589
19604TIP3    H280228   0.485   2.091  16.642 -1.4836  1.0284 -3.3647
19605TIP3   OH280229   4.745   1.180  16.518  0.4329 -0.1112 -0.3766
19605TIP3    H180230   4.652   1.192  16.498  0.3085  0.0208  0.2639
19605TIP3    H280231   4.757   1.223  16.603  0.9362 -0.7142 -0.1383
19606TIP3   OH280232   6.736   1.250  16.197  1.0328  0.4340  0.4643
19606TIP3    H180233   6.666   1.210  16.146  1.0306  0.6930  0.2570
19606TIP3    H280234   6.797   1.179  16.215  1.5332  0.5332 -0.7590
19607TIP3   OH280235   6.616   3.031   5.472  0.0156  0.1324  0.5008
19607TIP3    H180236   6.656   2.991   5.549  0.3075 -0.0653  0.2483
19607TIP3    H280237   6.627   2.966   5.403 -3.9529 -1.5658  1.2173
19608TIP3   OH280238   5.137   3.300   3.370 -0.5043  0.0940 -0.2134
19608TIP3    H180239   5.073   3.274   3.304  0.3377  0.6678 -1.2830
19608TIP3    H280240   5.186   3.219   3.389 -1.7371 -0.4344  0.8807
19609TIP3   OH280241   4.062   2.123  11.751 -0.3611 -0.4110  0.0848
19609TIP3    H180242   4.153   2.126  11.722 -0.1593  1.0186  0.7545
19609TIP3    H280243   4.047   2.032  11.776  1.4837 -0.3228  1.7766
19610TIP3   OH280244   2.615   1.735   3.948 -0.2528  0.1782  0.2338
19610TIP3    H180245   2.589   1.675   3.878  0.4098  1.1246 -0.8742
19610TIP3    H280246   2.661   1.681   4.012  0.7278 -0.4170 -0.9483
19611TIP3   OH280247   6.100   5.859  13.989 -0.3243  0.3769  0.1459
19611TIP3    H180248   6.107   5.778  13.939  0.1769  1.1170 -1.0372
19611TIP3    H280249   6.016   5.853  14.034 -0.8513 -0.2828 -0.8823
19612TIP3   OH280250   1.411   1.166  12.721 -0.0556  0.2720  0.4356
19612TIP3    H180251   1.506   1.171  12.706  0.2257 -1.3559  1.4026
19612TIP3    H280252   1.372   1.210  12.646  1.4827  1.8047  0.4804
19613TIP3   OH280253   1.523   1.475  12.524  0.4739  0.3267 -0.1831
19613TIP3    H180254   1.537   1.405  12.460  2.1430  0.9750 -0.5859
19613TIP3    H280255   1.516   1.554  12.470 -3.5099  0.3765  0.0674
19614TIP3   OH280256   0.110   1.576  12.514 -0.0139  0.5955  0.4753
19614TIP3    H180257   0.183   1.519  12.539 -0.0979  1.0466  1.7852
19614TIP3    H280258   0.134   1.662  12.548 -0.6611  0.9959 -0.0515
19615TIP3   OH280259   0.660   0.837  16.272  0.0026  0.8205 -0.0960
19615TIP3    H180260   0.571   0.868  16.258 -0.9901 -1.8051 -0.2750
19615TIP3    H280261   0.699   0.832  16.185  0.0033  1.0731 -0.1098
19616TIP3   OH280262   5.886   6.211   0.121 -0.0058 -0.3694 -0.1614
19616TIP3    H180263   5.854   6.259   0.045  0.1597 -3.1359 -2.1241
19616TIP3    H280264   5.954   6.154   0.086  1.4234 -0.3986  2.4614
19617TIP3   OH280265   5.462   0.513   0.506  0.0018 -0.2374 -0.0734
19617TIP3    H180266   5.385   0.466   0.473  0.1782 -0.5873  0.0028
19617TIP3    H280267   5.481   0.471   0.590  2.2157 -2.3961 -1.5194
19618TIP3   OH280268   5.339   1.080  14.037  0.1080  0.2537  0.1153
19618TIP3    H180269   5.420   1.055  14.081 -0.5186 -3.0081 -0.3587
19618TIP3    H280270   5.337   1.028  13.957 -0.8396  2.8858 -1.7215
19619TIP3   OH280271   0.536   0.092   1.627 -0.1540  0.6663 -0.1549
19619TIP3    H180272   0.476   0.155   1.588  0.8783  2.2425  0.6748
19619TIP3    H280273   0.513   0.092   1.720 -0.0812 -0.1188 -0.1325
19620TIP3   OH280274   5.361   3.848   0.887  0.0758  0.1476 -0.1844
19620TIP3    H180275   5.334   3.771   0.836 -1.1027 -0.1897  0.8950
19620TIP3    H280276   5.453   3.862   0.864  0.2347 -1.4306 -0.5874
19621TIP3   OH280277   0.042   2.985  16.795 -0.0806  0.4663 -0.5080
19621TIP3    H180278   0.104   2.931  16.845  0.5131  0.4223 -1.2627
19621TIP3    H280279   0.057   3.074  16.826  0.2183  0.4283 -0.5423
19622TIP3   OH280280   5.288   6.282  12.456 -0.2680  0.0431  0.4733
19622TIP3    H180281   5.291   6.344  12.530  0.8824  1.7851 -0.9397
19622TIP3    H280282   5.367   6.229  12.467 -1.0256 -0.9233  1.4444
19623TIP3   OH280283   6.636   6.062  14.982  0.1131  0.3190  0.4536
19623TIP3    H180284   6.586   6.010  15.045 -0.4706 -1.1391 -1.1487
19623TIP3    H280285   6.570   6.099  14.923  0.7914 -1.8612 -1.8656
19624TIP3   OH280286   5.572   3.411  11.128  0.4046 -0.3208 -0.7891
19624TIP3    H180287   5.604   3.469  11.197 -1.9003  1.7776 -1.3523
19624TIP3    H280288   5.575   3.324  11.167  0.4847  0.6306  1.4661
19625TIP3   OH280289   2.847   3.176  17.238  0.0888  0.2366  0.2332
19625TIP3    H180290   2.787   3.225  17.181  0.5910  2.2363  1.3350
19625TIP3    H280291   2.894   3.118  17.178 -0.7815  0.8434 -1.1045
19626TIP3   OH280292   6.245   4.327  10.769 -0.2544  0.2957 -0.5369
19626TIP3    H180293   6.246   4.244  10.722  1.2310 -1.3332  2.0889
19626TIP3    H280294   6.319   4.321  10.830 -1.9663  2.2044  1.9365
19627TIP3   OH280295   2.868   3.578   0.748  0.2042 -0.1900  0.9055
19627TIP3    H180296   2.895   3.654   0.800  0.2765  0.2148  0.2876
19627TIP3    H280297   2.786   3.549   0.788  1.3565 -1.2767  2.6510
19628TIP3   OH280298   2.637   4.665  15.520  0.0569  0.1102  0.1501
19628TIP3    H180299   2.633   4.574  15.552  0.9135 -1.0357 -2.7278
19628TIP3    H280300   2.730   4.682  15.509 -0.1415 -0.5185 -3.8600
19629TIP3   OH280301   0.375   0.084   4.013  0.3809 -0.1619 -0.3263
19629TIP3    H180302   0.332   0.131   3.941 -0.1487 -3.3327 -2.3073
19629TIP3    H280303   0.468   0.093   3.995  0.3086  0.5393 -0.3669
19630TIP3   OH280304   5.040   2.675   1.987 -0.0763  0.3100  0.1813
19630TIP3    H180305   5.032   2.642   2.077 -1.1909  0.0487  0.0052
19630TIP3    H280306   5.117   2.631   1.952 -0.8129 -1.1868  0.3526
19631TIP3   OH280307   0.579   5.797   0.983  0.2390 -0.1992 -0.2827
19631TIP3    H180308   0.519   5.732   1.018 -0.1733  0.7616  0.8868
19631TIP3    H280309   0.524   5.858   0.935  0.4197  0.0577 -0.1709
19632TIP3   OH280310   1.725   2.154   2.376 -0.2215 -0.3767 -0.1551
19632TIP3    H180311   1.699   2.146   2.284  0.6973  1.0545 -0.5682
19632TIP3    H280312   1.741   2.247   2.389 -0.3166 -0.5492  1.4673
19633TIP3   OH280313   2.382   5.713   4.098  0.0654 -0.6229  0.2594
19633TIP3    H180314   2.375   5.760   4.181 -0.2114  1.1500 -0.7195
19633TIP3    H280315   2.351   5.624   4.118 -1.4375  0.1747  1.7063
19634TIP3   OH280316   0.158   6.028   0.376  0.0125  0.0664  0.0895
19634TIP3    H180317   0.233   6.058   0.428  0.5625  0.6105 -0.9902
19634TIP3    H280318   0.090   6.094   0.392 -0.5927 -0.9071  1.7910
19635TIP3   OH280319   0.368   6.354  15.821 -0.9266  0.6189 -0.3697
19635TIP3    H180320   0.343   6.275  15.868 -0.1376  0.7641  0.3076
19635TIP3    H280321   0.440   6.327  15.764 -0.4034  0.9250  0.1395
19636TIP3   OH280322   3.842   3.923   2.052  0.2022  0.3905 -0.1444
19636TIP3    H180323   3.887   3.920   2.137 -0.8383  2.1501  0.5280
19636TIP3    H280324   3.905   3.884   1.990  2.3625  2.0631  0.8623
19637TIP3   OH280325   2.322   6.306   1.644 -0.0277  0.4096 -0.2844
19637TIP3    H180326   2.268   6.262   1.709  0.6262  0.8827  0.6084
19637TIP3    H280327   2.298   6.265   1.561 -0.9684 -0.1240  0.2291
19638TIP3   OH280328   2.391   1.646   0.119  0.0793  0.1885 -0.2164
19638TIP3    H180329   2.367   1.720   0.175 -0.1483 -0.3114  0.3655
19638TIP3    H280330   2.446   1.683   0.051 -0.4621  0.9810 -0.2331
19639TIP3   OH280331   2.731   2.157  15.255  0.2285 -0.3088 -0.0523
19639TIP3    H180332   2.713   2.191  15.343 -1.2257 -0.4437 -0.2755
19639TIP3    H280333   2.804   2.096  15.268 -1.1946 -1.8051  1.4246
19640TIP3   OH280334   4.558   5.225  11.638 -0.4405 -0.5476  0.1048
19640TIP3    H180335   4.551   5.319  11.653  0.2056 -0.3440 -0.8362
19640TIP3    H280336   4.625   5.216  11.571 -0.5849 -1.6764  0.0991
19641TIP3   OH280337   3.576   6.571  10.779 -0.1693  0.3219  0.3297
19641TIP3    H180338   3.540   6.616  10.702 -1.2776  0.4832  0.9150
19641TIP3    H280339   3.624   6.497  10.743  0.1088  0.9187 -0.5632
19642TIP3   OH280340   1.156   0.397  10.968  0.6480 -0.0882 -0.1537
19642TIP3    H180341   1.081   0.412  11.026  0.3446 -0.5094 -0.4330
19642TIP3    H280342   1.154   0.470  10.906  0.5554 -0.0194 -0.0697
19643TIP3   OH280343   2.694   6.534  15.615  0.0874 -0.4350 -0.0413
19643TIP3    H180344   2.693   6.593  15.691 -0.7432 -2.3536  1.5226
19643TIP3    H280345   2.621   6.564  15.561  0.1663  0.4515  0.3180
19644TIP3   OH280346   1.478   5.366  12.057 -0.3211 -0.0939 -0.0409
19644TIP3    H180347   1.502   5.457  12.038 -0.0050  0.1157  1.2768
19644TIP3    H280348   1.550   5.333  12.111 -1.0089 -0.7537  0.4968
19645TIP3   OH280349   3.886   3.708   3.727  0.1045  0.3489  0.0582
19645TIP3    H180350   3.930   3.758   3.659  0.7084  0.8145  0.7808
19645TIP3    H280351   3.828   3.649   3.679  0.0348  1.1192 -0.8391
19646TIP3   OH280352   3.725   3.212  13.588  0.0859  0.1748 -0.1704
19646TIP3    H180353   3.690   3.225  13.676 -1.8143  0.2431 -0.9018
19646TIP3    H280354   3.803   3.267  13.585 -0.5989  1.2662  1.0254
19647TIP3   OH280355   6.627   6.353   2.302  0.3052 -0.5487  0.1718
19647TIP3    H180356   6.588   6.411   2.237  2.7935  1.3656  0.2047
19647TIP3    H280357   6.632   6.406   2.381  1.2094 -1.3611  0.6817
19648TIP3   OH280358   0.636   3.370   2.136  0.0643 -0.6363  0.4383
19648TIP3    H180359   0.617   3.311   2.063  0.7060 -1.6245  1.0367
19648TIP3    H280360   0.558   3.365   2.191  0.4014 -1.5408  0.8628
19649TIP3   OH280361   2.066   2.990   3.237  0.0990 -0.1657 -0.6013
19649TIP3    H180362   1.986   2.961   3.193 -0.7050  0.7762  0.1922
19649TIP3    H280363   2.037   3.057   3.299  1.3403 -0.7032  0.6161
19650TIP3   OH280364   2.890   1.020   5.783  0.1747 -0.2662 -0.2830
19650TIP3    H180365   2.903   1.041   5.690 -1.3636 -0.9196 -0.6677
19650TIP3    H280366   2.923   0.930   5.791 -1.1661 -0.8142 -0.5922
19651TIP3   OH280367   2.691   2.445   4.197 -0.1665  0.5554  0.1565
19651TIP3    H180368   2.776   2.489   4.201 -0.3064  0.7263  2.9414
19651TIP3    H280369   2.709   2.355   4.227 -0.5483 -0.2607 -1.8773
19652TIP3   OH280370   1.282   4.006   0.395 -0.0139  0.1817  0.4930
19652TIP3    H180371   1.343   4.013   0.321  0.2302  0.1006  0.6846
19652TIP3    H280372   1.299   3.920   0.433 -1.5082 -0.6118 -0.5437
19653TIP3   OH280373   5.249   4.648  14.961  0.0945  0.0732  0.1400
19653TIP3    H180374   5.253   4.663  15.055  0.3122  1.4641 -0.0653
19653TIP3    H280375   5.338   4.622  14.937 -0.0667 -0.7068  0.3774
19654TIP3   OH280376   4.554   4.082   6.494 -0.5557  0.2082  0.4275
19654TIP3    H180377   4.539   4.176   6.480  0.3233  0.4657  1.1655
19654TIP3    H280378   4.500   4.060   6.569  1.1085  0.6967  1.8266
19655TIP3   OH280379   0.074   1.309   0.378  0.9389  0.0309  0.0921
19655TIP3    H180380  -0.009   1.354   0.365  1.6753  1.6987  0.9132
19655TIP3    H280381   0.065   1.265   0.462  1.4422  1.6080  1.0072
19656TIP3   OH280382   4.555   4.893  16.991  0.0862  0.1405 -0.2546
19656TIP3    H180383   4.627   4.834  17.013  0.0154 -0.3594 -1.2559
19656TIP3    H280384   4.476   4.843  17.012  0.0135 -0.4334 -1.7236
19657TIP3   OH280385   0.235   2.648   4.181  0.7839 -0.2366 -0.1018
19657TIP3    H180386   0.273   2.734   4.165  1.3258 -0.8030 -2.1515
19657TIP3    H280387   0.306   2.598   4.222  1.7219 -0.7286 -2.1980
19658TIP3   OH280388   2.893   0.932  13.774  0.9063  0.3937 -0.6021
19658TIP3    H180389   2.837   0.898  13.705 -0.5605  2.2891 -0.4292
19658TIP3    H280390   2.842   0.922  13.854  1.3943  0.8668 -0.2229
19659TIP3   OH280391   1.256   2.567   4.115  0.1124 -0.0090 -0.6517
19659TIP3    H180392   1.182   2.626   4.099 -0.0480  0.4474  1.5442
19659TIP3    H280393   1.330   2.626   4.130  0.3724 -0.4195 -0.3397
19660TIP3   OH280394   4.907   1.367  15.352 -0.1177 -0.3028  0.1871
19660TIP3    H180395   4.965   1.353  15.277  0.9284 -0.6724  1.0440
19660TIP3    H280396   4.883   1.279  15.381  0.2367 -0.1827  0.8561
19661TIP3   OH280397   6.237   2.837  17.185  0.1533  0.3464 -0.1058
19661TIP3    H180398   6.195   2.798  17.109 -0.6371 -0.2931  0.6435
19661TIP3    H280399   6.232   2.931  17.170 -0.5600  0.2394 -0.5483
19662TIP3   OH280400   0.947   3.435  13.080 -0.1905 -0.3081 -0.0297
19662TIP3    H180401   0.880   3.446  13.013  1.3168 -0.4597 -1.6458
19662TIP3    H280402   1.006   3.369  13.044  0.5487 -0.5610  1.5623
19663TIP3   OH280403   3.542   5.854   1.881 -0.1834  0.3105 -0.5585
19663TIP3    H180404   3.631   5.888   1.870  0.4904 -1.4640 -0.8497
19663TIP3    H280405   3.554   5.762   1.905 -1.9068  0.6107  1.7397
19664TIP3   OH280406   3.214   4.922   5.704 -0.3817  0.4311 -0.5254
19664TIP3    H180407   3.252   4.882   5.626  1.1034  2.2289 -0.7892
19664TIP3    H280408   3.149   4.858   5.735  0.2424 -1.0892 -2.2041
19665TIP3   OH280409   1.681   1.969   0.811  1.0013  0.1241  0.6244
19665TIP3    H180410   1.601   1.943   0.857  1.8465 -1.4864  1.2455
19665TIP3    H280411   1.702   1.895   0.755  1.1567  1.2222 -0.8238
19666TIP3   OH280412   6.277   2.786  16.661  0.0368  0.1762 -0.5286
19666TIP3    H180413   6.287   2.880  16.645 -1.2768 -0.0442 -3.4501
19666TIP3    H280414   6.182   2.773  16.666  0.2203 -0.9471  0.3560
19667TIP3   OH280415   5.326   0.927  15.899 -0.5596  0.7138  0.0749
19667TIP3    H180416   5.268   0.925  15.823 -1.0308 -0.5101  0.4611
19667TIP3    H280417   5.397   0.986  15.872 -0.6719  0.2345 -1.3491
19668TIP3   OH280418   5.229   0.284   3.126  0.0570  0.0163  0.1536
19668TIP3    H180419   5.251   0.273   3.218 -1.4545 -1.0739  0.4337
19668TIP3    H280420   5.141   0.321   3.127 -0.9094 -2.1067 -0.7960
19669TIP3   OH280421   1.934   2.589   2.975 -0.5905  0.0564  0.3925
19669TIP3    H180422   1.951   2.604   3.068  1.6744  2.7048 -0.3315
19669TIP3    H280423   1.914   2.675   2.939  0.6605 -0.5200 -1.9215
19670TIP3   OH280424   0.516   2.429   1.133  0.0741 -0.4808  0.0734
19670TIP3    H180425   0.590   2.424   1.072  0.6757  2.1225  0.4613
19670TIP3    H280426   0.558   2.444   1.219 -0.8559  0.9663  0.3056
19671TIP3   OH280427   1.752   6.554   3.274 -0.2749  0.0467 -0.3790
19671TIP3    H180428   1.665   6.588   3.294  0.4715  2.2268 -0.5637
19671TIP3    H280429   1.752   6.545   3.178 -0.3122 -0.0114 -0.3738
19672TIP3   OH280430   5.886   4.671  15.678 -0.3744 -0.0055 -0.3349
19672TIP3    H180431   5.919   4.584  15.699  0.2453  0.4223  0.5382
19672TIP3    H280432   5.964   4.721  15.654 -0.5393  0.6839  0.5373
19673TIP3   OH280433   0.153   0.569   0.019  0.0771  0.1195  0.1792
19673TIP3    H180434   0.078   0.586  -0.037  0.5479  0.4358 -0.3667
19673TIP3    H280435   0.172   0.476   0.007 -0.8497 -0.2048  1.1091
19674TIP3   OH280436   5.106   1.178   3.065  0.0411 -0.4456  0.5622
19674TIP3    H180437   5.089   1.098   3.115  0.0789 -0.9039 -0.1556
19674TIP3    H280438   5.018   1.211   3.044  0.0123 -1.1373 -0.4652
19675TIP3   OH280439   0.346   2.908   4.148  0.2002 -0.2941  0.6823
19675TIP3    H180440   0.311   2.996   4.138 -0.5557 -0.5613  0.9492
19675TIP3    H280441   0.419   2.919   4.210  0.4377  0.2141  0.3276
19676TIP3   OH280442   4.931   6.685  13.670  0.0592 -0.2252 -0.3422
19676TIP3    H180443   5.000   6.640  13.719 -0.2554  0.9425  1.2412
19676TIP3    H280444   4.860   6.621  13.663  0.0654 -0.3802  0.8492
19677TIP3   OH280445   5.944   0.480   4.149 -0.2018  0.2856  0.5023
19677TIP3    H180446   5.865   0.428   4.162 -0.5810  0.9827  1.0059
19677TIP3    H280447   5.920   0.568   4.175  0.6147  0.6006  0.2287
19678TIP3   OH280448   2.163   0.891  11.829 -0.4958 -0.0434  0.2986
19678TIP3    H180449   2.111   0.873  11.751 -1.3990  0.3955  0.7912
19678TIP3    H280450   2.109   0.861  11.902 -0.4259  1.1478  0.8672
19679TIP3   OH280451   0.356   3.534   4.429 -0.2269 -0.3177 -0.7934
19679TIP3    H180452   0.318   3.599   4.489 -2.6300 -1.6890 -0.6984
19679TIP3    H280453   0.361   3.454   4.482  4.0729 -0.0243 -0.4443
19680TIP3   OH280454   5.743   5.015  14.485  0.0653  0.4880  0.2511
19680TIP3    H180455   5.788   5.016  14.569 -0.2080 -0.7328  0.4333
19680TIP3    H280456   5.740   4.923  14.461  0.8805  0.8866 -1.5122
19681TIP3   OH280457   1.336   4.956  13.419  0.3236 -0.3492  0.2145
19681TIP3    H180458   1.325   4.985  13.329  0.1910 -1.5566 -0.1730
19681TIP3    H280459   1.284   5.018  13.471 -0.8879 -0.5685 -0.6917
19682TIP3   OH280460   1.042   3.982   4.191  0.3434 -0.5355  0.3450
19682TIP3    H180461   1.106   4.001   4.259 -1.6585  2.2590  1.6265
19682TIP3    H280462   1.079   4.023   4.112 -0.7601  3.1908  1.5879
19683TIP3   OH280463   5.026   2.836  12.669  0.0141 -0.4952 -0.1577
19683TIP3    H180464   4.992   2.863  12.584 -1.2477 -0.6447  0.2769
19683TIP3    H280465   4.953   2.848  12.730  1.0327  0.0583  1.0064
19684TIP3   OH280466   2.710   1.942  13.296 -0.3207  0.1559 -0.4301
19684TIP3    H180467   2.780   1.989  13.340  0.9804 -0.8335 -1.3496
19684TIP3    H280468   2.659   2.010  13.252  0.5455  0.8446 -0.4011
19685TIP3   OH280469   3.817   5.124   2.125  0.5031 -0.4611  0.3344
19685TIP3    H180470   3.901   5.083   2.147  0.9368  0.1480 -0.1452
19685TIP3    H280471   3.793   5.173   2.204 -0.3920 -2.1957  1.1879
19686TIP3   OH280472   4.353   6.073  15.050  0.4066  0.7761 -0.5107
19686TIP3    H180473   4.374   6.114  15.134  0.3569  2.5517 -1.2994
19686TIP3    H280474   4.438   6.043  15.016  0.1733 -1.9789  1.0867
19687TIP3   OH280475   2.189   4.582   2.708  0.0196 -0.3466  0.0999
19687TIP3    H180476   2.123   4.612   2.771 -0.6284  0.7683 -1.0663
19687TIP3    H280477   2.266   4.637   2.726 -0.4790  0.6298 -0.6770
19688TIP3   OH280478   4.465   0.695   1.197 -0.5131  0.3902  0.3377
19688TIP3    H180479   4.375   0.668   1.177 -0.6640 -1.2191  2.7600
19688TIP3    H280480   4.504   0.711   1.111 -1.9349 -2.9064 -1.1204
19689TIP3   OH280481   1.219   6.248   1.039 -0.3532 -0.9014  0.1483
19689TIP3    H180482   1.204   6.185   0.968 -0.4634 -0.7398  0.0288
19689TIP3    H280483   1.149   6.312   1.029  0.8165  0.2725 -0.8642
19690TIP3   OH280484   0.339   6.086  13.237  0.0546  0.3888 -0.1858
19690TIP3    H180485   0.260   6.105  13.186 -1.3039 -0.7870  1.3438
19690TIP3    H280486   0.306   6.043  13.317  2.2788 -0.5470  0.3123
19691TIP3   OH280487   5.295   3.228  14.880 -0.1289  0.5385  0.4758
19691TIP3    H180488   5.211   3.182  14.874 -0.2735  0.8288  0.2852
19691TIP3    H280489   5.273   3.320  14.865  0.6124  0.3024 -2.5995
19692TIP3   OH280490   4.898   0.333  11.742  0.0764  0.7495 -0.0328
19692TIP3    H180491   4.849   0.326  11.824  0.4075  2.0704  0.3054
19692TIP3    H280492   4.957   0.258  11.743 -2.4121 -1.3748 -0.8501
19693TIP3   OH280493   0.506   4.890   1.268  0.3700 -0.2164 -0.4777
19693TIP3    H180494   0.453   4.915   1.191 -1.3317 -1.3150  0.2763
19693TIP3    H280495   0.470   4.943   1.339  2.5453  1.4757 -0.5359
19694TIP3   OH280496   2.278   3.052  15.333  0.0311 -0.2064  0.2510
19694TIP3    H180497   2.196   3.028  15.376 -0.5997  0.5663 -0.4817
19694TIP3    H280498   2.281   2.997  15.255  0.4387 -0.5567  0.5119
19695TIP3   OH280499   3.369   0.764  17.190 -0.1365 -0.0487  0.1409
19695TIP3    H180500   3.348   0.734  17.278 -0.7931 -2.7027 -0.8083
19695TIP3    H280501   3.305   0.833  17.172 -0.4354  0.0491  1.4933
19696TIP3   OH280502   0.688   0.759   0.994 -0.5389 -0.3441 -0.7162
19696TIP3    H180503   0.603   0.779   0.954 -1.6233 -0.4737  1.3567
19696TIP3    H280504   0.709   0.838   1.045 -1.0421 -1.4610  1.3387
19697TIP3   OH280505   4.268   5.401   4.807  0.2707 -0.1289  0.4293
19697TIP3    H180506   4.177   5.406   4.778  0.9430  0.8368 -1.6644
19697TIP3    H280507   4.271   5.456   4.885 -0.5691  1.3734 -0.5597
19698TIP3   OH280508   3.761   2.544  12.193  0.6251  0.4321 -0.1605
19698TIP3    H180509   3.781   2.488  12.268 -2.1573  0.8577  1.0236
19698TIP3    H280510   3.724   2.484  12.128 -0.2182  0.5150  0.2206
19699TIP3   OH280511   3.988   5.614  11.902  0.4902 -0.7275 -0.0512
19699TIP3    H180512   3.954   5.549  11.964 -0.8064  0.2336  0.3052
19699TIP3    H280513   3.911   5.641  11.852  1.4296 -1.1589 -1.8332
19700TIP3   OH280514   3.743   5.604   2.493  0.2337 -0.3240 -0.4085
19700TIP3    H180515   3.834   5.580   2.478  0.4305  0.1669 -0.0480
19700TIP3    H280516   3.746   5.699   2.510 -0.3125 -0.3472 -0.1588
19701TIP3   OH280517   0.488   3.329  13.904 -0.2799  0.1540 -0.1085
19701TIP3    H180518   0.531   3.340  13.819  0.6766  1.1802  0.4734
19701TIP3    H280519   0.555   3.289  13.959 -0.4827  0.5989  0.4685
19702TIP3   OH280520   6.615   1.061  15.236  0.4621 -0.0205  0.0631
19702TIP3    H180521   6.570   0.998  15.293  0.2382  1.4510  1.6074
19702TIP3    H280522   6.701   1.022  15.219 -0.2133 -1.4172 -0.3056
19703TIP3   OH280523   5.245   3.176   2.489  0.1298  0.4609  0.1822
19703TIP3    H180524   5.276   3.188   2.399 -0.8660 -2.3421 -0.6456
19703TIP3    H280525   5.185   3.250   2.503  0.7659  1.2867 -1.1989
19704TIP3   OH280526   4.749   4.644   2.376 -0.1103  0.2045 -0.1968
19704TIP3    H180527   4.663   4.607   2.397  0.9307 -1.1134  2.0447
19704TIP3    H280528   4.776   4.597   2.297 -0.8989 -0.2278 -0.2234
19705TIP3   OH280529   5.528   6.157  10.942 -0.1811  0.1289  0.4630
19705TIP3    H180530   5.610   6.195  10.910  0.4837 -0.6373  1.2153
19705TIP3    H280531   5.504   6.093  10.876 -1.3021  1.7655 -0.8107
19706TIP3   OH280532   0.326   1.469   2.524 -0.3544 -0.0219  0.0343
19706TIP3    H180533   0.367   1.415   2.591  0.7597 -0.4368 -0.9344
19706TIP3    H280534   0.246   1.421   2.500  0.8908 -1.5872 -1.1911
19707TIP3   OH280535   1.749   0.663  16.968 -0.8341 -0.2105  0.2141
19707TIP3    H180536   1.661   0.662  16.930 -1.8699  0.9937  2.3929
19707TIP3    H280537   1.742   0.606  17.045  0.7157 -1.2316 -0.3540
19708TIP3   OH280538   4.681   2.744  13.543 -0.2840 -0.3889  0.2260
19708TIP3    H180539   4.593   2.708  13.533 -0.8322  0.6869  0.9658
19708TIP3    H280540   4.667   2.835  13.570  1.0397  0.1563 -0.7796
19709TIP3   OH280541   2.075   5.624   2.028  0.5161  0.1362  0.2406
19709TIP3    H180542   2.151   5.650   2.079  0.8139  0.2653 -0.2651
19709TIP3    H280543   2.035   5.553   2.078  0.7674  0.3037  0.6813
19710TIP3   OH280544   4.553   3.443  14.176  0.3532 -0.0484  0.3293
19710TIP3    H180545   4.528   3.395  14.097 -0.7051 -0.1125  0.6829
19710TIP3    H280546   4.646   3.426  14.186  0.1659 -1.3750 -0.0051
19711TIP3   OH280547   2.433   0.118  16.573  0.0164  0.3030  0.0200
19711TIP3    H180548   2.445   0.074  16.489  0.3456 -0.5587  0.5057
19711TIP3    H280549   2.372   0.190  16.554 -0.6194 -0.4272 -0.7754
19712TIP3   OH280550   2.474   5.014  13.449  0.0127  0.4518  0.4032
19712TIP3    H180551   2.537   4.942  13.442 -0.2708  0.2992 -0.6682
19712TIP3    H280552   2.459   5.042  13.359 -1.6103  0.3608  0.6174
19713TIP3   OH280553   4.955   0.276  14.822 -0.3084  0.0719  0.1424
19713TIP3    H180554   4.899   0.200  14.802 -1.5821  1.3392 -1.3730
19713TIP3    H280555   5.044   0.243  14.812 -0.8322 -1.1419 -0.9059
19714TIP3   OH280556   1.531   3.975  14.988  0.5362  0.2574  0.1094
19714TIP3    H180557   1.448   4.022  14.998 -0.4675 -1.4979  0.4137
19714TIP3    H280558   1.575   4.020  14.916 -1.7345 -0.1414 -1.6514
19715TIP3   OH280559   4.903   0.568   0.658 -0.4937  0.0509 -0.2707
19715TIP3    H180560   4.937   0.623   0.729 -0.5660  0.3556 -0.4676
19715TIP3    H280561   4.971   0.503   0.643  0.4691  1.2356 -1.3104
19716TIP3   OH280562   3.471   3.789   4.235 -0.1545 -0.3981 -0.0819
19716TIP3    H180563   3.543   3.815   4.177  0.1977 -1.1594  0.0076
19716TIP3    H280564   3.430   3.715   4.190  0.3933 -1.2833  0.8458
19717TIP3   OH280565   4.694   3.672  15.357  0.2476  0.3037  0.3568
19717TIP3    H180566   4.743   3.742  15.314  1.1207 -0.8086 -0.4994
19717TIP3    H280567   4.751   3.640  15.427 -0.2277  0.5486  0.8734
19718TIP3   OH280568   3.767   4.379   6.053 -0.2170 -0.3671 -0.0340
19718TIP3    H180569   3.741   4.303   6.105 -1.1200 -0.0066  0.0503
19718TIP3    H280570   3.768   4.347   5.963  0.2075 -0.6850  0.0776
19719TIP3   OH280571   2.031   4.561   3.892 -0.5429 -0.0572  0.0962
19719TIP3    H180572   2.045   4.494   3.825  2.5250  0.5643 -0.0283
19719TIP3    H280573   1.966   4.620   3.854 -1.9211 -1.8774 -0.5552
19720TIP3   OH280574   4.973   2.334   4.522  0.4292  0.4344 -0.3301
19720TIP3    H180575   4.994   2.378   4.439 -0.9382  0.0103 -0.9467
19720TIP3    H280576   4.878   2.344   4.530  0.7708  2.3623  2.3169
19721TIP3   OH280577   3.814   1.384  12.399  0.4134 -0.0689  0.0363
19721TIP3    H180578   3.735   1.415  12.355 -0.3351 -1.5602  0.2634
19721TIP3    H280579   3.783   1.347  12.482  1.4002 -0.3583  0.2992
19722TIP3   OH280580   6.282   5.007   3.066  0.0743  0.7101  0.1788
19722TIP3    H180581   6.342   4.955   3.013 -1.3555 -0.5389 -0.3171
19722TIP3    H280582   6.317   5.096   3.063  2.1783 -0.0635  0.4000
19723TIP3   OH280583   0.093   3.955   0.117  0.3486  0.2063 -0.4005
19723TIP3    H180584   0.179   3.960   0.160  0.7631  0.5812 -1.2571
19723TIP3    H280585   0.038   3.909   0.180  1.5476 -1.3543 -0.4456
19724TIP3   OH280586   3.507   5.964   0.815  0.3891 -0.2441 -0.3107
19724TIP3    H180587   3.531   6.051   0.783 -0.8401  0.4736  0.6770
19724TIP3    H280588   3.585   5.911   0.799  1.1634  1.0284 -0.9082
19725TIP3   OH280589   3.610   2.238  11.602  0.1298  0.8574  0.3853
19725TIP3    H180590   3.629   2.146  11.582 -0.8608  0.5338  0.8566
19725TIP3    H280591   3.605   2.281  11.517 -0.0874  0.3224  0.1202
19726TIP3   OH280592   0.068   3.039   5.013  0.1960  0.2144  0.3822
19726TIP3    H180593   0.016   3.008   5.087  1.4220  0.0876  1.2351
19726TIP3    H280594   0.056   3.134   5.012  0.7191  0.3024  1.2089
19727TIP3   OH280595   5.797   6.155  13.967 -0.4854  0.0567  0.8156
19727TIP3    H180596   5.705   6.142  13.945 -0.4868  0.1978  0.7358
19727TIP3    H280597   5.801   6.139  14.062 -0.6115  0.1479  0.8371
19728TIP3   OH280598   3.980   4.622  16.031 -0.1523 -0.1780  0.8525
19728TIP3    H180599   4.053   4.683  16.025  0.7467 -1.2696  0.3421
19728TIP3    H280600   3.956   4.605  15.940 -2.8597  2.1960  0.9620
19729TIP3   OH280601   6.537   4.251   4.027  0.2099  0.2517  0.8556
19729TIP3    H180602   6.456   4.266   4.076 -1.4863 -0.7845 -1.4863
19729TIP3    H280603   6.535   4.315   3.956  0.8567 -0.5658  0.0828
19730TIP3   OH280604   3.489   1.152  13.998 -0.4304 -0.0990 -0.0077
19730TIP3    H180605   3.448   1.147  13.912  1.1655 -1.9285 -0.7359
19730TIP3    H280606   3.496   1.245  14.017 -0.7158  0.3417 -1.9089
19731TIP3   OH280607   4.142   3.646   5.846 -0.0632 -0.3351  0.0751
19731TIP3    H180608   4.127   3.625   5.938 -1.5667  0.6130  0.0738
19731TIP3    H280609   4.235   3.629   5.832  0.6522  1.3258  2.2868
19732TIP3   OH280610   0.298   5.864   2.886 -0.3577  0.3157  0.1068
19732TIP3    H180611   0.259   5.909   2.961 -0.7076 -0.3002  0.3004
19732TIP3    H280612   0.364   5.924   2.854  0.4002  0.2292  1.4483
19733TIP3   OH280613   4.733   3.904   5.664  1.0057  0.1359  0.0849
19733TIP3    H180614   4.736   3.872   5.754 -0.0641  0.1890  0.1507
19733TIP3    H280615   4.664   3.852   5.622 -0.5164  2.0288  0.0882
19734TIP3   OH280616   2.352   1.827  14.371  0.2330  0.2450 -0.6345
19734TIP3    H180617   2.419   1.837  14.303  0.6405  1.0317 -0.1242
19734TIP3    H280618   2.291   1.898  14.355  0.0543  0.1252 -0.4891
19735TIP3   OH280619   3.946   4.433   3.801  0.3583  0.4556 -0.2011
19735TIP3    H180620   4.013   4.384   3.753  0.5643  1.3483 -0.8584
19735TIP3    H280621   3.996   4.499   3.850  0.5136 -2.1636  3.6597
19736TIP3   OH280622   2.220   4.160  15.068 -0.6997  0.5045 -0.5058
19736TIP3    H180623   2.137   4.113  15.078 -0.8477  0.6337 -1.0894
19736TIP3    H280624   2.256   4.164  15.157 -0.7052 -0.6660 -0.4341
19737TIP3   OH280625   1.269   5.876  15.829  0.3277 -0.5978  0.4244
19737TIP3    H180626   1.261   5.866  15.735 -0.0986  0.9158  0.2726
19737TIP3    H280627   1.308   5.963  15.841 -2.2029  0.4743  1.6743
19738TIP3   OH280628   6.544   3.208  14.425  0.5105  0.0638  0.2993
19738TIP3    H180629   6.555   3.174  14.336 -1.3464  0.7137 -0.2225
19738TIP3    H280630   6.451   3.197  14.444  0.3622  2.2530  1.1586
19739TIP3   OH280631   5.745   4.158   0.960  0.7786  0.0988  0.3229
19739TIP3    H180632   5.702   4.244   0.955 -0.1808 -0.0115  4.1260
19739TIP3    H280633   5.831   4.176   0.998  0.4569 -0.6023  1.4332
19740TIP3   OH280634   5.048   5.797  14.446 -0.4111  0.5783 -0.3127
19740TIP3    H180635   5.088   5.807  14.360  0.0246 -0.1763 -0.2051
19740TIP3    H280636   4.990   5.721  14.437  0.7195 -0.4088  0.4340
19741TIP3   OH280637   1.739   1.828   5.448  0.4708  0.0155 -0.2611
19741TIP3    H180638   1.806   1.759   5.443  0.4299  0.0109 -0.8409
19741TIP3    H280639   1.656   1.781   5.444  0.4180  0.2068 -3.1784
19742TIP3   OH280640   2.578   5.445  14.389 -0.1353  0.3165 -0.6462
19742TIP3    H180641   2.659   5.497  14.390 -0.0946  0.2672  0.5122
19742TIP3    H280642   2.519   5.492  14.448 -0.5208 -0.3035 -0.5259
19743TIP3   OH280643   0.240   6.714   2.414 -0.3762 -0.0806 -0.3892
19743TIP3    H180644   0.262   6.805   2.396 -3.8552  0.8690 -0.6306
19743TIP3    H280645   0.276   6.665   2.340  3.8709  0.5348  1.0059
19744TIP3   OH280646   5.057   2.799   1.158  0.1516 -0.1960  0.3008
19744TIP3    H180647   5.071   2.754   1.241 -1.0246 -1.2699 -0.0623
19744TIP3    H280648   5.098   2.885   1.171  1.3223 -0.8823  1.4490
19745TIP3   OH280649   2.780   1.748  11.926 -1.0223 -0.8757  0.0197
19745TIP3    H180650   2.738   1.671  11.887 -0.1126 -0.7275 -1.3050
19745TIP3    H280651   2.870   1.745  11.895 -0.7089  0.1800  0.7780
19746TIP3   OH280652   6.534   3.993  15.955  0.0057 -0.1100  0.5525
19746TIP3    H180653   6.579   4.039  16.026  0.5431  0.1329  0.0687
19746TIP3    H280654   6.513   4.061  15.891 -1.3120 -0.1806  0.8857
19747TIP3   OH280655   1.352   0.265   5.638 -0.3996 -0.6798  0.3592
19747TIP3    H180656   1.360   0.196   5.704 -0.5021 -1.5063 -0.4733
19747TIP3    H280657   1.442   0.284   5.612 -0.4579 -1.8442 -0.7563
19748TIP3   OH280658   4.731   3.584  13.657 -0.3789  0.8885 -0.4353
19748TIP3    H180659   4.798   3.586  13.589  0.1981  0.3813  0.1158
19748TIP3    H280660   4.688   3.499  13.646  0.4416  0.3349  0.5233
19749TIP3   OH280661   4.278   2.605  12.178  0.2815  0.0013  0.3363
19749TIP3    H180662   4.195   2.651  12.182 -0.4957 -0.6769 -3.6968
19749TIP3    H280663   4.343   2.670  12.207 -1.2881  1.7141  0.1742
19750TIP3   OH280664   2.831   5.189  11.586  0.3855 -0.4366  0.1193
19750TIP3    H180665   2.853   5.232  11.503  1.6648  0.0950  0.7152
19750TIP3    H280666   2.880   5.107  11.584  0.5143 -0.3657  0.4070
19751TIP3   OH280667   4.289   6.109  12.406  0.0321 -0.3430 -0.3440
19751TIP3    H180668   4.216   6.146  12.456  0.6973  0.5843 -0.0321
19751TIP3    H280669   4.252   6.032  12.362 -0.8479 -0.5151  0.6758
19752TIP3   OH280670   5.205   2.812   6.129  0.2682  0.0749  0.7145
19752TIP3    H180671   5.144   2.738   6.128  0.7541 -0.3209  0.4626
19752TIP3    H280672   5.241   2.815   6.041  0.0418  0.7915  0.6389
19753TIP3   OH280673   3.621   5.446   5.888  0.0777 -0.1179  0.3721
19753TIP3    H180674   3.636   5.370   5.832 -0.7137 -0.7564  1.0013
19753TIP3    H280675   3.666   5.425   5.970  0.5652  0.4665  0.2612
19754TIP3   OH280676   4.938   3.689  11.269  0.1438  0.3243 -0.1140
19754TIP3    H180677   4.956   3.759  11.332 -1.1190  0.2471  0.3521
19754TIP3    H280678   4.845   3.671  11.278  0.2914 -0.9049 -0.7652
19755TIP3   OH280679   5.016   4.569   4.185 -0.4699 -0.0846  0.5445
19755TIP3    H180680   4.964   4.619   4.122  1.1944  0.9993 -0.0651
19755TIP3    H280681   5.084   4.527   4.131  1.0584  0.9566  1.5490
19756TIP3   OH280682   1.946   3.579  12.723  0.2350 -0.0991 -0.2253
19756TIP3    H180683   2.004   3.587  12.798  0.8475  0.3285 -0.7332
19756TIP3    H280684   1.951   3.487  12.698  2.1902  0.2689 -1.4164
19757TIP3   OH280685   0.738   5.948  16.049 -0.1470  0.3768 -0.2067
19757TIP3    H180686   0.825   5.907  16.045 -0.3636 -0.2273  0.9337
19757TIP3    H280687   0.755   6.037  16.079  0.0052 -0.0398  0.9812
19758TIP3   OH280688   2.788   3.577  17.242  0.0785  0.6215 -0.1657
19758TIP3    H180689   2.705   3.539  17.214  0.7039 -0.4726 -0.6196
19758TIP3    H280690   2.791   3.563  17.336  0.8384 -1.6676 -0.4685
19759TIP3   OH280691   1.489   3.735  15.869 -0.1446 -0.2275 -0.5463
19759TIP3    H180692   1.529   3.658  15.830 -1.2623 -0.8033 -0.5938
19759TIP3    H280693   1.529   3.742  15.956 -2.4530 -2.9769  0.9348
19760TIP3   OH280694   2.972   2.626   4.907  0.1021  0.1459  0.2666
19760TIP3    H180695   2.989   2.533   4.917  2.0320  0.6292  2.3624
19760TIP3    H280696   2.933   2.635   4.821 -1.4697 -2.7353  0.5793
19761TIP3   OH280697   4.557   3.727  12.275 -0.2391  0.4160  0.1844
19761TIP3    H180698   4.533   3.801  12.332  1.6697  2.0188 -0.9459
19761TIP3    H280699   4.616   3.675  12.328 -1.2401 -0.0795  0.8385
19762TIP3   OH280700   2.559   5.708   1.627 -0.4227  0.1729 -0.3424
19762TIP3    H180701   2.645   5.743   1.603 -0.4364 -0.6633 -1.7710
19762TIP3    H280702   2.532   5.760   1.702  0.4839  1.7622 -1.0556
19763TIP3   OH280703   2.914   4.353  14.959  0.2534 -0.5550 -0.0208
19763TIP3    H180704   2.957   4.277  14.998 -0.2041 -1.7626 -1.7697
19763TIP3    H280705   2.831   4.318  14.925  0.0192  0.7391 -0.8214
19764TIP3   OH280706   0.115   5.264   5.705 -0.3383 -1.1843  0.1589
19764TIP3    H180707   0.122   5.254   5.800 -0.2021 -0.4771  0.2246
19764TIP3    H280708   0.206   5.270   5.675 -0.4163  0.1694  0.1604
19765TIP3   OH280709   1.859   5.751  16.426 -0.2203 -0.5170  0.2856
19765TIP3    H180710   1.813   5.738  16.508 -0.6049 -0.7188  0.0429
19765TIP3    H280711   1.946   5.782  16.451 -0.5605  0.0861  0.7400
19766TIP3   OH280712   4.557   5.092   1.795  0.0622  0.1950  0.2976
19766TIP3    H180713   4.501   5.143   1.854 -0.9010  1.7179 -1.8084
19766TIP3    H280714   4.608   5.158   1.748  1.2308 -1.0043 -0.1645
19767TIP3   OH280715   3.154   4.499   2.167  0.3504 -0.5015 -0.0623
19767TIP3    H180716   3.203   4.456   2.097  0.9294 -1.1244  0.6959
19767TIP3    H280717   3.220   4.548   2.216 -0.5389  2.8372 -1.9327
19768TIP3   OH280718   4.974   5.527   5.386 -0.1078 -0.0018  0.2168
19768TIP3    H180719   4.972   5.433   5.402  1.3062 -0.0855  0.0103
19768TIP3    H280720   5.062   5.544   5.352 -0.9632  1.1149 -1.5437
19769TIP3   OH280721   4.435   5.708   0.151 -0.5419 -0.3350 -0.2069
19769TIP3    H180722   4.341   5.723   0.145 -0.7572 -1.8672 -1.4089
19769TIP3    H280723   4.472   5.793   0.171 -2.1588  0.3520 -0.0021
19770TIP3   OH280724   4.278   4.535  11.644  0.2286  0.4851 -0.1401
19770TIP3    H180725   4.249   4.588  11.570 -0.5346  0.1445 -0.1002
19770TIP3    H280726   4.367   4.507  11.621 -0.6988 -1.2925 -1.8755
19771TIP3   OH280727   6.251   6.567   1.080 -0.1588  0.4433  0.1718
19771TIP3    H180728   6.306   6.643   1.098 -1.5250  1.5978 -0.3620
19771TIP3    H280729   6.293   6.523   1.006 -0.2715  1.6792 -0.6550
19772TIP3   OH280730   2.770   2.550  16.509 -0.1005 -0.4008 -0.1706
19772TIP3    H180731   2.827   2.549  16.432 -0.4294  0.5042 -0.4377
19772TIP3    H280732   2.682   2.540  16.474 -0.2003 -0.6416  0.1466
19773TIP3   OH280733   5.994   6.045  13.540 -0.5812 -0.0360 -0.5762
19773TIP3    H180734   5.974   6.100  13.615 -1.1817  0.1792 -0.8831
19773TIP3    H280735   6.080   6.073  13.511 -0.8815  0.7510 -0.7302
19774TIP3   OH280736   1.484   4.339   2.436  0.6633 -0.1572 -0.0789
19774TIP3    H180737   1.442   4.422   2.415 -0.2550 -0.3984  0.7622
19774TIP3    H280738   1.479   4.332   2.531  2.1311 -0.4579  0.0042
19775TIP3   OH280739   2.479   5.719   1.373  0.4815  0.2420  0.3935
19775TIP3    H180740   2.489   5.727   1.468 -0.9735  1.6715  0.4811
19775TIP3    H280741   2.397   5.671   1.361  0.5784  0.2004 -0.1414
19776TIP3   OH280742   1.450   5.100  15.982 -0.7667  0.0598  0.3296
19776TIP3    H180743   1.492   5.148  16.053  0.9997 -1.3699  0.3269
19776TIP3    H280744   1.510   5.028  15.963 -1.9148 -0.4608 -1.6105
19777TIP3   OH280745   0.500   1.018  11.312  0.5498  0.3734 -0.4015
19777TIP3    H180746   0.595   1.020  11.318  0.7395 -1.3295 -2.1265
19777TIP3    H280747   0.480   1.054  11.226 -0.3536  0.1681 -0.2911
19778TIP3   OH280748   1.740   2.173  12.042  0.8873 -0.3597 -0.4070
19778TIP3    H180749   1.687   2.216  11.975  0.2785 -1.1712 -0.4631
19778TIP3    H280750   1.829   2.174  12.006  0.7348  0.0929 -0.7848
19779TIP3   OH280751   4.610   4.798  11.310  0.4848  0.1826 -0.3820
19779TIP3    H180752   4.607   4.830  11.400  0.1806  0.5155 -0.5081
19779TIP3    H280753   4.585   4.705  11.316  1.5440 -0.0876  0.0063
19780TIP3   OH280754   0.030   3.566   0.216 -0.4492  0.1054  0.1025
19780TIP3    H180755  -0.064   3.557   0.199 -0.5420 -2.0332  1.4212
19780TIP3    H280756   0.066   3.598   0.133 -2.2381  0.3612 -0.6251
19781TIP3   OH280757   0.674   2.943  12.141 -0.4888  0.1084 -0.1035
19781TIP3    H180758   0.668   2.923  12.235 -2.7613 -0.0310 -0.2286
19781TIP3    H280759   0.694   3.037  12.138 -1.3989  0.3319  0.5401
19782TIP3   OH280760   5.437   3.176  13.489 -0.0586 -0.0771  0.0141
19782TIP3    H180761   5.350   3.216  13.492 -0.1574 -0.3401  1.8081
19782TIP3    H280762   5.466   3.177  13.580  1.1576 -1.4376 -0.3363
19783TIP3   OH280763   1.513   2.339   4.970  0.4046 -0.1766  0.3851
19783TIP3    H180764   1.559   2.423   4.962 -1.0433  0.4796 -2.6323
19783TIP3    H280765   1.558   2.282   4.908  1.4914 -1.7936  2.5398
19784TIP3   OH280766   5.000   4.909   5.848 -0.8553  0.7925  0.0079
19784TIP3    H180767   4.940   4.835   5.834 -1.4672  1.1925  0.4916
19784TIP3    H280768   4.996   4.927   5.942 -0.2953  1.1038 -0.0198
19785TIP3   OH280769   3.424   6.370  11.668  0.4193  0.2855  0.0828
19785TIP3    H180770   3.351   6.385  11.608  1.9338  1.9323 -1.4777
19785TIP3    H280771   3.449   6.279  11.654 -0.6461  0.0229 -0.1515
19786TIP3   OH280772   5.706   5.526   6.789  0.5484  0.0834  0.3392
19786TIP3    H180773   5.791   5.488   6.812  0.2966 -0.1856  0.8573
19786TIP3    H280774   5.727   5.609   6.747  1.1069 -0.6278 -0.8082
19787TIP3   OH280775   0.723   0.461  15.440 -0.0825 -0.2494 -0.2961
19787TIP3    H180776   0.736   0.435  15.531  0.9868 -0.7388 -0.5782
19787TIP3    H280777   0.708   0.379  15.393 -0.8426  0.0176 -0.5459
19788TIP3   OH280778   3.523   5.869  16.013 -0.1144 -0.3472 -0.8777
19788TIP3    H180779   3.616   5.849  16.023  0.0236  0.7467  0.3150
19788TIP3    H280780   3.500   5.913  16.094 -1.9880 -1.6691 -0.6415
19789TIP3   OH280781   5.761   5.270  15.400 -0.6502 -0.6093 -0.1277
19789TIP3    H180782   5.759   5.186  15.356 -3.7465 -0.7244  0.0250
19789TIP3    H280783   5.744   5.334  15.330 -1.0621 -0.3898  0.1671
19790TIP3   OH280784   1.016   6.087   1.578 -0.4853  0.4938  0.3054
19790TIP3    H180785   1.063   6.069   1.496 -0.4492  0.4771  0.3300
19790TIP3    H280786   1.075   6.056   1.647 -0.5032  0.5345  0.3391
19791TIP3   OH280787   4.529   1.892   5.330 -0.0486  1.0620 -0.3204
19791TIP3    H180788   4.556   1.940   5.409 -0.0211 -2.1388  1.7764
19791TIP3    H280789   4.437   1.870   5.345 -0.0605  0.4656 -1.2108
19792TIP3   OH280790   5.890   5.501  13.537  0.2344  0.0720 -0.3853
19792TIP3    H180791   5.829   5.565  13.574 -0.8271 -1.4618  0.7061
19792TIP3    H280792   5.969   5.550  13.518 -0.2071  1.5196  1.2693
19793TIP3   OH280793   0.039   0.365  11.986  0.1407  0.8194 -0.0365
19793TIP3    H180794   0.015   0.392  12.074  3.5855  2.0378  0.6844
19793TIP3    H280795   0.131   0.390  11.977  0.5124 -1.0801 -3.2873
19794TIP3   OH280796   4.700   5.677  16.650 -0.4847 -0.2379 -0.5358
19794TIP3    H180797   4.610   5.679  16.619 -0.7732 -1.8024  0.0900
19794TIP3    H280798   4.710   5.756  16.703 -0.7850  1.0998 -2.3942
19795TIP3   OH280799   0.290   1.078  13.820  0.3465  0.2166  0.1403
19795TIP3    H180800   0.357   1.083  13.752 -2.0800  2.9439 -2.3172
19795TIP3    H280801   0.285   1.167  13.855 -2.6241  0.4123 -0.5369
19796TIP3   OH280802   4.916   4.208  13.829  0.1978  0.3336  0.0945
19796TIP3    H180803   4.983   4.253  13.881  0.7651  0.0608 -0.3950
19796TIP3    H280804   4.862   4.164  13.894  0.8996  0.0017  0.4693
19797TIP3   OH280805   1.276   5.892   3.430  0.2878  0.1871 -0.9211
19797TIP3    H180806   1.225   5.972   3.447  0.2853  0.0868 -0.4520
19797TIP3    H280807   1.367   5.920   3.436  0.3267 -0.2749  1.4627
19798TIP3   OH280808   5.580   5.762  16.484 -0.1531  0.1787  0.2304
19798TIP3    H180809   5.485   5.766  16.492 -0.2393  1.8538 -0.9497
19798TIP3    H280810   5.598   5.677  16.445 -1.5660  1.2338 -3.1022
19799TIP3   OH280811   1.719   4.837  12.015 -0.0537 -0.5552  0.3001
19799TIP3    H180812   1.804   4.847  11.972  0.9633 -0.9410  2.1087
19799TIP3    H280813   1.722   4.750  12.055 -2.1783 -1.4814 -1.3530
19800TIP3   OH280814   5.736   0.961   1.827 -0.5506 -0.3849 -0.2919
19800TIP3    H180815   5.767   0.904   1.897 -1.2205 -0.4256 -0.0135
19800TIP3    H280816   5.813   1.009   1.798 -0.4686  0.4742  1.2638
19801TIP3   OH280817   6.295   4.595  11.476 -0.5466 -0.1432 -0.5927
19801TIP3    H180818   6.319   4.538  11.549 -1.9126 -1.1691 -0.8986
19801TIP3    H280819   6.214   4.638  11.504 -0.5276  0.2317 -1.0994
19802TIP3   OH280820   0.754   5.698   0.033  0.1990 -0.6717  0.0336
19802TIP3    H180821   0.677   5.709  -0.022  1.0704 -0.9764 -1.2832
19802TIP3    H280822   0.738   5.756   0.108 -0.6932  0.2744 -0.8624
19803TIP3   OH280823   1.747   4.550  11.236 -0.2971  0.5147  0.1006
19803TIP3    H180824   1.698   4.469  11.230 -0.8101  0.8455 -0.2401
19803TIP3    H280825   1.730   4.595  11.153  2.2311 -0.2924 -0.9785
19804TIP3   OH280826   4.981   4.320  10.491  0.3667  0.8528 -0.4269
19804TIP3    H180827   4.988   4.233  10.530 -1.0567  1.9426  2.6481
19804TIP3    H280828   5.067   4.359  10.501  0.2655  0.7715  0.8963
19805TIP3   OH280829   0.721   6.217   1.709 -0.3111 -0.0109 -0.8258
19805TIP3    H180830   0.634   6.182   1.729  0.6539 -2.2182 -0.2105
19805TIP3    H280831   0.735   6.196   1.616  0.0880 -0.9475 -0.5700
19806TIP3   OH280832   1.050   4.783  11.633 -0.2398 -0.1295  0.5353
19806TIP3    H180833   0.994   4.856  11.661  0.1982  0.5727 -0.3829
19806TIP3    H280834   1.113   4.773  11.704  0.2651  1.0027  0.2648
19807TIP3   OH280835   2.187   1.604   2.148 -0.2813  0.3618 -0.2430
19807TIP3    H180836   2.159   1.680   2.199  1.4729  0.6254  0.3926
19807TIP3    H280837   2.203   1.639   2.060 -2.6759  0.0345 -0.8694
19808TIP3   OH280838   4.093   0.425   0.286  0.3630  0.2421 -0.2004
19808TIP3    H180839   3.998   0.424   0.293  0.3824  0.3284  0.0929
19808TIP3    H280840   4.120   0.504   0.333  0.5216  0.6998 -1.0395
19809TIP3   OH280841   5.192   0.355   4.367  0.4967  0.0161 -0.3193
19809TIP3    H180842   5.127   0.288   4.349 -0.3750  0.4760  1.0013
19809TIP3    H280843   5.251   0.315   4.431  0.9603 -0.0595 -0.7841
19810TIP3   OH280844   2.994   6.484  11.499  0.3219  0.6926  0.1041
19810TIP3    H180845   3.058   6.419  11.470 -1.1931 -0.9990  0.3799
19810TIP3    H280846   3.027   6.513  11.585 -0.7847 -2.5586  1.8043
19811TIP3   OH280847   4.971   3.613  15.193 -0.1645  0.1887  0.2118
19811TIP3    H180848   4.965   3.660  15.276 -0.2379  0.1151  0.2485
19811TIP3    H280849   4.939   3.675  15.128 -0.9867 -0.0599  0.3600
19812TIP3   OH280850   5.426   3.925  15.012 -0.2036 -0.3321  0.2474
19812TIP3    H180851   5.335   3.898  15.024 -0.1488 -0.8069 -0.3591
19812TIP3    H280852   5.424   3.987  14.940 -0.0795 -0.1114  0.4300
19813TIP3   OH280853   3.575   1.614   2.000 -0.2606  0.1222 -0.4675
19813TIP3    H180854   3.656   1.616   1.949  0.6618  0.3031  0.9398
19813TIP3    H280855   3.603   1.595   2.090 -1.8570 -0.5758 -0.0722
19814TIP3   OH280856   0.263   2.736   1.726 -0.3613 -0.1063 -0.4496
19814TIP3    H180857   0.261   2.798   1.799 -0.9506  1.0779 -1.4290
19814TIP3    H280858   0.214   2.780   1.656  2.3713 -0.0358 -2.4803
19815TIP3   OH280859   5.233   0.828   6.115 -0.0386  0.0837  0.1272
19815TIP3    H180860   5.231   0.831   6.211  0.7383 -0.9579  0.1930
19815TIP3    H280861   5.320   0.863   6.093 -0.3505  0.6548 -0.2269
19816TIP3   OH280862   2.359   4.412   4.234  0.2953 -0.4089 -0.1768
19816TIP3    H180863   2.305   4.367   4.298 -1.2310  1.9013  0.2850
19816TIP3    H280864   2.448   4.410   4.272  0.1051 -2.1608  0.2343
19817TIP3   OH280865   2.766   5.908  10.922  0.8245  0.1905  0.2710
19817TIP3    H180866   2.738   5.995  10.894  1.2756  0.0849 -0.5559
19817TIP3    H280867   2.843   5.925  10.978  1.3601  0.2968 -0.4830
19818TIP3   OH280868   6.305   3.663   2.520  0.0628 -0.0770  0.1795
19818TIP3    H180869   6.347   3.583   2.487  1.1621  0.1943  0.8762
19818TIP3    H280870   6.352   3.734   2.477 -0.5429  0.2123 -0.0102
19819TIP3   OH280871   1.758   1.394   4.818  0.0999  0.1586  0.4319
19819TIP3    H180872   1.678   1.357   4.781  1.0806 -0.2036 -1.4501
19819TIP3    H280873   1.757   1.485   4.791 -0.1884  0.4408  1.3536
19820TIP3   OH280874   2.817   6.326  14.128  0.3142 -0.3739  0.1023
19820TIP3    H180875   2.750   6.380  14.088  1.5576  1.4164  0.3163
19820TIP3    H280876   2.842   6.373  14.208  1.7659 -0.9981  0.0610
19821TIP3   OH280877   0.713   2.747  15.620  0.5838 -0.6019 -0.0115
19821TIP3    H180878   0.684   2.755  15.711  0.2618 -1.8975  0.0217
19821TIP3    H280879   0.653   2.682  15.582  0.0722  0.6616 -1.4328
19822TIP3   OH280880   2.862   2.634  11.439 -0.4296  0.4013  0.2360
19822TIP3    H180881   2.883   2.659  11.349  1.8433 -1.2383  0.2122
19822TIP3    H280882   2.780   2.585  11.432 -1.2095  1.7750 -0.6646
19823TIP3   OH280883   6.246   3.780  16.941  0.5405  0.3764 -0.3999
19823TIP3    H180884   6.208   3.773  17.029  0.8639  0.2183 -0.2724
19823TIP3    H280885   6.305   3.855  16.947  1.3461 -0.2600 -0.1891
19824TIP3   OH280886   3.294   1.232  15.763  0.2395 -0.3567  0.8897
19824TIP3    H180887   3.322   1.277  15.684 -1.0957 -1.0194  0.0080
19824TIP3    H280888   3.334   1.146  15.757 -1.0879 -0.9423  0.1458
19825TIP3   OH280889   4.188   5.794   6.372  0.5390 -0.6287  0.4520
19825TIP3    H180890   4.175   5.821   6.281 -0.7147  1.5089  1.1881
19825TIP3    H280891   4.165   5.872   6.423  0.8546 -1.8922  2.6177
19826TIP3   OH280892   3.620   4.009  17.139  0.1187 -0.6807 -0.5297
19826TIP3    H180893   3.679   4.061  17.192  0.1493 -0.7444 -0.5014
19826TIP3    H280894   3.670   3.930  17.118  0.3874 -0.3228 -1.2936
19827TIP3   OH280895   5.818   4.200   2.138  0.3539  0.2545 -0.3224
19827TIP3    H180896   5.812   4.242   2.224 -0.7166  0.7020 -0.6030
19827TIP3    H280897   5.771   4.259   2.079 -1.6157 -1.5256 -0.6523
19828TIP3   OH280898   1.618   1.633  16.762  0.2407  0.1487 -0.2882
19828TIP3    H180899   1.644   1.723  16.782 -2.1470  1.1578 -1.3098
19828TIP3    H280900   1.565   1.606  16.837  0.9073 -0.4058 -0.0088
19829TIP3   OH280901   2.622   4.877  14.838 -0.0619  0.4731  0.1346
19829TIP3    H180902   2.527   4.869  14.832 -0.1124  1.0062  0.1818
19829TIP3    H280903   2.650   4.894  14.748  0.0363 -0.1619  0.0450
19830TIP3   OH280904   4.812   0.437  14.151  1.2218 -0.1589 -0.3657
19830TIP3    H180905   4.810   0.531  14.133  0.1637 -0.5665 -2.6733
19830TIP3    H280906   4.889   0.405  14.104  0.1761 -0.7784 -1.7345
19831TIP3   OH280907   2.124   0.355   1.707  0.1187 -0.4757  0.5135
19831TIP3    H180908   2.167   0.428   1.751  0.9897 -0.2285 -0.6981
19831TIP3    H280909   2.128   0.377   1.614 -0.8100 -1.4362  0.2214
19832TIP3   OH280910   1.178   1.779   5.478  0.3015  0.1675  0.2566
19832TIP3    H180911   1.115   1.850   5.474 -0.0047 -0.1128  0.0809
19832TIP3    H280912   1.230   1.788   5.398  0.3594  0.2821  0.3074
19833TIP3   OH280913   4.167   2.262   4.064 -0.2999 -0.2310  0.4297
19833TIP3    H180914   4.080   2.232   4.091 -0.2060 -1.0559 -0.1657
19833TIP3    H280915   4.185   2.337   4.121 -0.5435 -1.2722  1.9309
19834TIP3   OH280916   4.320   3.099  16.103  0.1932 -0.7579  0.1384
19834TIP3    H180917   4.339   3.092  16.197 -1.5105  1.1650  0.6843
19834TIP3    H280918   4.240   3.048  16.091  0.1652 -0.6379 -0.1787
19835TIP3   OH280919   2.746   1.547   3.411  0.1508 -0.1344 -0.3971
19835TIP3    H180920   2.662   1.578   3.379  1.5876  3.1359 -1.4616
19835TIP3    H280921   2.763   1.599   3.490  0.4097 -2.0735  0.8945
19836TIP3   OH280922   5.221   2.116  17.308 -0.1578 -0.4163 -0.1320
19836TIP3    H180923   5.182   2.194  17.268  0.6146  0.2487  0.3792
19836TIP3    H280924   5.309   2.144  17.335 -0.7509 -0.6992  2.3661
19837TIP3   OH280925   3.458   4.996  16.066 -0.3911 -0.4468  0.4959
19837TIP3    H180926   3.516   4.994  15.990 -0.2659 -0.9481  0.6033
19837TIP3    H280927   3.415   4.911  16.066 -1.3817  0.0476  0.2248
19838TIP3   OH280928   3.532   0.655  15.779 -0.7404 -0.1275  0.7240
19838TIP3    H180929   3.457   0.714  15.785 -1.3555 -0.7693 -0.3953
19838TIP3    H280930   3.607   0.710  15.799 -1.1788  1.2928 -1.2930
19839TIP3   OH280931   1.626   0.279  14.083 -0.0978 -0.1636 -0.2688
19839TIP3    H180932   1.592   0.211  14.141  0.3429 -0.1653 -0.0080
19839TIP3    H280933   1.581   0.359  14.111  0.6839 -0.0074  0.6172
19840TIP3   OH280934   1.531   0.640  16.119 -0.1793 -0.3374  0.6382
19840TIP3    H180935   1.474   0.616  16.046  0.5928 -0.6281  0.1239
19840TIP3    H280936   1.569   0.724  16.092 -0.7478  0.1222  1.2149
19841TIP3   OH280937   5.422   4.082  12.545  0.3073 -0.0915  0.1131
19841TIP3    H180938   5.514   4.093  12.570  0.4643 -1.7131  0.3705
19841TIP3    H280939   5.374   4.139  12.605  0.8532 -2.2057  2.7621
19842TIP3   OH280940   3.156   0.948  13.835  0.2275  0.5698  0.2278
19842TIP3    H180941   3.063   0.956  13.815  0.0348 -1.4336  0.1383
19842TIP3    H280942   3.159   0.889  13.910  1.3578  2.1265  1.4768
19843TIP3   OH280943   1.402   0.736   6.054 -0.2586  0.2891  0.3427
19843TIP3    H180944   1.469   0.765   5.991 -0.8363 -0.1848 -0.5022
19843TIP3    H280945   1.350   0.672   6.006 -2.0730  1.5174  0.5792
19844TIP3   OH280946   0.217   6.082   3.111  0.1094 -0.1469  0.0998
19844TIP3    H180947   0.291   6.143   3.101 -0.2990  0.2094 -0.8634
19844TIP3    H280948   0.235   6.036   3.193 -0.7831  2.9806  2.2443
19845TIP3   OH280949   4.366   2.769   1.368 -0.2316 -0.1329 -0.0425
19845TIP3    H180950   4.427   2.708   1.410  0.8239 -0.0236 -1.3418
19845TIP3    H280951   4.309   2.713   1.315 -1.1865 -0.2194  1.0385
19846TIP3   OH280952   4.395   3.980   2.641 -0.4034 -0.4221  0.7554
19846TIP3    H180953   4.448   4.049   2.602 -1.2798 -2.0982 -3.9841
19846TIP3    H280954   4.312   4.022   2.663 -0.9503  0.1694 -2.1234
19847TIP3   OH280955   4.964   1.757   3.894  0.3513  0.7741 -0.3006
19847TIP3    H180956   4.991   1.682   3.841  0.3257  1.0279 -0.6714
19847TIP3    H280957   4.868   1.753   3.893  0.3199  1.5543 -1.3883
19848TIP3   OH280958   4.455   4.828   1.722  0.2118  0.1245 -0.3674
19848TIP3    H180959   4.535   4.778   1.710  0.0492  0.0770 -1.2928
19848TIP3    H280960   4.485   4.918   1.736  0.3965  0.4953 -2.7744
19849TIP3   OH280961   3.450   1.667   3.989 -0.1542  0.1693 -0.2354
19849TIP3    H180962   3.478   1.586   3.945 -0.0990 -0.1102  0.3058
19849TIP3    H280963   3.362   1.683   3.955  0.1492  0.3479 -0.9762
19850TIP3   OH280964   5.765   0.736  15.576 -0.1619 -0.0952 -0.2621
19850TIP3    H180965   5.729   0.732  15.664  2.0831  0.2538  0.7163
19850TIP3    H280966   5.718   0.809  15.535 -0.5546  0.3514  0.9476
19851TIP3   OH280967   1.670   2.885  16.193 -0.0916  0.5730 -0.1648
19851TIP3    H180968   1.756   2.926  16.202  0.0677  0.4265 -0.9495
19851TIP3    H280969   1.681   2.820  16.123 -0.4889 -0.3918  0.6363
19852TIP3   OH280970   6.484   3.246  13.323  0.1940 -0.1566 -0.6804
19852TIP3    H180971   6.472   3.274  13.414 -0.7479 -2.5812  0.0311
19852TIP3    H280972   6.426   3.303  13.273 -1.5316 -0.6189  0.6685
19853TIP3   OH280973   4.413   0.308   1.539 -0.4040  0.3697 -0.1034
19853TIP3    H180974   4.481   0.284   1.476 -2.2247 -0.7016 -1.7777
19853TIP3    H280975   4.385   0.225   1.577  0.1400  0.9320  1.6277
19854TIP3   OH280976   6.220   6.152  12.629 -0.7044 -0.4478 -0.3230
19854TIP3    H180977   6.266   6.183  12.707 -2.6186  0.2340  0.5982
19854TIP3    H280978   6.289   6.118  12.572  0.9772  1.0309  0.7266
19855TIP3   OH280979   5.140   3.554   3.651 -0.0526  0.1913 -0.4665
19855TIP3    H180980   5.177   3.470   3.678 -0.4041  0.3214  0.4459
19855TIP3    H280981   5.184   3.574   3.568 -0.5374 -1.2695 -1.1116
19856TIP3   OH280982   1.564   6.413  16.663 -0.0279  0.9898  0.3640
19856TIP3    H180983   1.512   6.470  16.606 -2.7827  2.0236  3.5959
19856TIP3    H280984   1.509   6.335  16.673  0.1117  1.0734  1.9689
19857TIP3   OH280985   2.185   0.258   4.972  0.4124 -0.0341  0.2629
19857TIP3    H180986   2.138   0.258   4.889 -0.8877 -2.0088  0.9405
19857TIP3    H280987   2.264   0.207   4.955  0.9518  0.8981 -0.1318
19858TIP3   OH280988   2.098   3.021  16.274 -0.5651 -0.1409  0.1653
19858TIP3    H180989   2.148   3.103  16.279 -2.1712  1.3533 -4.0011
19858TIP3    H280990   2.013   3.043  16.312  0.1951 -1.2601  2.7781
19859TIP3   OH280991   1.745   6.065   3.190 -0.2866  0.8112  0.2464
19859TIP3    H180992   1.733   5.985   3.242  1.6502 -1.2455 -2.2243
19859TIP3    H280993   1.657   6.084   3.155 -0.9090  0.2005  1.4257
19860TIP3   OH280994   6.554   3.752  16.970  0.1725 -0.2000 -0.0506
19860TIP3    H180995   6.551   3.659  16.992 -0.6805 -0.0839  0.3742
19860TIP3    H280996   6.637   3.783  17.008 -0.4365 -0.3880  1.5288
19861TIP3   OH280997   6.648   4.101  13.212  0.4270 -0.0259 -0.7814
19861TIP3    H180998   6.563   4.131  13.178  0.9123  0.8578 -1.2368
19861TIP3    H280999   6.658   4.147  13.296 -0.2793 -1.3919  0.0930
19862TIP3   OH281000   2.260   2.671  13.861 -0.1368  0.3798 -0.3688
19862TIP3    H181001   2.193   2.735  13.838 -2.8782 -1.9905  0.4326
19862TIP3    H281002   2.274   2.621  13.780 -3.4655 -2.4944  0.5949
19863TIP3   OH281003   4.011   1.424   5.008  0.2287  0.2624 -0.2231
19863TIP3    H181004   4.091   1.472   5.028  0.3464  0.2499 -0.6395
19863TIP3    H281005   4.031   1.377   4.927  0.0731 -0.3832  0.1069
19864TIP3   OH281006   4.468   5.375   2.365  0.1187  0.6351  0.2423
19864TIP3    H181007   4.427   5.451   2.407 -0.9189 -0.7416  1.8647
19864TIP3    H281008   4.556   5.404   2.344  0.7302  1.4906  3.4076
19865TIP3   OH281009   2.697   1.494   1.633 -0.0450 -0.2871 -0.0226
19865TIP3    H181010   2.697   1.451   1.547  0.5676 -0.0016 -0.1752
19865TIP3    H281011   2.737   1.580   1.616  0.1772 -0.2728  0.5698
19866TIP3   OH281012   1.537   2.791  17.265 -0.5325  0.1216 -0.0985
19866TIP3    H181013   1.614   2.784  17.208 -1.1222  1.0334 -1.0330
19866TIP3    H281014   1.574   2.802  17.353  0.4887  2.5330 -0.7305
19867TIP3   OH281015   4.092   0.911   0.574  0.0162  0.2316  0.1394
19867TIP3    H181016   4.182   0.930   0.548 -0.2715  2.9387  0.8104
19867TIP3    H281017   4.097   0.895   0.669 -0.2598  1.2433  0.3447
19868TIP3   OH281018   6.482   6.332  12.367 -0.6953  0.0740 -0.2302
19868TIP3    H181019   6.538   6.336  12.444 -1.1506  1.5272  0.0566
19868TIP3    H281020   6.520   6.396  12.307 -1.6464  0.5933 -0.2960
19869TIP3   OH281021   5.735   2.525  10.777  0.4475  0.0769  0.3362
19869TIP3    H181022   5.747   2.455  10.713 -1.2161  1.4015 -1.5333
19869TIP3    H281023   5.746   2.482  10.862  1.0894 -2.0877 -0.7773
19870TIP3   OH281024   1.311   0.177  14.258 -0.4912 -0.0385  0.0888
19870TIP3    H181025   1.366   0.101  14.281  1.9744  1.9764  1.4510
19870TIP3    H281026   1.234   0.169  14.314 -0.9092 -2.1208 -0.6936
19871TIP3   OH281027   6.602   6.417  12.099  1.0634  0.0598  0.2498
19871TIP3    H181028   6.650   6.364  12.035  0.0284  0.5953 -1.0193
19871TIP3    H281029   6.652   6.499  12.103  0.1576  0.7465 -1.3202
19872TIP3   OH281030   6.353   6.484   6.115  1.0021  0.2760  0.1133
19872TIP3    H181031   6.397   6.406   6.149  1.1336  0.1462 -0.3413
19872TIP3    H281032   6.308   6.521   6.190 -0.9657 -1.4963 -0.0885
19873TIP3   OH281033   1.393   5.550  15.345  0.6701  0.7172  0.3030
19873TIP3    H181034   1.367   5.494  15.273 -1.3415 -1.7478  2.7256
19873TIP3    H281035   1.310   5.588  15.377  1.4507  1.5011  1.4937
19874TIP3   OH281036   3.510   0.294  15.289  0.1351 -0.1262  0.1099
19874TIP3    H181037   3.570   0.237  15.337  0.8644 -1.0107 -1.7417
19874TIP3    H281038   3.500   0.252  15.203 -0.7997  1.5604 -0.6705
19875TIP3   OH281039   2.524   3.364  10.997  0.0200  0.3500 -0.5140
19875TIP3    H181040   2.532   3.337  10.905  0.5045 -0.7562 -0.1660
19875TIP3    H281041   2.543   3.458  10.996  2.1413 -0.0413 -1.2650
19876TIP3   OH281042   2.382   0.136  14.818  0.1738  0.5112  0.7586
19876TIP3    H181043   2.410   0.214  14.866 -1.0541  0.5671  1.4504
19876TIP3    H281044   2.342   0.080  14.885 -3.3850  1.4245 -0.3395
19877TIP3   OH281045   4.059   2.087  15.149 -0.5091  0.0121  0.7155
19877TIP3    H181046   3.994   2.050  15.209  1.2062 -1.7029  1.6118
19877TIP3    H281047   4.138   2.035  15.164  0.5414  0.7819 -1.7005
19878TIP3   OH281048   0.013   1.756   5.428  0.5658  0.5086  0.7037
19878TIP3    H181049  -0.077   1.741   5.457 -0.2343  0.2595 -1.6576
19878TIP3    H281050   0.048   1.669   5.411  0.0517  0.6694 -1.5258
19879TIP3   OH281051   1.801   2.412  15.524  0.1681  0.4461 -0.2047
19879TIP3    H181052   1.745   2.357  15.578 -0.4376 -0.1152 -1.3615
19879TIP3    H281053   1.837   2.477  15.585 -0.5630 -0.0946  0.8366
19880TIP3   OH281054   0.143   6.065  16.789 -0.0576 -0.3198 -0.6375
19880TIP3    H181055   0.138   5.980  16.834 -0.8010  0.1428  0.1958
19880TIP3    H281056   0.207   6.115  16.840 -0.0911 -0.1624 -0.7491
19881TIP3   OH281057   2.016   1.545   6.580 -0.2734 -0.8042  0.6120
19881TIP3    H181058   2.053   1.621   6.625 -0.8052  0.9097 -1.7098
19881TIP3    H281059   2.085   1.517   6.519  0.1279 -2.5878  1.7988
19882TIP3   OH281060   4.257   1.881  15.064  0.3900  0.2971 -0.8777
19882TIP3    H181061   4.303   1.828  14.999  0.0547  1.1583 -1.8548
19882TIP3    H281062   4.190   1.823  15.099  0.5485 -0.1770 -1.3404
19883TIP3   OH281063   0.624   1.828  17.202 -0.3426 -0.1910  0.1654
19883TIP3    H181064   0.660   1.739  17.194 -1.3180 -0.5352 -0.5900
19883TIP3    H281065   0.696   1.885  17.176 -0.2320 -0.8473 -1.0619
19884TIP3   OH281066   3.072   1.617   5.622  0.0039  0.5586 -0.1233
19884TIP3    H181067   3.060   1.709   5.597  1.0754  1.1722  1.5100
19884TIP3    H281068   3.145   1.617   5.682 -1.8778 -0.9447  2.3709
19885TIP3   OH281069   4.582   3.298  16.560  0.6886  0.4000  0.6208
19885TIP3    H181070   4.548   3.256  16.639  0.2783  1.1429  0.8461
19885TIP3    H281071   4.518   3.366  16.540  1.0854  0.5843 -0.0333
19886TIP3   OH281072   1.404   1.132  15.476  0.5903  0.0577  0.2177
19886TIP3    H181073   1.329   1.188  15.456 -0.1606 -1.1538 -0.5039
19886TIP3    H281074   1.399   1.120  15.571  0.4606  0.7777  0.3116
19887TIP3   OH281075   2.280   3.827   0.410  0.1233 -0.2209 -0.3603
19887TIP3    H181076   2.210   3.864   0.356 -1.7529  0.6322  2.3970
19887TIP3    H281077   2.241   3.750   0.451  0.6968  0.3095  1.2874
19888TIP3   OH281078   0.792   0.125   6.242  0.0098  0.0912 -0.1633
19888TIP3    H181079   0.862   0.166   6.293 -0.3548  3.0059 -1.8143
19888TIP3    H281080   0.726   0.101   6.308  1.5848 -0.7805  1.1874
19889TIP3   OH281081   1.421   0.738   5.129 -0.0136 -0.2153  0.4987
19889TIP3    H181082   1.437   0.832   5.122  0.2354 -0.0232  2.9481
19889TIP3    H281083   1.463   0.701   5.051  1.9010  1.4783  0.6349
19890TIP3   OH281084   3.428   5.580   0.920  0.0331 -0.1470 -0.0066
19890TIP3    H181085   3.415   5.637   0.996 -3.1462 -1.1139  0.3276
19890TIP3    H281086   3.470   5.502   0.955  0.2766  0.1691  0.4102
19891TIP3   OH281087   6.721   3.892  11.854  0.3259  0.5672  0.2690
19891TIP3    H181088   6.674   3.915  11.934  0.0611 -0.4627  0.4238
19891TIP3    H281089   6.811   3.922  11.870  0.4170 -0.1477  1.2084
19892TIP3   OH281090   0.059   3.664  11.011  0.1187 -0.0667  0.1586
19892TIP3    H181091  -0.033   3.656  11.034 -0.2440  0.6612 -0.9307
19892TIP3    H281092   0.075   3.759  11.009  0.1243 -0.0566 -2.3201
19893TIP3   OH281093   5.434   3.229   5.345  0.5400 -0.4261  0.3148
19893TIP3    H181094   5.466   3.224   5.435 -0.6098 -1.4685  0.6900
19893TIP3    H281095   5.497   3.287   5.301  0.7452  0.6841  1.9459
19894TIP3   OH281096   0.081   3.079  13.157  0.0685 -0.0012  0.5330
19894TIP3    H181097   0.084   2.983  13.159 -0.4471 -0.0499 -0.5128
19894TIP3    H281098  -0.010   3.099  13.136  0.4086  0.6917 -0.3071
19895TIP3   OH281099   0.257   1.998   3.853  0.6911 -0.4465  0.1656
19895TIP3    H181100   0.168   2.033   3.855  0.6056 -0.6364 -0.2218
19895TIP3    H281101   0.246   1.904   3.842  0.9459 -0.2785 -2.0757
19896TIP3   OH281102   0.478   4.181   2.436 -0.1453  0.4289  0.2804
19896TIP3    H181103   0.520   4.165   2.351 -0.7856  0.4624 -0.0465
19896TIP3    H281104   0.541   4.148   2.500 -0.8907 -2.4109 -0.3031
19897TIP3   OH281105   4.715   3.676   2.956  0.4625 -0.5288 -0.3673
19897TIP3    H181106   4.655   3.726   2.900  0.4560 -0.0895  0.0254
19897TIP3    H281107   4.660   3.613   3.001  0.5076 -1.0747 -1.0563
19898TIP3   OH281108   0.619   5.434   2.632  1.2282 -0.3348 -0.1528
19898TIP3    H181109   0.527   5.416   2.616  1.6929 -0.9505 -2.5118
19898TIP3    H281110   0.655   5.351   2.664  0.8272  0.1468  1.6215
19899TIP3   OH281111   2.738   1.298   4.058 -0.1667  0.4845 -0.1236
19899TIP3    H181112   2.719   1.205   4.069 -0.7241  0.6530  0.3398
19899TIP3    H281113   2.823   1.310   4.101 -0.0908  0.1972 -0.1880
19900TIP3   OH281114   0.472   2.994  11.206  0.0111  0.1027  0.2178
19900TIP3    H181115   0.410   2.974  11.135 -0.1225  0.8319  0.1207
19900TIP3    H281116   0.417   2.999  11.284 -0.2550  1.8155 -0.0288
19901TIP3   OH281117   4.984   3.019  13.676  0.1146 -0.3155  0.6800
19901TIP3    H181118   4.969   3.111  13.699 -3.3803 -1.2071  2.6404
19901TIP3    H281119   4.970   3.015  13.582  3.5672  1.5627 -0.0905
19902TIP3   OH281120   5.793   1.189  11.205 -0.1427 -0.3076 -0.1862
19902TIP3    H181121   5.803   1.119  11.141 -0.2333 -1.1353  0.6729
19902TIP3    H281122   5.883   1.213  11.228 -0.0739 -1.2768  0.6819
19903TIP3   OH281123   4.672   5.726  12.006 -0.0994 -0.4991 -0.5038
19903TIP3    H181124   4.719   5.789  11.951  0.4061 -0.3746  0.0593
19903TIP3    H281125   4.580   5.746  11.993  0.0072 -0.5671 -1.4149
19904TIP3   OH281126   0.577   4.872  16.635  0.5754 -0.1343 -0.1521
19904TIP3    H181127   0.664   4.852  16.669  0.6638 -1.2104 -0.9439
19904TIP3    H281128   0.591   4.943  16.572  0.6136  0.8804  0.9845
19905TIP3   OH281129   4.351   1.115  15.633 -0.4533 -0.4694  0.6750
19905TIP3    H181130   4.278   1.137  15.576  1.6211  1.5670 -1.4197
19905TIP3    H281131   4.388   1.200  15.658  2.1220 -1.4255  0.3606
19906TIP3   OH281132   0.922   5.792   1.792  0.1382 -0.3956 -0.0341
19906TIP3    H181133   0.944   5.741   1.870 -2.1966 -2.1402 -0.4203
19906TIP3    H281134   0.979   5.755   1.723  0.5999 -0.3881  0.3364
19907TIP3   OH281135   5.527   3.881   0.542  0.3930 -0.0590  0.5801
19907TIP3    H181136   5.582   3.939   0.489 -1.6587  1.5051 -0.0012
19907TIP3    H281137   5.444   3.929   0.549 -0.8162 -2.2004  1.5725
19908TIP3   OH281138   3.862   4.588  16.271  0.0681 -0.3437  0.0113
19908TIP3    H181139   3.886   4.663  16.325  1.3157 -1.0392  0.4726
19908TIP3    H281140   3.891   4.612  16.183 -0.0429 -0.0589  0.0513
19909TIP3   OH281141   4.304   4.531   2.644 -0.1053 -0.2368 -0.5174
19909TIP3    H181142   4.331   4.451   2.600 -1.8978 -0.7002 -0.8589
19909TIP3    H281143   4.271   4.502   2.729 -0.7141  0.1120 -0.6224
19910TIP3   OH281144   3.130   0.497  17.169 -0.3559 -0.3888  0.1733
19910TIP3    H181145   3.154   0.430  17.105 -0.7981 -0.1246 -0.2662
19910TIP3    H281146   3.101   0.447  17.246 -0.8611 -0.7048 -0.2175
19911TIP3   OH281147   5.614   6.054   2.284 -0.1016  0.5125 -0.6004
19911TIP3    H181148   5.654   6.139   2.269  0.6998  0.6134  1.6458
19911TIP3    H281149   5.662   6.019   2.360 -0.2938 -2.0110 -1.5561
19912TIP3   OH281150   3.159   0.925   0.129  0.5909 -0.1891  0.3420
19912TIP3    H181151   3.071   0.949   0.158  0.1668 -1.1795 -0.0804
19912TIP3    H281152   3.165   0.831   0.147  1.2866 -0.2838 -0.3424
19913TIP3   OH281153   0.636   3.454  14.936 -0.1752  0.2209  0.2530
19913TIP3    H181154   0.720   3.410  14.936 -0.8275 -1.0587  0.3896
19913TIP3    H281155   0.583   3.406  14.873 -1.2092  0.1795  1.1147
19914TIP3   OH281156   5.217   1.302   4.840  0.0772  0.4848  0.4274
19914TIP3    H181157   5.277   1.373   4.817  2.6503 -1.3617  1.0047
19914TIP3    H281158   5.167   1.336   4.915  1.6745  1.5138  1.0846
19915TIP3   OH281159   4.323   0.426  11.854  0.7440 -0.1712  0.1513
19915TIP3    H181160   4.311   0.357  11.919  1.2495 -0.3237  0.0857
19915TIP3    H281161   4.325   0.507  11.905  0.4517 -0.2297  0.2565
19916TIP3   OH281162   3.191   3.501  15.828  0.1304  0.9295  0.3831
19916TIP3    H181163   3.140   3.420  15.829 -2.1353  2.2296 -1.7226
19916TIP3    H281164   3.275   3.475  15.790 -0.8214 -0.3091 -0.9833
19917TIP3   OH281165   4.048   4.337  11.942  0.2843  0.4036 -0.3224
19917TIP3    H181166   4.051   4.424  11.903 -1.6262  0.6531 -0.0159
19917TIP3    H281167   4.135   4.324  11.979  1.6570  0.8557 -3.1114
19918TIP3   OH281168   5.661   0.313  16.070 -0.1201  0.3703 -0.2263
19918TIP3    H181169   5.703   0.378  16.014  1.8151  1.7882  2.6304
19918TIP3    H281170   5.730   0.249  16.089 -1.3084 -1.2171 -0.9662
19919TIP3   OH281171   2.132   3.863  12.836  0.5974  0.1711 -0.0194
19919TIP3    H181172   2.054   3.914  12.815  0.4255 -0.4310 -0.8736
19919TIP3    H281173   2.102   3.800  12.902  0.3992  0.0341 -0.2398
19920TIP3   OH281174   3.034   3.104   6.635 -0.3967  0.0870 -0.1001
19920TIP3    H181175   3.014   3.028   6.580 -1.7700  1.1553 -1.1540
19920TIP3    H281176   3.054   3.067   6.721  0.2605 -1.5323 -0.9124
19921TIP3   OH281177   6.547   0.602  14.557 -0.3061  0.2240 -0.1982
19921TIP3    H181178   6.498   0.666  14.609 -0.0061 -0.4292  0.9182
19921TIP3    H281179   6.625   0.582  14.609  1.0713  1.0698 -1.8459
19922TIP3   OH281180   4.433   3.464   2.118  0.9256 -0.1534  0.5062
19922TIP3    H181181   4.450   3.472   2.212  0.5262 -0.0816  0.5731
19922TIP3    H281182   4.452   3.551   2.083 -0.5877  0.3138  0.7879
19923TIP3   OH281183   6.302   2.259   4.953 -0.0083 -0.4127  0.4494
19923TIP3    H181184   6.253   2.251   5.035  0.5236  0.2324  0.8420
19923TIP3    H281185   6.315   2.353   4.942 -1.1931 -0.3743 -1.0561
19924TIP3   OH281186   5.078   2.066   0.258 -0.6759  0.1351  0.2333
19924TIP3    H181187   4.982   2.070   0.252 -0.6377  1.4023  0.3148
19924TIP3    H281188   5.109   2.099   0.174 -0.3096 -0.1747  0.2441
19925TIP3   OH281189   4.802   2.822  11.226 -0.1402  1.3794 -0.3812
19925TIP3    H181190   4.717   2.843  11.264 -1.3086 -0.6378 -1.6619
19925TIP3    H281191   4.782   2.761  11.155  2.4783 -0.1989  0.0936
19926TIP3   OH281192   1.572   4.170   0.863 -0.0068  0.0042 -0.0289
19926TIP3    H181193   1.653   4.155   0.815 -1.3423  0.7474 -2.6846
19926TIP3    H281194   1.558   4.265   0.856  0.7054  0.5454  3.6559
19927TIP3   OH281195   2.194   1.146  15.814 -0.7190 -0.3333  0.5117
19927TIP3    H181196   2.218   1.228  15.856 -3.4441  0.6223  0.4258
19927TIP3    H281197   2.176   1.170  15.723 -2.9378 -0.6813  0.8149
19928TIP3   OH281198   3.754   2.041   4.591 -0.5150 -0.6461  0.3736
19928TIP3    H181199   3.694   1.996   4.650 -0.3647  0.2628  1.2587
19928TIP3    H281200   3.710   2.124   4.571  0.2989 -0.0952  0.8075
19929TIP3   OH281201   4.234   6.039  10.599 -0.5949  0.0089 -0.2505
19929TIP3    H181202   4.239   5.978  10.673  1.1952  0.6164  0.1838
19929TIP3    H281203   4.311   6.019  10.546 -1.3340  0.2366 -1.4438
19930TIP3   OH281204   5.747   4.806  15.480 -0.5511  0.2620 -0.6449
19930TIP3    H181205   5.737   4.899  15.500 -1.6324 -0.0391  0.3304
19930TIP3    H281206   5.806   4.774  15.548 -0.7748  0.0916 -0.5309
19931TIP3   OH281207   0.547   1.501  16.361 -0.0794  0.2577  0.3742
19931TIP3    H181208   0.452   1.495  16.365 -0.0616  0.4385  1.3880
19931TIP3    H281209   0.575   1.494  16.453  0.7507  2.3821  0.3359
19932TIP3   OH281210   5.122   4.694  11.623 -0.1087  0.4654  0.2512
19932TIP3    H181211   5.041   4.701  11.572  0.2057  2.0677 -0.0726
19932TIP3    H281212   5.117   4.765  11.686 -0.0396 -0.9029  1.8690
19933TIP3   OH281213   4.938   4.577  11.852  0.6549 -0.4309 -0.3019
19933TIP3    H181214   5.026   4.578  11.815  0.6536 -0.3875 -0.3031
19933TIP3    H281215   4.884   4.623  11.787 -0.0525 -3.4407 -2.0329
19934TIP3   OH281216   4.406   3.583  11.287 -0.1473 -0.1933  0.1985
19934TIP3    H181217   4.370   3.619  11.206  1.0864 -0.0982 -0.3360
19934TIP3    H281218   4.436   3.495  11.262 -1.3011 -0.8419  0.9940
19935TIP3   OH281219   2.440   0.355   2.856 -0.2921  0.0053 -0.9221
19935TIP3    H181220   2.521   0.326   2.815 -0.0223 -0.3985 -0.1206
19935TIP3    H281221   2.371   0.310   2.808 -0.1025  0.8234 -2.0178
19936TIP3   OH281222   4.107   1.934  14.620 -0.1282  0.3025 -0.2448
19936TIP3    H181223   4.161   1.895  14.550  0.9591  0.0653  0.7063
19936TIP3    H281224   4.034   1.873  14.629  0.3614 -0.3220 -0.3580
19937TIP3   OH281225   5.868   2.642  14.546 -0.0855 -0.1374  0.1697
19937TIP3    H181226   5.897   2.611  14.460  0.4513  2.0455 -0.5135
19937TIP3    H281227   5.931   2.604  14.608  0.5537 -0.3633 -0.6060
19938TIP3   OH281228   0.727   5.521  10.910  0.4961  0.0498 -0.1505
19938TIP3    H181229   0.645   5.559  10.880  0.3600  0.0687  0.2375
19938TIP3    H281230   0.707   5.428  10.922 -0.1589  0.4218  2.2146
19939TIP3   OH281231   2.920   6.750  13.628  0.0550  0.3855  0.5061
19939TIP3    H181232   2.909   6.709  13.714 -0.5789 -0.3106  0.1044
19939TIP3    H281233   3.009   6.726  13.601  0.9877  2.2293  1.7959
19940TIP3   OH281234   3.468   6.363   4.350 -0.3046 -0.1534  0.0532
19940TIP3    H181235   3.519   6.425   4.402  2.2277 -0.7361 -1.5584
19940TIP3    H281236   3.441   6.295   4.411 -0.3833  0.9029  1.2232
19941TIP3   OH281237   5.635   5.002  12.664  0.0130  0.7299  0.6949
19941TIP3    H181238   5.599   4.982  12.578  0.8479 -0.3940  0.5916
19941TIP3    H281239   5.726   5.027  12.646  0.5186 -0.5980  1.3443
19942TIP3   OH281240   0.521   3.893  12.437 -0.1328  0.1646  0.1854
19942TIP3    H181241   0.437   3.894  12.390  0.1851 -0.9202 -0.4231
19942TIP3    H281242   0.497   3.874  12.527 -0.6720  1.3938  0.3215
19943TIP3   OH281243   1.928   2.300  12.763 -0.1351 -0.6418  0.5326
19943TIP3    H181244   1.880   2.273  12.841 -0.5303 -0.9625  0.1891
19943TIP3    H281245   1.896   2.241  12.694 -0.5065  0.2682 -0.0880
19944TIP3   OH281246   5.985   0.981   2.548 -0.5820 -0.3051 -0.5828
19944TIP3    H181247   6.007   1.003   2.457 -2.3370  0.0674 -0.9538
19944TIP3    H281248   6.020   0.892   2.560 -0.8155 -0.5860 -1.8091
19945TIP3   OH281249   1.918   4.240  16.830 -0.5045  0.1726  0.1052
19945TIP3    H181250   1.857   4.194  16.888 -0.6226 -0.2739 -0.3695
19945TIP3    H281251   1.879   4.231  16.743 -0.4828  1.0868 -0.0120
19946TIP3   OH281252   3.084   0.904  12.619 -0.2062 -0.1557  0.2030
19946TIP3    H181253   3.020   0.834  12.635 -0.8615  0.7859  1.9897
19946TIP3    H281254   3.104   0.897  12.525 -0.6727 -2.3485  0.2038
19947TIP3   OH281255   5.025   5.181  13.706  0.2803 -0.3107 -0.3772
19947TIP3    H181256   4.967   5.164  13.780  1.8821 -1.5670  0.6689
19947TIP3    H281257   5.005   5.113  13.642 -0.5227  0.2707 -0.7623
19948TIP3   OH281258   3.437   2.275   4.250  0.1745  0.2246 -0.2530
19948TIP3    H181259   3.478   2.196   4.218 -2.0644 -0.8074 -0.7880
19948TIP3    H281260   3.373   2.298   4.183 -2.2939 -0.0638  1.8324
19949TIP3   OH281261   6.430   1.629   3.766  0.5491 -1.0295 -0.0499
19949TIP3    H181262   6.496   1.665   3.825  0.7903  1.2602 -1.6055
19949TIP3    H281263   6.355   1.687   3.776  0.9589  0.1075 -2.6764
19950TIP3   OH281264   6.727   5.754  16.559 -0.1468  0.3667  0.7332
19950TIP3    H181265   6.667   5.749  16.633  1.0359  3.5656  2.0747
19950TIP3    H281266   6.808   5.790  16.596  0.4718  2.1700 -2.0910
19951TIP3   OH281267   2.106   1.966   4.377 -0.2698  0.1162  0.3306
19951TIP3    H181268   2.110   1.969   4.282 -1.1497 -1.1578  0.2304
19951TIP3    H281269   2.133   1.877   4.400  0.3349  0.5314  1.3027
19952TIP3   OH281270   3.768   0.734  15.937  0.9709 -0.1227 -0.2596
19952TIP3    H181271   3.791   0.735  16.030  1.2150  0.6945 -0.3219
19952TIP3    H281272   3.827   0.797  15.897  1.1652 -0.7857 -1.0504
19953TIP3   OH281273   5.802   5.430   3.735 -0.7191  0.2759 -0.0247
19953TIP3    H181274   5.715   5.457   3.765 -0.0580  0.6483  1.6753
19953TIP3    H281275   5.862   5.475   3.795  0.6314 -0.2217 -0.9806
19954TIP3   OH281276   0.060   2.928  17.117 -0.6269  0.3331 -0.8178
19954TIP3    H181277   0.025   2.998  17.173 -5.3895 -0.7143 -2.1201
19954TIP3    H281278   0.050   2.849  17.169 -0.0455 -0.0151 -1.2288
19955TIP3   OH281279   3.063   6.173   5.733 -0.7723 -0.0579 -0.0620
19955TIP3    H181280   3.138   6.209   5.782 -0.6869  0.6315 -0.6810
19955TIP3    H281281   3.096   6.163   5.644 -1.3762  0.1201 -0.3062
19956TIP3   OH281282   5.949   5.742  15.837  0.3537 -0.4944  0.3844
19956TIP3    H181283   6.041   5.734  15.863  0.1842 -1.6579  0.6939
19956TIP3    H281284   5.905   5.777  15.915  0.6461  0.8671 -0.0326
19957TIP3   OH281285   3.395   5.551  12.927 -0.1241 -0.1152  0.0744
19957TIP3    H181286   3.456   5.545  13.001  2.3533 -1.6683 -1.9072
19957TIP3    H281287   3.350   5.467  12.926 -0.1224 -0.1143 -0.1967
19958TIP3   OH281288   6.380   0.202   3.565  0.1983  0.3193  0.3327
19958TIP3    H181289   6.338   0.252   3.635  0.5296  2.6502 -1.0203
19958TIP3    H281290   6.471   0.231   3.567  0.8557 -1.6160  0.6170
19959TIP3   OH281291   2.249   5.745  12.046  0.1776  0.6111  0.2490
19959TIP3    H181292   2.154   5.741  12.060  0.1892 -1.3670  0.0767
19959TIP3    H281293   2.268   5.838  12.035 -2.0179  0.9337 -1.5662
19960LIG     O181294   4.880   4.943   8.669 -0.0487 -0.2026 -0.1364
19960LIG     O281295   5.063   4.893   8.529  0.0856 -0.5109 -0.2408
19960LIG     O381296   5.122   4.783   8.716 -0.4961 -0.6176 -0.8210
19960LIG     O481297   4.867   5.187   8.466 -0.0462  0.4372  0.2991
19960LIG     O581298   4.994   5.278   8.698  0.1810 -0.2291  0.0690
19960LIG     O681299   5.050   4.632   8.388 -0.1599 -0.2269 -0.1747
19960LIG     O781300   5.316   4.792   8.422 -0.7019 -0.5320  0.1677
19960LIG     O881301   5.481   4.723   8.623  0.5032  0.2884 -0.4322
19960LIG     O981302   4.866   4.950   8.287  0.0451  0.4299  0.3271
19960LIG    O1081303   4.994   4.896   8.917 -0.1776 -0.1448  0.3055
19960LIG    O1181304   5.444   4.811   8.894 -0.4754  0.1679  0.1302
19960LIG     C181305   4.935   4.955   8.537  0.5083 -0.7822  0.0161
19960LIG     C281306   4.972   5.106   8.518  0.7061  0.4605 -0.2440
19960LIG     C381307   5.008   5.143   8.662 -0.5312 -0.7408 -0.3845
19960LIG     C481308   4.913   5.062   8.748 -0.6185  0.0121  0.6161
19960LIG     C581309   5.060   4.770   8.595  0.3874 -0.4142  0.2938
19960LIG     C681310   5.123   4.668   8.509  1.0052  0.8622 -0.4548
19960LIG     C781311   5.276   4.680   8.495  1.1258 -0.2597  0.1138
19960LIG     C881312   5.338   4.693   8.637 -0.1805 -0.0483 -0.0380
19960LIG     C981313   5.261   4.804   8.710 -1.0489 -0.4440  0.1552
19960LIG    C1081314   4.837   4.906   8.420 -0.5284  0.4548  0.3102
19960LIG    C1181315   4.967   5.034   8.893 -0.6136  0.2765  0.3486
19960LIG    C1281316   5.305   4.821   8.865  0.3590 -0.1631  0.6535
19960LIG     H181317   5.060   5.114   8.452  2.6189 -0.3258  2.0600
19960LIG     H281318   5.111   5.113   8.682  0.0096  0.8770 -0.6098
19960LIG     H381319   4.817   5.114   8.763 -0.7536  0.7347 -2.2764
19960LIG     H481320   4.961   4.722   8.613  0.9402 -2.0938 -0.8351
19960LIG     H581321   5.107   4.570   8.558 -1.2812  2.4480  2.2532
19960LIG     H681322   5.327   4.591   8.454  1.5811 -0.0227  0.1624
19960LIG     H781323   5.325   4.605   8.704  1.3208 -0.3052 -0.0560
19960LIG     H881324   5.284   4.904   8.666  0.2713 -0.2833  1.1583
19960LIG     H981325   4.824   4.796   8.436 -0.3264  0.3811 -0.0245
19960LIG    H1081326   4.741   4.956   8.447 -0.7091  0.3385 -0.1107
19960LIG    H1181327   5.058   5.094   8.913  0.6494 -0.7461 -1.9289
19960LIG    H1281328   4.893   5.072   8.967 -0.9677  1.4041 -0.5622
19960LIG    H1381329   5.256   4.913   8.903  0.3164 -0.1417  0.5483
19960LIG    H1481330   5.267   4.729   8.915 -2.0401 -0.3070 -1.2531
19960LIG    H1581331   4.859   5.150   8.378  1.7289  1.0756 -0.1661
19960LIG    H1681332   4.918   5.315   8.653 -0.8214  1.7865  3.0950
19960LIG    H1781333   5.059   4.710   8.334  1.4461  0.4159  0.9216
19960LIG    H1881334   5.404   4.803   8.458  0.9328 -2.3649 -2.8690
19960LIG    H1981335   5.519   4.739   8.710 -1.8759  1.9007  0.3846
19960LIG    H2081336   4.951   4.917   8.257  1.4123  4.4661 -0.9925
19960LIG    H2181337   5.008   4.854   8.832 -2.9916 -0.7645  0.0500
19960LIG    H2281338   5.459   4.809   8.989 -3.2662 -0.0017  0.6462
   6.77963   6.77963  17.33011
